* EQUILIBRATED WATER
*  DATE:     6/17/26     23:42: 9      CREATED BY USER: charmm-gui
*
     29691  EXT
         1         1  TIP3      OH2            -3.6077403985      -35.7668657466      -26.7654746635  WZ1       232             0.0000000000
         2         1  TIP3      H1             -4.2962803985      -35.1087957466      -26.8608146635  WZ1       232             0.0000000000
         3         1  TIP3      H2             -3.5922803985      -35.9640757466      -25.8289346635  WZ1       232             0.0000000000
         4         2  TIP3      OH2            -6.8338303985      -26.5003457466      -29.6187346635  WZ1       240             0.0000000000
         5         2  TIP3      H1             -7.7754603985      -26.4419557466      -29.4570446635  WZ1       240             0.0000000000
         6         2  TIP3      H2             -6.5572203985      -25.5942957466      -29.7557646635  WZ1       240             0.0000000000
         7         3  TIP3      OH2            -5.7360403985      -28.2514757466      -26.0075646635  WZ1       245             0.0000000000
         8         3  TIP3      H1             -5.5964103985      -28.8432257466      -26.7468646635  WZ1       245             0.0000000000
         9         3  TIP3      H2             -5.5687603985      -27.3788857466      -26.3636846635  WZ1       245             0.0000000000
        10         4  TIP3      OH2            -3.8941103985      -31.9116757466      -27.9415246635  WZ1       248             0.0000000000
        11         4  TIP3      H1             -4.5467003985      -31.2171157466      -27.8524346635  WZ1       248             0.0000000000
        12         4  TIP3      H2             -3.4290803985      -31.7015857466      -28.7513646635  WZ1       248             0.0000000000
        13         5  TIP3      OH2            -7.9603803985      -32.9059357466      -26.2156746635  WZ1       250             0.0000000000
        14         5  TIP3      H1             -7.8804703985      -32.1424957466      -25.6438246635  WZ1       250             0.0000000000
        15         5  TIP3      H2             -8.5616103985      -32.6266957466      -26.9061646635  WZ1       250             0.0000000000
        16         6  TIP3      OH2            -9.5365903985      -26.1778257466      -29.0333246635  WZ1       254             0.0000000000
        17         6  TIP3      H1             -9.7769303985      -25.5155157466      -28.3854046635  WZ1       254             0.0000000000
        18         6  TIP3      H2             -9.7347703985      -27.0123057466      -28.6083646635  WZ1       254             0.0000000000
        19         7  TIP3      OH2           -14.9657403985      -27.2817457466      -25.0501846635  WZ1       255             0.0000000000
        20         7  TIP3      H1            -15.2769903985      -26.4994257466      -24.5948646635  WZ1       255             0.0000000000
        21         7  TIP3      H2            -15.6157203985      -27.4348357466      -25.7359846635  WZ1       255             0.0000000000
        22         8  TIP3      OH2           -16.7261503985      -25.2102457466      -24.2868046635  WZ1       259             0.0000000000
        23         8  TIP3      H1            -16.7186203985      -25.3462757466      -25.2342546635  WZ1       259             0.0000000000
        24         8  TIP3      H2            -17.6421103985      -25.3274357466      -24.0348046635  WZ1       259             0.0000000000
        25         9  TIP3      OH2            -3.1809603985      -25.5708757466      -24.4302246635  WZ1       265             0.0000000000
        26         9  TIP3      H1             -3.2302803985      -26.5260657466      -24.4674646635  WZ1       265             0.0000000000
        27         9  TIP3      H2             -4.0077303985      -25.3033457466      -24.0288446635  WZ1       265             0.0000000000
        28        10  TIP3      OH2           -12.2025603985      -25.9969557466      -25.5540846635  WZ1       266             0.0000000000
        29        10  TIP3      H1            -12.1151003985      -25.1704957466      -25.0791746635  WZ1       266             0.0000000000
        30        10  TIP3      H2            -13.0660503985      -26.3265757466      -25.3051546635  WZ1       266             0.0000000000
        31        11  TIP3      OH2            -6.0289803985      -34.0776257466      -23.9500046635  WZ1       271             0.0000000000
        32        11  TIP3      H1             -6.4363003985      -33.5970657466      -24.6706746635  WZ1       271             0.0000000000
        33        11  TIP3      H2             -5.9884103985      -34.9830257466      -24.2579246635  WZ1       271             0.0000000000
        34        12  TIP3      OH2            -8.2719603985      -35.7460757466      -25.7297646635  WZ1       275             0.0000000000
        35        12  TIP3      H1             -8.7860103985      -35.8718557466      -24.9321646635  WZ1       275             0.0000000000
        36        12  TIP3      H2             -8.4274903985      -34.8337657466      -25.9741446635  WZ1       275             0.0000000000
        37        13  TIP3      OH2           -11.5356003985      -33.4455057466      -23.6457446635  WZ1       281             0.0000000000
        38        13  TIP3      H1            -12.0982203985      -34.1503457466      -23.3249646635  WZ1       281             0.0000000000
        39        13  TIP3      H2            -10.7092603985      -33.5663157466      -23.1779846635  WZ1       281             0.0000000000
        40        14  TIP3      OH2            -5.8990803985      -21.7032557466      -23.3235446635  WZ1       293             0.0000000000
        41        14  TIP3      H1             -5.6992103985      -21.2790657466      -24.1580146635  WZ1       293             0.0000000000
        42        14  TIP3      H2             -5.2437103985      -21.3594357466      -22.7165046635  WZ1       293             0.0000000000
        43        15  TIP3      OH2            -5.9510703985      -30.0879257466      -28.0920846635  WZ1       299             0.0000000000
        44        15  TIP3      H1             -5.3091903985      -29.6312957466      -28.6358646635  WZ1       299             0.0000000000
        45        15  TIP3      H2             -6.7813803985      -29.9746857466      -28.5546746635  WZ1       299             0.0000000000
        46        16  TIP3      OH2           -11.5817503985      -29.0364157466      -25.6419346635  WZ1       301             0.0000000000
        47        16  TIP3      H1            -11.9271403985      -29.4181757466      -24.8349746635  WZ1       301             0.0000000000
        48        16  TIP3      H2            -11.7817403985      -28.1030557466      -25.5706446635  WZ1       301             0.0000000000
        49        17  TIP3      OH2           -13.9516703985      -31.9480657466      -23.5812346635  WZ1       306             0.0000000000
        50        17  TIP3      H1            -14.2475903985      -32.1137657466      -24.4763246635  WZ1       306             0.0000000000
        51        17  TIP3      H2            -13.0201503985      -32.1680357466      -23.5918446635  WZ1       306             0.0000000000
        52        18  TIP3      OH2            -9.3313903985      -26.5748657466      -25.6914346635  WZ1       307             0.0000000000
        53        18  TIP3      H1            -10.2319603985      -26.3916057466      -25.9590446635  WZ1       307             0.0000000000
        54        18  TIP3      H2             -9.2972803985      -26.3159357466      -24.7705546635  WZ1       307             0.0000000000
        55        19  TIP3      OH2            -3.6368603985      -28.5299057466      -24.4870246635  WZ1       309             0.0000000000
        56        19  TIP3      H1             -4.4880103985      -28.2915257466      -24.8543846635  WZ1       309             0.0000000000
        57        19  TIP3      H2             -3.0465203985      -28.5465857466      -25.2403146635  WZ1       309             0.0000000000
        58        20  TIP3      OH2           -13.6593003985      -24.5955757466      -27.8133646635  WZ1       315             0.0000000000
        59        20  TIP3      H1            -13.2968303985      -23.7410157466      -28.0469246635  WZ1       315             0.0000000000
        60        20  TIP3      H2            -13.1277803985      -24.8874157466      -27.0727346635  WZ1       315             0.0000000000
        61        21  TIP3      OH2            -7.4568003985      -23.9445557466      -25.6433246635  WZ1       319             0.0000000000
        62        21  TIP3      H1             -8.0584803985      -24.5002657466      -26.1386946635  WZ1       319             0.0000000000
        63        21  TIP3      H2             -7.1754303985      -23.2775757466      -26.2695846635  WZ1       319             0.0000000000
        64        22  TIP3      OH2            -5.8751703985      -36.6974057466      -25.3945046635  WZ1       335             0.0000000000
        65        22  TIP3      H1             -6.7915903985      -36.4352357466      -25.4821346635  WZ1       335             0.0000000000
        66        22  TIP3      H2             -5.5396703985      -36.7005057466      -26.2909746635  WZ1       335             0.0000000000
        67        23  TIP3      OH2            -6.1866103985      -23.6910557466      -29.6764246635  WZ1       339             0.0000000000
        68        23  TIP3      H1             -6.3421803985      -23.0126157466      -30.3334946635  WZ1       339             0.0000000000
        69        23  TIP3      H2             -5.2539703985      -23.6191257466      -29.4733646635  WZ1       339             0.0000000000
        70        24  TIP3      OH2           -20.4726703985      -23.0202057466      -23.4489046635  WZ1       342             0.0000000000
        71        24  TIP3      H1            -19.9324503985      -23.2368057466      -22.6889846635  WZ1       342             0.0000000000
        72        24  TIP3      H2            -20.9538703985      -23.8256057466      -23.6386546635  WZ1       342             0.0000000000
        73        25  TIP3      OH2           -15.8753303985      -24.1007657466      -21.8284846635  WZ1       343             0.0000000000
        74        25  TIP3      H1            -15.1076103985      -24.5596857466      -21.4875646635  WZ1       343             0.0000000000
        75        25  TIP3      H2            -15.8967103985      -24.3267857466      -22.7583646635  WZ1       343             0.0000000000
        76        26  TIP3      OH2            -9.2984603985      -25.7206557466      -23.0993346635  WZ1       345             0.0000000000
        77        26  TIP3      H1             -9.6495103985      -26.5773557466      -22.8562946635  WZ1       345             0.0000000000
        78        26  TIP3      H2             -8.5721403985      -25.5779857466      -22.4924346635  WZ1       345             0.0000000000
        79        27  TIP3      OH2           -13.9101103985      -29.2399857466      -23.0618346635  WZ1       349             0.0000000000
        80        27  TIP3      H1            -14.2387303985      -28.9691757466      -23.9190946635  WZ1       349             0.0000000000
        81        27  TIP3      H2            -13.7582903985      -30.1810057466      -23.1493346635  WZ1       349             0.0000000000
        82        28  TIP3      OH2            -8.1755903985      -29.3242557466      -25.6786046635  WZ1       351             0.0000000000
        83        28  TIP3      H1             -7.4301103985      -28.7358857466      -25.7982046635  WZ1       351             0.0000000000
        84        28  TIP3      H2             -8.9329103985      -28.7422857466      -25.6152946635  WZ1       351             0.0000000000
        85        29  TIP3      OH2           -10.7662203985      -30.5293657466      -22.4227746635  WZ1       356             0.0000000000
        86        29  TIP3      H1             -9.8131003985      -30.4454557466      -22.4501746635  WZ1       356             0.0000000000
        87        29  TIP3      H2            -10.9267603985      -31.2411857466      -21.8032846635  WZ1       356             0.0000000000
        88        30  TIP3      OH2            -9.0366403985      -34.0214357466      -21.8571546635  WZ1       361             0.0000000000
        89        30  TIP3      H1             -8.8445103985      -34.9524957466      -21.9687046635  WZ1       361             0.0000000000
        90        30  TIP3      H2             -8.1790103985      -33.5964857466      -21.8676146635  WZ1       361             0.0000000000
        91        31  TIP3      OH2            -7.7199203985      -31.2329157466      -23.7798846635  WZ1       362             0.0000000000
        92        31  TIP3      H1             -8.0014203985      -30.5234557466      -24.3575046635  WZ1       362             0.0000000000
        93        31  TIP3      H2             -6.7774903985      -31.3056157466      -23.9307646635  WZ1       362             0.0000000000
        94        32  TIP3      OH2           -12.9645003985      -35.4981257466      -23.1300046635  WZ1       365             0.0000000000
        95        32  TIP3      H1            -13.1999603985      -35.7174557466      -22.2285146635  WZ1       365             0.0000000000
        96        32  TIP3      H2            -13.7478103985      -35.7050057466      -23.6397546635  WZ1       365             0.0000000000
        97        33  TIP3      OH2           -10.2488403985      -36.3707757466      -24.0546546635  WZ1       366             0.0000000000
        98        33  TIP3      H1            -11.1963003985      -36.3388057466      -23.9223246635  WZ1       366             0.0000000000
        99        33  TIP3      H2             -9.9361703985      -36.9960657466      -23.4008346635  WZ1       366             0.0000000000
       100        34  TIP3      OH2            -3.4708103985      -23.0404857466      -29.4472346635  WZ1       375             0.0000000000
       101        34  TIP3      H1             -3.4921403985      -22.8556457466      -28.5082946635  WZ1       375             0.0000000000
       102        34  TIP3      H2             -2.7801903985      -22.4720857466      -29.7880946635  WZ1       375             0.0000000000
       103        35  TIP3      OH2            -3.9075203985      -23.4733757466      -26.5253246635  WZ1       376             0.0000000000
       104        35  TIP3      H1             -4.3946503985      -24.2089657466      -26.8965846635  WZ1       376             0.0000000000
       105        35  TIP3      H2             -3.3582503985      -23.8669857466      -25.8473846635  WZ1       376             0.0000000000
       106        36  TIP3      OH2            -5.4567903985      -27.6835657466      -21.8872946635  WZ1       377             0.0000000000
       107        36  TIP3      H1             -6.3226803985      -27.7885957466      -21.4930646635  WZ1       377             0.0000000000
       108        36  TIP3      H2             -5.0802003985      -26.9252357466      -21.4408246635  WZ1       377             0.0000000000
       109        37  TIP3      OH2            -4.0021403985      -28.5887057466      -29.6017146635  WZ1       380             0.0000000000
       110        37  TIP3      H1             -3.1687203985      -28.9667057466      -29.8823546635  WZ1       380             0.0000000000
       111        37  TIP3      H2             -3.8901103985      -27.6455857466      -29.7208046635  WZ1       380             0.0000000000
       112        38  TIP3      OH2            -5.5159103985      -25.7109557466      -27.2948746635  WZ1       381             0.0000000000
       113        38  TIP3      H1             -6.1633803985      -25.3858057466      -26.6693546635  WZ1       381             0.0000000000
       114        38  TIP3      H2             -6.0335103985      -26.1511857466      -27.9690446635  WZ1       381             0.0000000000
       115        39  TIP3      OH2            -5.1182903985      -30.8824757466      -24.3477746635  WZ1       386             0.0000000000
       116        39  TIP3      H1             -4.5355603985      -31.6172457466      -24.1560546635  WZ1       386             0.0000000000
       117        39  TIP3      H2             -4.5543603985      -30.1104457466      -24.3011946635  WZ1       386             0.0000000000
       118        40  TIP3      OH2            -3.6215803985      -32.9798957466      -23.6632346635  WZ1       387             0.0000000000
       119        40  TIP3      H1             -4.4849103985      -33.3586857466      -23.8287646635  WZ1       387             0.0000000000
       120        40  TIP3      H2             -3.0172103985      -33.7184157466      -23.7376546635  WZ1       387             0.0000000000
       121        41  TIP3      OH2            -5.6230803985      -33.9519557466      -27.3122646635  WZ1       391             0.0000000000
       122        41  TIP3      H1             -6.4659503985      -33.6839157466      -26.9462846635  WZ1       391             0.0000000000
       123        41  TIP3      H2             -5.1806503985      -33.1297657466      -27.5231546635  WZ1       391             0.0000000000
       124        42  TIP3      OH2           -19.3474603985      -26.0214057466      -23.3319646635  WZ1       402             0.0000000000
       125        42  TIP3      H1            -20.1682103985      -25.8467557466      -23.7924946635  WZ1       402             0.0000000000
       126        42  TIP3      H2            -19.5996803985      -26.0949357466      -22.4115246635  WZ1       402             0.0000000000
       127        43  TIP3      OH2           -12.0820303985      -23.6482857466      -24.1141946635  WZ1       404             0.0000000000
       128        43  TIP3      H1            -11.8972803985      -23.9816757466      -23.2361646635  WZ1       404             0.0000000000
       129        43  TIP3      H2            -11.2355803985      -23.3384257466      -24.4362746635  WZ1       404             0.0000000000
       130        44  TIP3      OH2            -9.7369903985      -22.3623957466      -24.8700546635  WZ1       405             0.0000000000
       131        44  TIP3      H1             -9.0601003985      -22.9951657466      -25.1101346635  WZ1       405             0.0000000000
       132        44  TIP3      H2             -9.4151103985      -21.9613457466      -24.0627246635  WZ1       405             0.0000000000
       133        45  TIP3      OH2           -11.8136803985      -22.3026157466      -28.8207146635  WZ1       409             0.0000000000
       134        45  TIP3      H1            -12.2702803985      -21.7736457466      -29.4748746635  WZ1       409             0.0000000000
       135        45  TIP3      H2            -11.6508803985      -21.6994757466      -28.0954846635  WZ1       409             0.0000000000
       136        46  TIP3      OH2            -9.4860503985      -23.4246557466      -27.8756846635  WZ1       410             0.0000000000
       137        46  TIP3      H1            -10.3906803985      -23.2596357466      -28.1414746635  WZ1       410             0.0000000000
       138        46  TIP3      H2             -9.0571903985      -22.5714357466      -27.9413446635  WZ1       410             0.0000000000
       139        47  TIP3      OH2            -6.8818603985      -21.8547457466      -27.5809046635  WZ1       411             0.0000000000
       140        47  TIP3      H1             -7.0636603985      -20.9388557466      -27.7914146635  WZ1       411             0.0000000000
       141        47  TIP3      H2             -6.7050803985      -22.2650357466      -28.4274446635  WZ1       411             0.0000000000
       142        48  TIP3      OH2            -5.5347903985      -24.4199657466      -23.7177146635  WZ1       432             0.0000000000
       143        48  TIP3      H1             -6.3166003985      -24.6061657466      -24.2376546635  WZ1       432             0.0000000000
       144        48  TIP3      H2             -5.6068003985      -23.4905357466      -23.5004646635  WZ1       432             0.0000000000
       145        49  TIP3      OH2             0.1728796015      -31.6642457466      -28.6751846635  WZ1       435             0.0000000000
       146        49  TIP3      H1              0.2140896015      -32.2899157466      -27.9519446635  WZ1       435             0.0000000000
       147        49  TIP3      H2              0.8756496015      -31.0403857466      -28.4931446635  WZ1       435             0.0000000000
       148        50  TIP3      OH2             1.0961896015      -27.2143557466      -30.1402746635  WZ1       437             0.0000000000
       149        50  TIP3      H1              0.7267096015      -28.0163057466      -30.5098446635  WZ1       437             0.0000000000
       150        50  TIP3      H2              2.0372996015      -27.3828657466      -30.0939346635  WZ1       437             0.0000000000
       151        51  TIP3      OH2             8.6219496015      -23.2352457466      -31.7546246635  WZ1       440             0.0000000000
       152        51  TIP3      H1              9.2415896015      -23.9117757466      -32.0277046635  WZ1       440             0.0000000000
       153        51  TIP3      H2              8.4136896015      -23.4531657466      -30.8461346635  WZ1       440             0.0000000000
       154        52  TIP3      OH2             6.1938196015      -28.8463157466      -29.8620746635  WZ1       441             0.0000000000
       155        52  TIP3      H1              6.4976096015      -29.5321757466      -30.4566646635  WZ1       441             0.0000000000
       156        52  TIP3      H2              6.9152196015      -28.7274457466      -29.2442746635  WZ1       441             0.0000000000
       157        53  TIP3      OH2             3.8686796015      -29.7570257466      -27.9006646635  WZ1       451             0.0000000000
       158        53  TIP3      H1              3.1285896015      -29.1588757466      -27.7971446635  WZ1       451             0.0000000000
       159        53  TIP3      H2              4.5826296015      -29.2030657466      -28.2163046635  WZ1       451             0.0000000000
       160        54  TIP3      OH2             0.8932696015      -35.5404157466      -30.2358146635  WZ1       453             0.0000000000
       161        54  TIP3      H1              1.5068996015      -34.9076557466      -29.8625746635  WZ1       453             0.0000000000
       162        54  TIP3      H2              1.4053396015      -36.0129157466      -30.8921246635  WZ1       453             0.0000000000
       163        55  TIP3      OH2             2.2761096015      -27.7927257466      -27.1135146635  WZ1       454             0.0000000000
       164        55  TIP3      H1              2.2708696015      -26.9133757466      -27.4915846635  WZ1       454             0.0000000000
       165        55  TIP3      H2              1.4225196015      -27.8763157466      -26.6885246635  WZ1       454             0.0000000000
       166        56  TIP3      OH2            12.0221696015      -26.5003457466      -29.6187346635  WZ1       456             0.0000000000
       167        56  TIP3      H1             11.0805396015      -26.4419557466      -29.4570446635  WZ1       456             0.0000000000
       168        56  TIP3      H2             12.2987796015      -25.5942957466      -29.7557646635  WZ1       456             0.0000000000
       169        57  TIP3      OH2            10.2742896015      -24.7189957466      -32.9935746635  WZ1       459             0.0000000000
       170        57  TIP3      H1             10.6995196015      -25.4262057466      -33.4786146635  WZ1       459             0.0000000000
       171        57  TIP3      H2             10.5912896015      -23.9177257466      -33.4103546635  WZ1       459             0.0000000000
       172        58  TIP3      OH2            13.1199596015      -28.2514757466      -26.0075646635  WZ1       461             0.0000000000
       173        58  TIP3      H1             13.2595896015      -28.8432257466      -26.7468646635  WZ1       461             0.0000000000
       174        58  TIP3      H2             13.2872396015      -27.3788857466      -26.3636846635  WZ1       461             0.0000000000
       175        59  TIP3      OH2            10.8956196015      -32.9059357466      -26.2156746635  WZ1       466             0.0000000000
       176        59  TIP3      H1             10.9755296015      -32.1424957466      -25.6438246635  WZ1       466             0.0000000000
       177        59  TIP3      H2             10.2943896015      -32.6266957466      -26.9061646635  WZ1       466             0.0000000000
       178        60  TIP3      OH2             2.6436396015      -30.4495757466      -33.4008746635  WZ1       467             0.0000000000
       179        60  TIP3      H1              2.3131596015      -30.8202357466      -34.2191746635  WZ1       467             0.0000000000
       180        60  TIP3      H2              3.2320496015      -31.1201757466      -33.0540446635  WZ1       467             0.0000000000
       181        61  TIP3      OH2             4.0103896015      -27.0215157466      -30.7196546635  WZ1       468             0.0000000000
       182        61  TIP3      H1              3.9155196015      -27.6002057466      -31.4761946635  WZ1       468             0.0000000000
       183        61  TIP3      H2              4.7397496015      -27.3929457466      -30.2233746635  WZ1       468             0.0000000000
       184        62  TIP3      OH2             3.0101896015      -31.6810157466      -29.7673746635  WZ1       469             0.0000000000
       185        62  TIP3      H1              3.5754396015      -31.5595957466      -30.5302546635  WZ1       469             0.0000000000
       186        62  TIP3      H2              3.3290796015      -31.0435157466      -29.1285246635  WZ1       469             0.0000000000
       187        63  TIP3      OH2             9.3194096015      -26.1778257466      -29.0333246635  WZ1       470             0.0000000000
       188        63  TIP3      H1              9.0790696015      -25.5155157466      -28.3854046635  WZ1       470             0.0000000000
       189        63  TIP3      H2              9.1212296015      -27.0123057466      -28.6083646635  WZ1       470             0.0000000000
       190        64  TIP3      OH2             3.8902596015      -27.2817457466      -25.0501846635  WZ1       471             0.0000000000
       191        64  TIP3      H1              3.5790096015      -26.4994257466      -24.5948646635  WZ1       471             0.0000000000
       192        64  TIP3      H2              3.2402796015      -27.4348357466      -25.7359846635  WZ1       471             0.0000000000
       193        65  TIP3      OH2             0.8102496015      -31.0836357466      -25.8216146635  WZ1       473             0.0000000000
       194        65  TIP3      H1              0.8805696015      -30.4329557466      -25.1231146635  WZ1       473             0.0000000000
       195        65  TIP3      H2             -0.0805303985      -30.9808857466      -26.1565246635  WZ1       473             0.0000000000
       196        66  TIP3      OH2             7.5957096015      -25.1810557466      -34.1629446635  WZ1       474             0.0000000000
       197        66  TIP3      H1              8.0694696015      -24.8854257466      -33.3855246635  WZ1       474             0.0000000000
       198        66  TIP3      H2              7.0326396015      -24.4428957466      -34.3959846635  WZ1       474             0.0000000000
       199        67  TIP3      OH2             2.1298496015      -25.2102457466      -24.2868046635  WZ1       475             0.0000000000
       200        67  TIP3      H1              2.1373796015      -25.3462757466      -25.2342546635  WZ1       475             0.0000000000
       201        67  TIP3      H2              1.2138896015      -25.3274357466      -24.0348046635  WZ1       475             0.0000000000
       202        68  TIP3      OH2            -2.2730803985      -29.0172257466      -26.9966146635  WZ1       479             0.0000000000
       203        68  TIP3      H1             -2.7742403985      -29.0452857466      -27.8116446635  WZ1       479             0.0000000000
       204        68  TIP3      H2             -2.2677103985      -29.9229057466      -26.6868846635  WZ1       479             0.0000000000
       205        69  TIP3      OH2            -2.5228103985      -26.2368457466      -30.1125946635  WZ1       480             0.0000000000
       206        69  TIP3      H1             -1.5767503985      -26.3811457466      -30.1316446635  WZ1       480             0.0000000000
       207        69  TIP3      H2             -2.6351803985      -25.4525657466      -29.5754746635  WZ1       480             0.0000000000
       208        70  TIP3      OH2            15.6750396015      -25.5708757466      -24.4302246635  WZ1       481             0.0000000000
       209        70  TIP3      H1             15.6257196015      -26.5260657466      -24.4674646635  WZ1       481             0.0000000000
       210        70  TIP3      H2             14.8482696015      -25.3033457466      -24.0288446635  WZ1       481             0.0000000000
       211        71  TIP3      OH2             6.6534396015      -25.9969557466      -25.5540846635  WZ1       482             0.0000000000
       212        71  TIP3      H1              6.7408996015      -25.1704957466      -25.0791746635  WZ1       482             0.0000000000
       213        71  TIP3      H2              5.7899496015      -26.3265757466      -25.3051546635  WZ1       482             0.0000000000
       214        72  TIP3      OH2             7.0680196015      -22.2245857466      -35.7480246635  WZ1       483             0.0000000000
       215        72  TIP3      H1              6.9926196015      -22.3458657466      -36.6945046635  WZ1       483             0.0000000000
       216        72  TIP3      H2              7.1008896015      -21.2753157466      -35.6295646635  WZ1       483             0.0000000000
       217        73  TIP3      OH2             0.7213996015      -23.4358857466      -33.9671246635  WZ1       484             0.0000000000
       218        73  TIP3      H1              0.8734396015      -23.7838457466      -33.0884746635  WZ1       484             0.0000000000
       219        73  TIP3      H2             -0.1295603985      -23.7921557466      -34.2224046635  WZ1       484             0.0000000000
       220        74  TIP3      OH2            12.8270196015      -34.0776257466      -23.9500046635  WZ1       487             0.0000000000
       221        74  TIP3      H1             12.4196996015      -33.5970657466      -24.6706746635  WZ1       487             0.0000000000
       222        74  TIP3      H2             12.8675896015      -34.9830257466      -24.2579246635  WZ1       487             0.0000000000
       223        75  TIP3      OH2            -0.0240303985      -27.6936857466      -25.9533346635  WZ1       488             0.0000000000
       224        75  TIP3      H1              0.1920996015      -28.0551257466      -25.0937546635  WZ1       488             0.0000000000
       225        75  TIP3      H2             -0.8795603985      -28.0683057466      -26.1629846635  WZ1       488             0.0000000000
       226        76  TIP3      OH2            10.5840396015      -35.7460757466      -25.7297646635  WZ1       491             0.0000000000
       227        76  TIP3      H1             10.0699896015      -35.8718557466      -24.9321646635  WZ1       491             0.0000000000
       228        76  TIP3      H2             10.4285096015      -34.8337657466      -25.9741446635  WZ1       491             0.0000000000
       229        77  TIP3      OH2             2.6857796015      -34.2581857466      -28.8628946635  WZ1       494             0.0000000000
       230        77  TIP3      H1              2.0439896015      -34.2984557466      -28.1538846635  WZ1       494             0.0000000000
       231        77  TIP3      H2              2.7229796015      -33.3317157466      -29.1005946635  WZ1       494             0.0000000000
       232        78  TIP3      OH2             7.3203996015      -33.4455057466      -23.6457446635  WZ1       497             0.0000000000
       233        78  TIP3      H1              6.7577796015      -34.1503457466      -23.3249646635  WZ1       497             0.0000000000
       234        78  TIP3      H2              8.1467396015      -33.5663157466      -23.1779846635  WZ1       497             0.0000000000
       235        79  TIP3      OH2             0.4358296015      -33.9378357466      -26.9956946635  WZ1       499             0.0000000000
       236        79  TIP3      H1              0.3977696015      -33.5376757466      -26.1269846635  WZ1       499             0.0000000000
       237        79  TIP3      H2             -0.0550603985      -34.7545957466      -26.9054046635  WZ1       499             0.0000000000
       238        80  TIP3      OH2             8.4869296015      -32.5369757466      -27.6486046635  WZ1       503             0.0000000000
       239        80  TIP3      H1              8.8104096015      -33.1680057466      -28.2915546635  WZ1       503             0.0000000000
       240        80  TIP3      H2              8.0468596015      -33.0717557466      -26.9878646635  WZ1       503             0.0000000000
       241        81  TIP3      OH2            12.9569196015      -21.7032557466      -23.3235446635  WZ1       509             0.0000000000
       242        81  TIP3      H1             13.1567896015      -21.2790657466      -24.1580146635  WZ1       509             0.0000000000
       243        81  TIP3      H2             13.6122896015      -21.3594357466      -22.7165046635  WZ1       509             0.0000000000
       244        82  TIP3      OH2             0.5548996015      -29.2291257466      -23.7154946635  WZ1       510             0.0000000000
       245        82  TIP3      H1              1.2871396015      -28.9745357466      -23.1540446635  WZ1       510             0.0000000000
       246        82  TIP3      H2             -0.2252303985      -29.0245857466      -23.1999546635  WZ1       510             0.0000000000
       247        83  TIP3      OH2             5.2107796015      -35.4335157466      -28.5634846635  WZ1       513             0.0000000000
       248        83  TIP3      H1              4.3753096015      -34.9795657466      -28.4532446635  WZ1       513             0.0000000000
       249        83  TIP3      H2              5.7348396015      -35.1576657466      -27.8114946635  WZ1       513             0.0000000000
       250        84  TIP3      OH2            12.9049296015      -30.0879257466      -28.0920846635  WZ1       515             0.0000000000
       251        84  TIP3      H1             13.5468096015      -29.6312957466      -28.6358646635  WZ1       515             0.0000000000
       252        84  TIP3      H2             12.0746196015      -29.9746857466      -28.5546746635  WZ1       515             0.0000000000
       253        85  TIP3      OH2             7.2742496015      -29.0364157466      -25.6419346635  WZ1       517             0.0000000000
       254        85  TIP3      H1              6.9288596015      -29.4181757466      -24.8349746635  WZ1       517             0.0000000000
       255        85  TIP3      H2              7.0742596015      -28.1030557466      -25.5706446635  WZ1       517             0.0000000000
       256        86  TIP3      OH2             0.8798696015      -29.9257457466      -31.1090546635  WZ1       519             0.0000000000
       257        86  TIP3      H1              1.6245896015      -29.9281757466      -31.7104046635  WZ1       519             0.0000000000
       258        86  TIP3      H2              0.9575296015      -30.7493657466      -30.6275446635  WZ1       519             0.0000000000
       259        87  TIP3      OH2            -2.1121603985      -31.4650557466      -25.7942046635  WZ1       521             0.0000000000
       260        87  TIP3      H1             -1.8893003985      -31.8830957466      -24.9624546635  WZ1       521             0.0000000000
       261        87  TIP3      H2             -2.7141503985      -32.0775557466      -26.2169246635  WZ1       521             0.0000000000
       262        88  TIP3      OH2             4.9043296015      -31.9480657466      -23.5812346635  WZ1       522             0.0000000000
       263        88  TIP3      H1              4.6084096015      -32.1137657466      -24.4763246635  WZ1       522             0.0000000000
       264        88  TIP3      H2              5.8358496015      -32.1680357466      -23.5918446635  WZ1       522             0.0000000000
       265        89  TIP3      OH2             9.5246096015      -26.5748657466      -25.6914346635  WZ1       523             0.0000000000
       266        89  TIP3      H1              8.6240396015      -26.3916057466      -25.9590446635  WZ1       523             0.0000000000
       267        89  TIP3      H2              9.5587196015      -26.3159357466      -24.7705546635  WZ1       523             0.0000000000
       268        90  TIP3      OH2            15.2191396015      -28.5299057466      -24.4870246635  WZ1       525             0.0000000000
       269        90  TIP3      H1             14.3679896015      -28.2915257466      -24.8543846635  WZ1       525             0.0000000000
       270        90  TIP3      H2             15.8094796015      -28.5465857466      -25.2403146635  WZ1       525             0.0000000000
       271        91  TIP3      OH2             3.2548096015      -26.4079257466      -33.7049046635  WZ1       528             0.0000000000
       272        91  TIP3      H1              3.7820296015      -25.6344857466      -33.9050246635  WZ1       528             0.0000000000
       273        91  TIP3      H2              2.3746596015      -26.1830057466      -34.0065046635  WZ1       528             0.0000000000
       274        92  TIP3      OH2             4.6820396015      -28.7449357466      -34.1284746635  WZ1       530             0.0000000000
       275        92  TIP3      H1              4.4410396015      -27.8194957466      -34.0869446635  WZ1       530             0.0000000000
       276        92  TIP3      H2              3.9413996015      -29.2038057466      -33.7320846635  WZ1       530             0.0000000000
       277        93  TIP3      OH2             5.1966996015      -24.5955757466      -27.8133646635  WZ1       531             0.0000000000
       278        93  TIP3      H1              5.5591696015      -23.7410157466      -28.0469246635  WZ1       531             0.0000000000
       279        93  TIP3      H2              5.7282196015      -24.8874157466      -27.0727346635  WZ1       531             0.0000000000
       280        94  TIP3      OH2             3.3651196015      -23.7231757466      -34.5832546635  WZ1       532             0.0000000000
       281        94  TIP3      H1              2.4151696015      -23.6174357466      -34.5319246635  WZ1       532             0.0000000000
       282        94  TIP3      H2              3.7169296015      -22.9024357466      -34.2385046635  WZ1       532             0.0000000000
       283        95  TIP3      OH2             8.7407796015      -28.4965057466      -28.1128046635  WZ1       533             0.0000000000
       284        95  TIP3      H1              8.3149096015      -28.7243357466      -27.2864046635  WZ1       533             0.0000000000
       285        95  TIP3      H2              9.3213596015      -29.2353257466      -28.2952746635  WZ1       533             0.0000000000
       286        96  TIP3      OH2            11.3991996015      -23.9445557466      -25.6433246635  WZ1       535             0.0000000000
       287        96  TIP3      H1             10.7975196015      -24.5002657466      -26.1386946635  WZ1       535             0.0000000000
       288        96  TIP3      H2             11.6805696015      -23.2775757466      -26.2695846635  WZ1       535             0.0000000000
       289        97  TIP3      OH2            -0.4782103985      -36.7117857466      -26.2360646635  WZ1       537             0.0000000000
       290        97  TIP3      H1             -1.3709803985      -36.3732457466      -26.3036646635  WZ1       537             0.0000000000
       291        97  TIP3      H2             -0.5769303985      -37.5671757466      -25.8179846635  WZ1       537             0.0000000000
       292        98  TIP3      OH2            -0.8270103985      -24.9073457466      -27.8011246635  WZ1       539             0.0000000000
       293        98  TIP3      H1             -0.6099803985      -25.8391057466      -27.8321546635  WZ1       539             0.0000000000
       294        98  TIP3      H2             -0.5806603985      -24.6328457466      -26.9178446635  WZ1       539             0.0000000000
       295        99  TIP3      OH2             6.7762496015      -34.6044357466      -26.2294746635  WZ1       547             0.0000000000
       296        99  TIP3      H1              6.8952796015      -34.0308957466      -25.4724346635  WZ1       547             0.0000000000
       297        99  TIP3      H2              7.4317096015      -35.2924957466      -26.1146946635  WZ1       547             0.0000000000
       298       100  TIP3      OH2             4.0475396015      -24.1443857466      -37.4045346635  WZ1       549             0.0000000000
       299       100  TIP3      H1              4.2084096015      -23.3446357466      -37.9052746635  WZ1       549             0.0000000000
       300       100  TIP3      H2              3.8503196015      -23.8377857466      -36.5194746635  WZ1       549             0.0000000000
       301       101  TIP3      OH2            12.6693896015      -23.6910557466      -29.6764246635  WZ1       555             0.0000000000
       302       101  TIP3      H1             12.5138196015      -23.0126157466      -30.3334946635  WZ1       555             0.0000000000
       303       101  TIP3      H2             13.6020296015      -23.6191257466      -29.4733646635  WZ1       555             0.0000000000
       304       102  TIP3      OH2            -1.6166703985      -23.0202057466      -23.4489046635  WZ1       558             0.0000000000
       305       102  TIP3      H1             -1.0764503985      -23.2368057466      -22.6889846635  WZ1       558             0.0000000000
       306       102  TIP3      H2             -2.0978703985      -23.8256057466      -23.6386546635  WZ1       558             0.0000000000
       307       103  TIP3      OH2             2.9806696015      -24.1007657466      -21.8284846635  WZ1       559             0.0000000000
       308       103  TIP3      H1              3.7483896015      -24.5596857466      -21.4875646635  WZ1       559             0.0000000000
       309       103  TIP3      H2              2.9592896015      -24.3267857466      -22.7583646635  WZ1       559             0.0000000000
       310       104  TIP3      OH2             9.5575396015      -25.7206557466      -23.0993346635  WZ1       561             0.0000000000
       311       104  TIP3      H1              9.2064896015      -26.5773557466      -22.8562946635  WZ1       561             0.0000000000
       312       104  TIP3      H2             10.2838596015      -25.5779857466      -22.4924346635  WZ1       561             0.0000000000
       313       105  TIP3      OH2            -1.7097203985      -29.2097957466      -22.4944746635  WZ1       563             0.0000000000
       314       105  TIP3      H1             -1.5656703985      -30.1117257466      -22.7808046635  WZ1       563             0.0000000000
       315       105  TIP3      H2             -2.4819803985      -28.9235857466      -22.9822446635  WZ1       563             0.0000000000
       316       106  TIP3      OH2             4.9458896015      -29.2399857466      -23.0618346635  WZ1       565             0.0000000000
       317       106  TIP3      H1              4.6172696015      -28.9691757466      -23.9190946635  WZ1       565             0.0000000000
       318       106  TIP3      H2              5.0977096015      -30.1810057466      -23.1493346635  WZ1       565             0.0000000000
       319       107  TIP3      OH2            10.6804096015      -29.3242557466      -25.6786046635  WZ1       567             0.0000000000
       320       107  TIP3      H1             11.4258896015      -28.7358857466      -25.7982046635  WZ1       567             0.0000000000
       321       107  TIP3      H2              9.9230896015      -28.7422857466      -25.6152946635  WZ1       567             0.0000000000
       322       108  TIP3      OH2            -0.8770703985      -32.0094657466      -23.0745446635  WZ1       568             0.0000000000
       323       108  TIP3      H1             -0.4689503985      -32.8668057466      -23.1954846635  WZ1       568             0.0000000000
       324       108  TIP3      H2             -1.1373103985      -31.9953357466      -22.1535146635  WZ1       568             0.0000000000
       325       109  TIP3      OH2             3.0699596015      -33.0008957466      -25.7002546635  WZ1       570             0.0000000000
       326       109  TIP3      H1              2.4515696015      -32.3262357466      -25.4197846635  WZ1       570             0.0000000000
       327       109  TIP3      H2              3.4140796015      -32.6795057466      -26.5336346635  WZ1       570             0.0000000000
       328       110  TIP3      OH2             8.0897796015      -30.5293657466      -22.4227746635  WZ1       572             0.0000000000
       329       110  TIP3      H1              9.0428996015      -30.4454557466      -22.4501746635  WZ1       572             0.0000000000
       330       110  TIP3      H2              7.9292396015      -31.2411857466      -21.8032846635  WZ1       572             0.0000000000
       331       111  TIP3      OH2             3.4093296015      -35.6458157466      -24.6179446635  WZ1       574             0.0000000000
       332       111  TIP3      H1              3.5594196015      -36.3746857466      -25.2199746635  WZ1       574             0.0000000000
       333       111  TIP3      H2              3.4115696015      -34.8686457466      -25.1767246635  WZ1       574             0.0000000000
       334       112  TIP3      OH2             5.4037396015      -31.8366157466      -26.8856846635  WZ1       576             0.0000000000
       335       112  TIP3      H1              6.1542196015      -31.9928657466      -27.4589046635  WZ1       576             0.0000000000
       336       112  TIP3      H2              5.0645696015      -30.9849557466      -27.1611346635  WZ1       576             0.0000000000
       337       113  TIP3      OH2             9.8193596015      -34.0214357466      -21.8571546635  WZ1       577             0.0000000000
       338       113  TIP3      H1             10.0114896015      -34.9524957466      -21.9687046635  WZ1       577             0.0000000000
       339       113  TIP3      H2             10.6769896015      -33.5964857466      -21.8676146635  WZ1       577             0.0000000000
       340       114  TIP3      OH2            11.1360796015      -31.2329157466      -23.7798846635  WZ1       578             0.0000000000
       341       114  TIP3      H1             10.8545796015      -30.5234557466      -24.3575046635  WZ1       578             0.0000000000
       342       114  TIP3      H2             12.0785096015      -31.3056157466      -23.9307646635  WZ1       578             0.0000000000
       343       115  TIP3      OH2             1.8879596015      -34.4474657466      -22.7063846635  WZ1       579             0.0000000000
       344       115  TIP3      H1              1.1208596015      -34.9799857466      -22.9166246635  WZ1       579             0.0000000000
       345       115  TIP3      H2              2.5668596015      -34.7574257466      -23.3057546635  WZ1       579             0.0000000000
       346       116  TIP3      OH2             5.8914996015      -35.4981257466      -23.1300046635  WZ1       581             0.0000000000
       347       116  TIP3      H1              5.6560396015      -35.7174557466      -22.2285146635  WZ1       581             0.0000000000
       348       116  TIP3      H2              5.1081896015      -35.7050057466      -23.6397546635  WZ1       581             0.0000000000
       349       117  TIP3      OH2             8.6071596015      -36.3707757466      -24.0546546635  WZ1       582             0.0000000000
       350       117  TIP3      H1              7.6596996015      -36.3388057466      -23.9223246635  WZ1       582             0.0000000000
       351       117  TIP3      H2              8.9198296015      -36.9960657466      -23.4008346635  WZ1       582             0.0000000000
       352       118  TIP3      OH2             0.0682396015      -36.5270857466      -23.0019146635  WZ1       584             0.0000000000
       353       118  TIP3      H1              0.2799796015      -37.2334757466      -23.6121646635  WZ1       584             0.0000000000
       354       118  TIP3      H2             -0.0430103985      -36.9644857466      -22.1577946635  WZ1       584             0.0000000000
       355       119  TIP3      OH2             4.7492396015      -21.9600557466      -38.7925346635  WZ1       587             0.0000000000
       356       119  TIP3      H1              5.6823096015      -21.8021857466      -38.6486946635  WZ1       587             0.0000000000
       357       119  TIP3      H2              4.4851196015      -21.2847557466      -39.4173846635  WZ1       587             0.0000000000
       358       120  TIP3      OH2            -3.0332103985      -21.9308257466      -34.2323346635  WZ1       589             0.0000000000
       359       120  TIP3      H1             -3.6805003985      -22.3926557466      -34.7652146635  WZ1       589             0.0000000000
       360       120  TIP3      H2             -2.6787503985      -22.6024957466      -33.6497146635  WZ1       589             0.0000000000
       361       121  TIP3      OH2            -2.1632903985      -23.8501257466      -32.4277146635  WZ1       590             0.0000000000
       362       121  TIP3      H1             -2.4976103985      -24.7303957466      -32.2556946635  WZ1       590             0.0000000000
       363       121  TIP3      H2             -1.9410503985      -23.5046257466      -31.5631546635  WZ1       590             0.0000000000
       364       122  TIP3      OH2            15.3851896015      -23.0404857466      -29.4472346635  WZ1       591             0.0000000000
       365       122  TIP3      H1             15.3638596015      -22.8556457466      -28.5082946635  WZ1       591             0.0000000000
       366       122  TIP3      H2             16.0758096015      -22.4720857466      -29.7880946635  WZ1       591             0.0000000000
       367       123  TIP3      OH2            14.9484796015      -23.4733757466      -26.5253246635  WZ1       592             0.0000000000
       368       123  TIP3      H1             14.4613496015      -24.2089657466      -26.8965846635  WZ1       592             0.0000000000
       369       123  TIP3      H2             15.4977496015      -23.8669857466      -25.8473846635  WZ1       592             0.0000000000
       370       124  TIP3      OH2            13.3992096015      -27.6835657466      -21.8872946635  WZ1       593             0.0000000000
       371       124  TIP3      H1             12.5333196015      -27.7885957466      -21.4930646635  WZ1       593             0.0000000000
       372       124  TIP3      H2             13.7757996015      -26.9252357466      -21.4408246635  WZ1       593             0.0000000000
       373       125  TIP3      OH2            13.3400896015      -25.7109557466      -27.2948746635  WZ1       597             0.0000000000
       374       125  TIP3      H1             12.6926196015      -25.3858057466      -26.6693546635  WZ1       597             0.0000000000
       375       125  TIP3      H2             12.8224896015      -26.1511857466      -27.9690446635  WZ1       597             0.0000000000
       376       126  TIP3      OH2            -2.0833403985      -30.7745857466      -29.9762246635  WZ1       601             0.0000000000
       377       126  TIP3      H1             -1.8990503985      -30.8564157466      -30.9119346635  WZ1       601             0.0000000000
       378       126  TIP3      H2             -1.2340503985      -30.8988857466      -29.5525846635  WZ1       601             0.0000000000
       379       127  TIP3      OH2            13.7377096015      -30.8824757466      -24.3477746635  WZ1       602             0.0000000000
       380       127  TIP3      H1             14.3204396015      -31.6172457466      -24.1560546635  WZ1       602             0.0000000000
       381       127  TIP3      H2             14.3016396015      -30.1104457466      -24.3011946635  WZ1       602             0.0000000000
       382       128  TIP3      OH2            15.2344196015      -32.9798957466      -23.6632346635  WZ1       603             0.0000000000
       383       128  TIP3      H1             14.3710896015      -33.3586857466      -23.8287646635  WZ1       603             0.0000000000
       384       128  TIP3      H2             15.8387896015      -33.7184157466      -23.7376546635  WZ1       603             0.0000000000
       385       129  TIP3      OH2            -2.4858603985      -35.5040857466      -23.8353446635  WZ1       608             0.0000000000
       386       129  TIP3      H1             -1.5663703985      -35.6262557466      -23.5990346635  WZ1       608             0.0000000000
       387       129  TIP3      H2             -2.9354103985      -36.2541157466      -23.4459946635  WZ1       608             0.0000000000
       388       130  TIP3      OH2            12.1237896015      -22.9505457466      -33.8750546635  WZ1       616             0.0000000000
       389       130  TIP3      H1             12.7760796015      -23.2983357466      -34.4831446635  WZ1       616             0.0000000000
       390       130  TIP3      H2             12.6341696015      -22.4622257466      -33.2290846635  WZ1       616             0.0000000000
       391       131  TIP3      OH2            -0.4914603985      -26.0214057466      -23.3319646635  WZ1       618             0.0000000000
       392       131  TIP3      H1             -1.3122103985      -25.8467557466      -23.7924946635  WZ1       618             0.0000000000
       393       131  TIP3      H2             -0.7436803985      -26.0949357466      -22.4115246635  WZ1       618             0.0000000000
       394       132  TIP3      OH2             2.4628296015      -25.0472857466      -27.0735646635  WZ1       619             0.0000000000
       395       132  TIP3      H1              2.0379396015      -24.2374357466      -27.3561046635  WZ1       619             0.0000000000
       396       132  TIP3      H2              3.3671096015      -24.9618757466      -27.3755846635  WZ1       619             0.0000000000
       397       133  TIP3      OH2             6.7739696015      -23.6482857466      -24.1141946635  WZ1       620             0.0000000000
       398       133  TIP3      H1              6.9587196015      -23.9816757466      -23.2361646635  WZ1       620             0.0000000000
       399       133  TIP3      H2              7.6204196015      -23.3384257466      -24.4362746635  WZ1       620             0.0000000000
       400       134  TIP3      OH2             9.1190096015      -22.3623957466      -24.8700546635  WZ1       621             0.0000000000
       401       134  TIP3      H1              9.7958996015      -22.9951657466      -25.1101346635  WZ1       621             0.0000000000
       402       134  TIP3      H2              9.4408896015      -21.9613457466      -24.0627246635  WZ1       621             0.0000000000
       403       135  TIP3      OH2            -0.1355003985      -21.7908957466      -27.0260346635  WZ1       623             0.0000000000
       404       135  TIP3      H1             -0.8558603985      -21.3507957466      -27.4772646635  WZ1       623             0.0000000000
       405       135  TIP3      H2             -0.5011003985      -22.0414257466      -26.1776346635  WZ1       623             0.0000000000
       406       136  TIP3      OH2             2.3317596015      -22.1905057466      -27.9963146635  WZ1       624             0.0000000000
       407       136  TIP3      H1              1.4669796015      -22.1186557466      -27.5923046635  WZ1       624             0.0000000000
       408       136  TIP3      H2              2.2766596015      -21.6437757466      -28.7800646635  WZ1       624             0.0000000000
       409       137  TIP3      OH2             7.0423196015      -22.3026157466      -28.8207146635  WZ1       625             0.0000000000
       410       137  TIP3      H1              6.5857196015      -21.7736457466      -29.4748746635  WZ1       625             0.0000000000
       411       137  TIP3      H2              7.2051196015      -21.6994757466      -28.0954846635  WZ1       625             0.0000000000
       412       138  TIP3      OH2             9.3699496015      -23.4246557466      -27.8756846635  WZ1       626             0.0000000000
       413       138  TIP3      H1              8.4653196015      -23.2596357466      -28.1414746635  WZ1       626             0.0000000000
       414       138  TIP3      H2              9.7988096015      -22.5714357466      -27.9413446635  WZ1       626             0.0000000000
       415       139  TIP3      OH2            11.9741396015      -21.8547457466      -27.5809046635  WZ1       627             0.0000000000
       416       139  TIP3      H1             11.7923396015      -20.9388557466      -27.7914146635  WZ1       627             0.0000000000
       417       139  TIP3      H2             12.1509196015      -22.2650357466      -28.4274446635  WZ1       627             0.0000000000
       418       140  TIP3      OH2            -0.7206903985      -23.1676457466      -30.1158546635  WZ1       628             0.0000000000
       419       140  TIP3      H1             -0.7390903985      -23.5931357466      -29.2586246635  WZ1       628             0.0000000000
       420       140  TIP3      H2              0.0840996015      -23.4861457466      -30.5246346635  WZ1       628             0.0000000000
       421       141  TIP3      OH2             1.4206196015      -24.4577757466      -31.4608646635  WZ1       629             0.0000000000
       422       141  TIP3      H1              1.2016896015      -25.3740357466      -31.2912646635  WZ1       629             0.0000000000
       423       141  TIP3      H2              2.2448396015      -24.3177357466      -30.9947246635  WZ1       629             0.0000000000
       424       142  TIP3      OH2             3.9578696015      -23.9878457466      -30.6120646635  WZ1       630             0.0000000000
       425       142  TIP3      H1              4.1704396015      -24.8759457466      -30.8989746635  WZ1       630             0.0000000000
       426       142  TIP3      H2              4.0223796015      -24.0220757466      -29.6576646635  WZ1       630             0.0000000000
       427       143  TIP3      OH2            13.3212096015      -24.4199657466      -23.7177146635  WZ1       648             0.0000000000
       428       143  TIP3      H1             12.5393996015      -24.6061657466      -24.2376546635  WZ1       648             0.0000000000
       429       143  TIP3      H2             13.2491996015      -23.4905357466      -23.5004646635  WZ1       648             0.0000000000
       430       144  TIP3      OH2            22.7462596015      -27.2817457466      -25.0501846635  WZ1       687             0.0000000000
       431       144  TIP3      H1             22.4350096015      -26.4994257466      -24.5948646635  WZ1       687             0.0000000000
       432       144  TIP3      H2             22.0962796015      -27.4348357466      -25.7359846635  WZ1       687             0.0000000000
       433       145  TIP3      OH2            20.9858496015      -25.2102457466      -24.2868046635  WZ1       691             0.0000000000
       434       145  TIP3      H1             20.9933796015      -25.3462757466      -25.2342546635  WZ1       691             0.0000000000
       435       145  TIP3      H2             20.0698896015      -25.3274357466      -24.0348046635  WZ1       691             0.0000000000
       436       146  TIP3      OH2            18.8319696015      -27.6936857466      -25.9533346635  WZ1       704             0.0000000000
       437       146  TIP3      H1             19.0480996015      -28.0551257466      -25.0937546635  WZ1       704             0.0000000000
       438       146  TIP3      H2             17.9764396015      -28.0683057466      -26.1629846635  WZ1       704             0.0000000000
       439       147  TIP3      OH2            19.4108996015      -29.2291257466      -23.7154946635  WZ1       726             0.0000000000
       440       147  TIP3      H1             20.1431396015      -28.9745357466      -23.1540446635  WZ1       726             0.0000000000
       441       147  TIP3      H2             18.6307696015      -29.0245857466      -23.1999546635  WZ1       726             0.0000000000
       442       148  TIP3      OH2            18.0289896015      -24.9073457466      -27.8011246635  WZ1       755             0.0000000000
       443       148  TIP3      H1             18.2460196015      -25.8391057466      -27.8321546635  WZ1       755             0.0000000000
       444       148  TIP3      H2             18.2753396015      -24.6328457466      -26.9178446635  WZ1       755             0.0000000000
       445       149  TIP3      OH2            17.2393296015      -23.0202057466      -23.4489046635  WZ1       774             0.0000000000
       446       149  TIP3      H1             17.7795496015      -23.2368057466      -22.6889846635  WZ1       774             0.0000000000
       447       149  TIP3      H2             16.7581296015      -23.8256057466      -23.6386546635  WZ1       774             0.0000000000
       448       150  TIP3      OH2            21.8366696015      -24.1007657466      -21.8284846635  WZ1       775             0.0000000000
       449       150  TIP3      H1             22.6043896015      -24.5596857466      -21.4875646635  WZ1       775             0.0000000000
       450       150  TIP3      H2             21.8152896015      -24.3267857466      -22.7583646635  WZ1       775             0.0000000000
       451       151  TIP3      OH2            17.1462796015      -29.2097957466      -22.4944746635  WZ1       779             0.0000000000
       452       151  TIP3      H1             17.2903296015      -30.1117257466      -22.7808046635  WZ1       779             0.0000000000
       453       151  TIP3      H2             16.3740196015      -28.9235857466      -22.9822446635  WZ1       779             0.0000000000
       454       152  TIP3      OH2            17.9789296015      -32.0094657466      -23.0745446635  WZ1       784             0.0000000000
       455       152  TIP3      H1             18.3870496015      -32.8668057466      -23.1954846635  WZ1       784             0.0000000000
       456       152  TIP3      H2             17.7186896015      -31.9953357466      -22.1535146635  WZ1       784             0.0000000000
       457       153  TIP3      OH2            18.3645396015      -26.0214057466      -23.3319646635  WZ1       834             0.0000000000
       458       153  TIP3      H1             17.5437896015      -25.8467557466      -23.7924946635  WZ1       834             0.0000000000
       459       153  TIP3      H2             18.1123196015      -26.0949357466      -22.4115246635  WZ1       834             0.0000000000
       460       154  TIP3      OH2            21.3188296015      -25.0472857466      -27.0735646635  WZ1       835             0.0000000000
       461       154  TIP3      H1             20.8939396015      -24.2374357466      -27.3561046635  WZ1       835             0.0000000000
       462       154  TIP3      H2             22.2231096015      -24.9618757466      -27.3755846635  WZ1       835             0.0000000000
       463       155  TIP3      OH2            25.6299696015      -23.6482857466      -24.1141946635  WZ1       836             0.0000000000
       464       155  TIP3      H1             25.8147196015      -23.9816757466      -23.2361646635  WZ1       836             0.0000000000
       465       155  TIP3      H2             26.4764196015      -23.3384257466      -24.4362746635  WZ1       836             0.0000000000
       466       156  TIP3      OH2            27.9750096015      -22.3623957466      -24.8700546635  WZ1       837             0.0000000000
       467       156  TIP3      H1             28.6518996015      -22.9951657466      -25.1101346635  WZ1       837             0.0000000000
       468       156  TIP3      H2             28.2968896015      -21.9613457466      -24.0627246635  WZ1       837             0.0000000000
       469       157  TIP3      OH2            18.7204996015      -21.7908957466      -27.0260346635  WZ1       839             0.0000000000
       470       157  TIP3      H1             18.0001396015      -21.3507957466      -27.4772646635  WZ1       839             0.0000000000
       471       157  TIP3      H2             18.3548996015      -22.0414257466      -26.1776346635  WZ1       839             0.0000000000
       472       158  TIP3      OH2            21.1877596015      -22.1905057466      -27.9963146635  WZ1       840             0.0000000000
       473       158  TIP3      H1             20.3229796015      -22.1186557466      -27.5923046635  WZ1       840             0.0000000000
       474       158  TIP3      H2             21.1326596015      -21.6437757466      -28.7800646635  WZ1       840             0.0000000000
       475       159  TIP3      OH2            18.1353096015      -23.1676457466      -30.1158546635  WZ1       844             0.0000000000
       476       159  TIP3      H1             18.1169096015      -23.5931357466      -29.2586246635  WZ1       844             0.0000000000
       477       159  TIP3      H2             18.9400996015      -23.4861457466      -30.5246346635  WZ1       844             0.0000000000
       478       160  TIP3      OH2           -24.5920403985       -9.3954757466      -26.0075646635  WZ1       960             0.0000000000
       479       160  TIP3      H1            -24.4524103985       -9.9872257466      -26.7468646635  WZ1       960             0.0000000000
       480       160  TIP3      H2            -24.4247603985       -8.5228857466      -26.3636846635  WZ1       960             0.0000000000
       481       161  TIP3      OH2           -22.0369603985       -6.7148757466      -24.4302246635  WZ1       980             0.0000000000
       482       161  TIP3      H1            -22.0862803985       -7.6700657466      -24.4674646635  WZ1       980             0.0000000000
       483       161  TIP3      H2            -22.8637303985       -6.4473457466      -24.0288446635  WZ1       980             0.0000000000
       484       162  TIP3      OH2           -24.8849803985      -15.2216257466      -23.9500046635  WZ1       986             0.0000000000
       485       162  TIP3      H1            -25.2923003985      -14.7410657466      -24.6706746635  WZ1       986             0.0000000000
       486       162  TIP3      H2            -24.8444103985      -16.1270257466      -24.2579246635  WZ1       986             0.0000000000
       487       163  TIP3      OH2           -24.7550803985       -2.8472557466      -23.3235446635  WZ1       1008            0.0000000000
       488       163  TIP3      H1            -24.5552103985       -2.4230657466      -24.1580146635  WZ1       1008            0.0000000000
       489       163  TIP3      H2            -24.0997103985       -2.5034357466      -22.7165046635  WZ1       1008            0.0000000000
       490       164  TIP3      OH2           -28.1873903985       -7.7188657466      -25.6914346635  WZ1       1022            0.0000000000
       491       164  TIP3      H1            -29.0879603985       -7.5356057466      -25.9590446635  WZ1       1022            0.0000000000
       492       164  TIP3      H2            -28.1532803985       -7.4599357466      -24.7705546635  WZ1       1022            0.0000000000
       493       165  TIP3      OH2           -22.4928603985       -9.6739057466      -24.4870246635  WZ1       1024            0.0000000000
       494       165  TIP3      H1            -23.3440103985       -9.4355257466      -24.8543846635  WZ1       1024            0.0000000000
       495       165  TIP3      H2            -21.9025203985       -9.6905857466      -25.2403146635  WZ1       1024            0.0000000000
       496       166  TIP3      OH2           -26.3128003985       -5.0885557466      -25.6433246635  WZ1       1034            0.0000000000
       497       166  TIP3      H1            -26.9144803985       -5.6442657466      -26.1386946635  WZ1       1034            0.0000000000
       498       166  TIP3      H2            -26.0314303985       -4.4215757466      -26.2695846635  WZ1       1034            0.0000000000
       499       167  TIP3      OH2           -34.7313303985       -5.2447657466      -21.8284846635  WZ1       1058            0.0000000000
       500       167  TIP3      H1            -33.9636103985       -5.7036857466      -21.4875646635  WZ1       1058            0.0000000000
       501       167  TIP3      H2            -34.7527103985       -5.4707857466      -22.7583646635  WZ1       1058            0.0000000000
       502       168  TIP3      OH2           -28.1544603985       -6.8646557466      -23.0993346635  WZ1       1060            0.0000000000
       503       168  TIP3      H1            -28.5055103985       -7.7213557466      -22.8562946635  WZ1       1060            0.0000000000
       504       168  TIP3      H2            -27.4281403985       -6.7219857466      -22.4924346635  WZ1       1060            0.0000000000
       505       169  TIP3      OH2           -29.6222203985      -11.6733657466      -22.4227746635  WZ1       1071            0.0000000000
       506       169  TIP3      H1            -28.6691003985      -11.5894557466      -22.4501746635  WZ1       1071            0.0000000000
       507       169  TIP3      H2            -29.7827603985      -12.3851857466      -21.8032846635  WZ1       1071            0.0000000000
       508       170  TIP3      OH2           -27.8926403985      -15.1654357466      -21.8571546635  WZ1       1076            0.0000000000
       509       170  TIP3      H1            -27.7005103985      -16.0964957466      -21.9687046635  WZ1       1076            0.0000000000
       510       170  TIP3      H2            -27.0350103985      -14.7404857466      -21.8676146635  WZ1       1076            0.0000000000
       511       171  TIP3      OH2           -26.5759203985      -12.3769157466      -23.7798846635  WZ1       1077            0.0000000000
       512       171  TIP3      H1            -26.8574203985      -11.6674557466      -24.3575046635  WZ1       1077            0.0000000000
       513       171  TIP3      H2            -25.6334903985      -12.4496157466      -23.9307646635  WZ1       1077            0.0000000000
       514       172  TIP3      OH2           -22.3268103985       -4.1844857466      -29.4472346635  WZ1       1090            0.0000000000
       515       172  TIP3      H1            -22.3481403985       -3.9996457466      -28.5082946635  WZ1       1090            0.0000000000
       516       172  TIP3      H2            -21.6361903985       -3.6160857466      -29.7880946635  WZ1       1090            0.0000000000
       517       173  TIP3      OH2           -22.7635203985       -4.6173757466      -26.5253246635  WZ1       1091            0.0000000000
       518       173  TIP3      H1            -23.2506503985       -5.3529657466      -26.8965846635  WZ1       1091            0.0000000000
       519       173  TIP3      H2            -22.2142503985       -5.0109857466      -25.8473846635  WZ1       1091            0.0000000000
       520       174  TIP3      OH2           -24.3127903985       -8.8275657466      -21.8872946635  WZ1       1092            0.0000000000
       521       174  TIP3      H1            -25.1786803985       -8.9325957466      -21.4930646635  WZ1       1092            0.0000000000
       522       174  TIP3      H2            -23.9362003985       -8.0692357466      -21.4408246635  WZ1       1092            0.0000000000
       523       175  TIP3      OH2           -24.3719103985       -6.8549557466      -27.2948746635  WZ1       1096            0.0000000000
       524       175  TIP3      H1            -25.0193803985       -6.5298057466      -26.6693546635  WZ1       1096            0.0000000000
       525       175  TIP3      H2            -24.8895103985       -7.2951857466      -27.9690446635  WZ1       1096            0.0000000000
       526       176  TIP3      OH2           -23.9742903985      -12.0264757466      -24.3477746635  WZ1       1101            0.0000000000
       527       176  TIP3      H1            -23.3915603985      -12.7612457466      -24.1560546635  WZ1       1101            0.0000000000
       528       176  TIP3      H2            -23.4103603985      -11.2544457466      -24.3011946635  WZ1       1101            0.0000000000
       529       177  TIP3      OH2           -22.4775803985      -14.1238957466      -23.6632346635  WZ1       1102            0.0000000000
       530       177  TIP3      H1            -23.3409103985      -14.5026857466      -23.8287646635  WZ1       1102            0.0000000000
       531       177  TIP3      H2            -21.8732103985      -14.8624157466      -23.7376546635  WZ1       1102            0.0000000000
       532       178  TIP3      OH2           -22.1959203985      -21.1159357466      -21.9587646635  WZ1       1108            0.0000000000
       533       178  TIP3      H1            -21.8462203985      -21.7695857466      -22.5642946635  WZ1       1108            0.0000000000
       534       178  TIP3      H2            -22.0489703985      -20.2785257466      -22.3985046635  WZ1       1108            0.0000000000
       535       179  TIP3      OH2           -22.6762003985      -19.0064757466      -23.6096346635  WZ1       1112            0.0000000000
       536       179  TIP3      H1            -23.5936303985      -18.7357657466      -23.6452846635  WZ1       1112            0.0000000000
       537       179  TIP3      H2            -22.5532603985      -19.5416357466      -24.3936646635  WZ1       1112            0.0000000000
       538       180  TIP3      OH2           -30.9380303985       -4.7922857466      -24.1141946635  WZ1       1119            0.0000000000
       539       180  TIP3      H1            -30.7532803985       -5.1256757466      -23.2361646635  WZ1       1119            0.0000000000
       540       180  TIP3      H2            -30.0915803985       -4.4824257466      -24.4362746635  WZ1       1119            0.0000000000
       541       181  TIP3      OH2           -28.5929903985       -3.5063957466      -24.8700546635  WZ1       1120            0.0000000000
       542       181  TIP3      H1            -27.9161003985       -4.1391657466      -25.1101346635  WZ1       1120            0.0000000000
       543       181  TIP3      H2            -28.2711103985       -3.1053457466      -24.0627246635  WZ1       1120            0.0000000000
       544       182  TIP3      OH2           -25.7378603985       -2.9987457466      -27.5809046635  WZ1       1126            0.0000000000
       545       182  TIP3      H1            -25.9196603985       -2.0828557466      -27.7914146635  WZ1       1126            0.0000000000
       546       182  TIP3      H2            -25.5610803985       -3.4090357466      -28.4274446635  WZ1       1126            0.0000000000
       547       183  TIP3      OH2           -24.3907903985       -5.5639657466      -23.7177146635  WZ1       1147            0.0000000000
       548       183  TIP3      H1            -25.1726003985       -5.7501657466      -24.2376546635  WZ1       1147            0.0000000000
       549       183  TIP3      H2            -24.4628003985       -4.6345357466      -23.5004646635  WZ1       1147            0.0000000000
       550       184  TIP3      OH2            -9.9847503985      -11.6775257466      -33.6869946635  WZ1       1148            0.0000000000
       551       184  TIP3      H1             -9.8956403985      -10.7337057466      -33.8192846635  WZ1       1148            0.0000000000
       552       184  TIP3      H2            -10.6229903985      -11.9528857466      -34.3450546635  WZ1       1148            0.0000000000
       553       185  TIP3      OH2           -11.0516203985      -12.4224557466      -30.2681746635  WZ1       1149            0.0000000000
       554       185  TIP3      H1            -11.0898703985      -13.0688257466      -29.5632146635  WZ1       1149            0.0000000000
       555       185  TIP3      H2            -11.3739703985      -12.8890157466      -31.0393046635  WZ1       1149            0.0000000000
       556       186  TIP3      OH2           -18.6831203985      -12.8082457466      -28.6751846635  WZ1       1150            0.0000000000
       557       186  TIP3      H1            -18.6419103985      -13.4339157466      -27.9519446635  WZ1       1150            0.0000000000
       558       186  TIP3      H2            -17.9803503985      -12.1843857466      -28.4931446635  WZ1       1150            0.0000000000
       559       187  TIP3      OH2            -7.3456003985       -9.4834157466      -31.9666646635  WZ1       1151            0.0000000000
       560       187  TIP3      H1             -7.7863303985      -10.2038157466      -31.5161046635  WZ1       1151            0.0000000000
       561       187  TIP3      H2             -7.3586303985       -8.7626957466      -31.3368946635  WZ1       1151            0.0000000000
       562       188  TIP3      OH2           -17.7598103985       -8.3583557466      -30.1402746635  WZ1       1152            0.0000000000
       563       188  TIP3      H1            -18.1292903985       -9.1603057466      -30.5098446635  WZ1       1152            0.0000000000
       564       188  TIP3      H2            -16.8187003985       -8.5268657466      -30.0939346635  WZ1       1152            0.0000000000
       565       189  TIP3      OH2           -10.2340503985       -4.3792457466      -31.7546246635  WZ1       1155            0.0000000000
       566       189  TIP3      H1             -9.6144103985       -5.0557757466      -32.0277046635  WZ1       1155            0.0000000000
       567       189  TIP3      H2            -10.4423103985       -4.5971657466      -30.8461346635  WZ1       1155            0.0000000000
       568       190  TIP3      OH2           -12.6621803985       -9.9903157466      -29.8620746635  WZ1       1156            0.0000000000
       569       190  TIP3      H1            -12.3583903985      -10.6761757466      -30.4566646635  WZ1       1156            0.0000000000
       570       190  TIP3      H2            -11.9407803985       -9.8714457466      -29.2442746635  WZ1       1156            0.0000000000
       571       191  TIP3      OH2            -3.9992003985      -18.3887857466      -29.0014546635  WZ1       1157            0.0000000000
       572       191  TIP3      H1             -3.9499803985      -17.7786657466      -28.2655446635  WZ1       1157            0.0000000000
       573       191  TIP3      H2             -3.5736903985      -17.9276957466      -29.7243446635  WZ1       1157            0.0000000000
       574       192  TIP3      OH2            -9.5214803985      -15.5960757466      -29.5345946635  WZ1       1158            0.0000000000
       575       192  TIP3      H1             -9.3788903985      -16.5423757466      -29.5144346635  WZ1       1158            0.0000000000
       576       192  TIP3      H2             -9.6275803985      -15.3890957466      -30.4631046635  WZ1       1158            0.0000000000
       577       193  TIP3      OH2            -3.6077403985      -16.9108657466      -26.7654746635  WZ1       1163            0.0000000000
       578       193  TIP3      H1             -4.2962803985      -16.2527957466      -26.8608146635  WZ1       1163            0.0000000000
       579       193  TIP3      H2             -3.5922803985      -17.1080757466      -25.8289346635  WZ1       1163            0.0000000000
       580       194  TIP3      OH2           -10.1874803985       -9.0764857466      -34.6441246635  WZ1       1165            0.0000000000
       581       194  TIP3      H1            -10.4829703985       -9.3992557466      -35.4954346635  WZ1       1165            0.0000000000
       582       194  TIP3      H2            -10.5117003985       -8.1768157466      -34.6028646635  WZ1       1165            0.0000000000
       583       195  TIP3      OH2           -14.9873203985      -10.9010257466      -27.9006646635  WZ1       1166            0.0000000000
       584       195  TIP3      H1            -15.7274103985      -10.3028757466      -27.7971446635  WZ1       1166            0.0000000000
       585       195  TIP3      H2            -14.2733703985      -10.3470657466      -28.2163046635  WZ1       1166            0.0000000000
       586       196  TIP3      OH2            -6.8805403985      -18.0729457466      -31.8806946635  WZ1       1167            0.0000000000
       587       196  TIP3      H1             -7.0957403985      -18.8386057466      -31.3480946635  WZ1       1167            0.0000000000
       588       196  TIP3      H2             -6.2248003985      -17.6004857466      -31.3678446635  WZ1       1167            0.0000000000
       589       197  TIP3      OH2           -16.5798903985       -8.9367257466      -27.1135146635  WZ1       1169            0.0000000000
       590       197  TIP3      H1            -16.5851303985       -8.0573757466      -27.4915846635  WZ1       1169            0.0000000000
       591       197  TIP3      H2            -17.4334803985       -9.0203157466      -26.6885246635  WZ1       1169            0.0000000000
       592       198  TIP3      OH2            -6.8338303985       -7.6443457466      -29.6187346635  WZ1       1171            0.0000000000
       593       198  TIP3      H1             -7.7754603985       -7.5859557466      -29.4570446635  WZ1       1171            0.0000000000
       594       198  TIP3      H2             -6.5572203985       -6.7382957466      -29.7557646635  WZ1       1171            0.0000000000
       595       199  TIP3      OH2            -6.5331303985      -19.3578157466      -28.2013446635  WZ1       1172            0.0000000000
       596       199  TIP3      H1             -7.2692103985      -18.7471057466      -28.2392146635  WZ1       1172            0.0000000000
       597       199  TIP3      H2             -5.8497303985      -18.9429157466      -28.7277046635  WZ1       1172            0.0000000000
       598       200  TIP3      OH2            -8.5817103985       -5.8629957466      -32.9935746635  WZ1       1174            0.0000000000
       599       200  TIP3      H1             -8.1564803985       -6.5702057466      -33.4786146635  WZ1       1174            0.0000000000
       600       200  TIP3      H2             -8.2647103985       -5.0617257466      -33.4103546635  WZ1       1174            0.0000000000
       601       201  TIP3      OH2            -7.4220603985       -7.9621457466      -34.4849146635  WZ1       1175            0.0000000000
       602       201  TIP3      H1             -7.6795803985       -8.6521357466      -35.0963246635  WZ1       1175            0.0000000000
       603       201  TIP3      H2             -7.3509803985       -8.4050257466      -33.6393246635  WZ1       1175            0.0000000000
       604       202  TIP3      OH2            -5.7360403985       -9.3954757466      -26.0075646635  WZ1       1176            0.0000000000
       605       202  TIP3      H1             -5.5964103985       -9.9872257466      -26.7468646635  WZ1       1176            0.0000000000
       606       202  TIP3      H2             -5.5687603985       -8.5228857466      -26.3636846635  WZ1       1176            0.0000000000
       607       203  TIP3      OH2            -3.8941103985      -13.0556757466      -27.9415246635  WZ1       1179            0.0000000000
       608       203  TIP3      H1             -4.5467003985      -12.3611157466      -27.8524346635  WZ1       1179            0.0000000000
       609       203  TIP3      H2             -3.4290803985      -12.8455857466      -28.7513646635  WZ1       1179            0.0000000000
       610       204  TIP3      OH2            -7.8577303985      -12.2241957466      -35.2833746635  WZ1       1180            0.0000000000
       611       204  TIP3      H1             -8.5896303985      -11.9958257466      -34.7103146635  WZ1       1180            0.0000000000
       612       204  TIP3      H2             -7.4105103985      -12.9379257466      -34.8286246635  WZ1       1180            0.0000000000
       613       205  TIP3      OH2            -7.9603803985      -14.0499357466      -26.2156746635  WZ1       1181            0.0000000000
       614       205  TIP3      H1             -7.8804703985      -13.2864957466      -25.6438246635  WZ1       1181            0.0000000000
       615       205  TIP3      H2             -8.5616103985      -13.7706957466      -26.9061646635  WZ1       1181            0.0000000000
       616       206  TIP3      OH2           -14.8456103985       -8.1655157466      -30.7196546635  WZ1       1183            0.0000000000
       617       206  TIP3      H1            -14.9404803985       -8.7442057466      -31.4761946635  WZ1       1183            0.0000000000
       618       206  TIP3      H2            -14.1162503985       -8.5369457466      -30.2233746635  WZ1       1183            0.0000000000
       619       207  TIP3      OH2           -15.8458103985      -12.8250157466      -29.7673746635  WZ1       1184            0.0000000000
       620       207  TIP3      H1            -15.2805603985      -12.7035957466      -30.5302546635  WZ1       1184            0.0000000000
       621       207  TIP3      H2            -15.5269203985      -12.1875157466      -29.1285246635  WZ1       1184            0.0000000000
       622       208  TIP3      OH2            -9.5365903985       -7.3218257466      -29.0333246635  WZ1       1185            0.0000000000
       623       208  TIP3      H1             -9.7769303985       -6.6595157466      -28.3854046635  WZ1       1185            0.0000000000
       624       208  TIP3      H2             -9.7347703985       -8.1563057466      -28.6083646635  WZ1       1185            0.0000000000
       625       209  TIP3      OH2           -14.9657403985       -8.4257457466      -25.0501846635  WZ1       1186            0.0000000000
       626       209  TIP3      H1            -15.2769903985       -7.6434257466      -24.5948646635  WZ1       1186            0.0000000000
       627       209  TIP3      H2            -15.6157203985       -8.5788357466      -25.7359846635  WZ1       1186            0.0000000000
       628       210  TIP3      OH2           -18.0457503985      -12.2276357466      -25.8216146635  WZ1       1188            0.0000000000
       629       210  TIP3      H1            -17.9754303985      -11.5769557466      -25.1231146635  WZ1       1188            0.0000000000
       630       210  TIP3      H2            -18.9365303985      -12.1248857466      -26.1565246635  WZ1       1188            0.0000000000
       631       211  TIP3      OH2           -11.2602903985       -6.3250557466      -34.1629446635  WZ1       1189            0.0000000000
       632       211  TIP3      H1            -10.7865303985       -6.0294257466      -33.3855246635  WZ1       1189            0.0000000000
       633       211  TIP3      H2            -11.8233603985       -5.5868957466      -34.3959846635  WZ1       1189            0.0000000000
       634       212  TIP3      OH2           -16.7261503985       -6.3542457466      -24.2868046635  WZ1       1190            0.0000000000
       635       212  TIP3      H1            -16.7186203985       -6.4902757466      -25.2342546635  WZ1       1190            0.0000000000
       636       212  TIP3      H2            -17.6421103985       -6.4714357466      -24.0348046635  WZ1       1190            0.0000000000
       637       213  TIP3      OH2            -4.0988003985       -6.9456257466      -39.4088946635  WZ1       1193            0.0000000000
       638       213  TIP3      H1             -4.0254503985       -6.0066057466      -39.2383646635  WZ1       1193            0.0000000000
       639       213  TIP3      H2             -3.1932903985       -7.2507657466      -39.4651646635  WZ1       1193            0.0000000000
       640       214  TIP3      OH2           -21.1290803985      -10.1612257466      -26.9966146635  WZ1       1194            0.0000000000
       641       214  TIP3      H1            -21.6302403985      -10.1892857466      -27.8116446635  WZ1       1194            0.0000000000
       642       214  TIP3      H2            -21.1237103985      -11.0669057466      -26.6868846635  WZ1       1194            0.0000000000
       643       215  TIP3      OH2           -21.3788103985       -7.3808457466      -30.1125946635  WZ1       1195            0.0000000000
       644       215  TIP3      H1            -20.4327503985       -7.5251457466      -30.1316446635  WZ1       1195            0.0000000000
       645       215  TIP3      H2            -21.4911803985       -6.5965657466      -29.5754746635  WZ1       1195            0.0000000000
       646       216  TIP3      OH2            -3.1809603985       -6.7148757466      -24.4302246635  WZ1       1196            0.0000000000
       647       216  TIP3      H1             -3.2302803985       -7.6700657466      -24.4674646635  WZ1       1196            0.0000000000
       648       216  TIP3      H2             -4.0077303985       -6.4473457466      -24.0288446635  WZ1       1196            0.0000000000
       649       217  TIP3      OH2           -12.2025603985       -7.1409557466      -25.5540846635  WZ1       1197            0.0000000000
       650       217  TIP3      H1            -12.1151003985       -6.3144957466      -25.0791746635  WZ1       1197            0.0000000000
       651       217  TIP3      H2            -13.0660503985       -7.4705757466      -25.3051546635  WZ1       1197            0.0000000000
       652       218  TIP3      OH2           -11.7879803985       -3.3685857466      -35.7480246635  WZ1       1198            0.0000000000
       653       218  TIP3      H1            -11.8633803985       -3.4898657466      -36.6945046635  WZ1       1198            0.0000000000
       654       218  TIP3      H2            -11.7551103985       -2.4193157466      -35.6295646635  WZ1       1198            0.0000000000
       655       219  TIP3      OH2            -9.0175703985       -4.2888557466      -35.9965646635  WZ1       1201            0.0000000000
       656       219  TIP3      H1             -9.9525903985       -4.1886657466      -35.8178646635  WZ1       1201            0.0000000000
       657       219  TIP3      H2             -8.7373803985       -4.9982557466      -35.4182446635  WZ1       1201            0.0000000000
       658       220  TIP3      OH2            -6.0289803985      -15.2216257466      -23.9500046635  WZ1       1202            0.0000000000
       659       220  TIP3      H1             -6.4363003985      -14.7410657466      -24.6706746635  WZ1       1202            0.0000000000
       660       220  TIP3      H2             -5.9884103985      -16.1270257466      -24.2579246635  WZ1       1202            0.0000000000
       661       221  TIP3      OH2           -18.8800303985       -8.8376857466      -25.9533346635  WZ1       1203            0.0000000000
       662       221  TIP3      H1            -18.6639003985       -9.1991257466      -25.0937546635  WZ1       1203            0.0000000000
       663       221  TIP3      H2            -19.7355603985       -9.2123057466      -26.1629846635  WZ1       1203            0.0000000000
       664       222  TIP3      OH2           -11.5984503985      -20.6455957466      -26.5832146635  WZ1       1205            0.0000000000
       665       222  TIP3      H1            -11.1781403985      -21.0608857466      -25.8301546635  WZ1       1205            0.0000000000
       666       222  TIP3      H2            -12.5314903985      -20.8242657466      -26.4660146635  WZ1       1205            0.0000000000
       667       223  TIP3      OH2            -8.2719603985      -16.8900757466      -25.7297646635  WZ1       1206            0.0000000000
       668       223  TIP3      H1             -8.7860103985      -17.0158557466      -24.9321646635  WZ1       1206            0.0000000000
       669       223  TIP3      H2             -8.4274903985      -15.9777657466      -25.9741446635  WZ1       1206            0.0000000000
       670       224  TIP3      OH2           -16.1702203985      -15.4021857466      -28.8628946635  WZ1       1209            0.0000000000
       671       224  TIP3      H1            -16.8120103985      -15.4424557466      -28.1538846635  WZ1       1209            0.0000000000
       672       224  TIP3      H2            -16.1330203985      -14.4757157466      -29.1005946635  WZ1       1209            0.0000000000
       673       225  TIP3      OH2           -11.5356003985      -14.5895057466      -23.6457446635  WZ1       1212            0.0000000000
       674       225  TIP3      H1            -12.0982203985      -15.2943457466      -23.3249646635  WZ1       1212            0.0000000000
       675       225  TIP3      H2            -10.7092603985      -14.7103157466      -23.1779846635  WZ1       1212            0.0000000000
       676       226  TIP3      OH2            -9.6329903985      -15.3191057466      -32.3198446635  WZ1       1213            0.0000000000
       677       226  TIP3      H1             -9.8285403985      -14.7134257466      -33.0347846635  WZ1       1213            0.0000000000
       678       226  TIP3      H2             -9.4517303985      -16.1525857466      -32.7542146635  WZ1       1213            0.0000000000
       679       227  TIP3      OH2           -18.4201703985      -15.0818357466      -26.9956946635  WZ1       1214            0.0000000000
       680       227  TIP3      H1            -18.4582303985      -14.6816757466      -26.1269846635  WZ1       1214            0.0000000000
       681       227  TIP3      H2            -18.9110603985      -15.8985957466      -26.9054046635  WZ1       1214            0.0000000000
       682       228  TIP3      OH2           -10.3690703985      -13.6809757466      -27.6486046635  WZ1       1218            0.0000000000
       683       228  TIP3      H1            -10.0455903985      -14.3120057466      -28.2915546635  WZ1       1218            0.0000000000
       684       228  TIP3      H2            -10.8091403985      -14.2157557466      -26.9878646635  WZ1       1218            0.0000000000
       685       229  TIP3      OH2            -9.1865903985      -18.5187957466      -29.6003046635  WZ1       1222            0.0000000000
       686       229  TIP3      H1             -9.8634303985      -18.3874857466      -28.9363346635  WZ1       1222            0.0000000000
       687       229  TIP3      H2             -9.6721003985      -18.6738457466      -30.4105346635  WZ1       1222            0.0000000000
       688       230  TIP3      OH2            -5.8990803985       -2.8472557466      -23.3235446635  WZ1       1224            0.0000000000
       689       230  TIP3      H1             -5.6992103985       -2.4230657466      -24.1580146635  WZ1       1224            0.0000000000
       690       230  TIP3      H2             -5.2437103985       -2.5034357466      -22.7165046635  WZ1       1224            0.0000000000
       691       231  TIP3      OH2           -18.3011003985      -10.3731257466      -23.7154946635  WZ1       1225            0.0000000000
       692       231  TIP3      H1            -17.5688603985      -10.1185357466      -23.1540446635  WZ1       1225            0.0000000000
       693       231  TIP3      H2            -19.0812303985      -10.1685857466      -23.1999546635  WZ1       1225            0.0000000000
       694       232  TIP3      OH2           -12.2718103985      -14.9661257466      -30.9775246635  WZ1       1226            0.0000000000
       695       232  TIP3      H1            -11.7074703985      -15.5124657466      -31.5245646635  WZ1       1226            0.0000000000
       696       232  TIP3      H2            -12.4194703985      -15.4879357466      -30.1887646635  WZ1       1226            0.0000000000
       697       233  TIP3      OH2           -13.6452203985      -16.5775157466      -28.5634846635  WZ1       1228            0.0000000000
       698       233  TIP3      H1            -14.4806903985      -16.1235657466      -28.4532446635  WZ1       1228            0.0000000000
       699       233  TIP3      H2            -13.1211603985      -16.3016657466      -27.8114946635  WZ1       1228            0.0000000000
       700       234  TIP3      OH2            -5.9510703985      -11.2319257466      -28.0920846635  WZ1       1230            0.0000000000
       701       234  TIP3      H1             -5.3091903985      -10.7752957466      -28.6358646635  WZ1       1230            0.0000000000
       702       234  TIP3      H2             -6.7813803985      -11.1186857466      -28.5546746635  WZ1       1230            0.0000000000
       703       235  TIP3      OH2           -11.5817503985      -10.1804157466      -25.6419346635  WZ1       1232            0.0000000000
       704       235  TIP3      H1            -11.9271403985      -10.5621757466      -24.8349746635  WZ1       1232            0.0000000000
       705       235  TIP3      H2            -11.7817403985       -9.2470557466      -25.5706446635  WZ1       1232            0.0000000000
       706       236  TIP3      OH2           -20.9681603985      -12.6090557466      -25.7942046635  WZ1       1236            0.0000000000
       707       236  TIP3      H1            -20.7453003985      -13.0270957466      -24.9624546635  WZ1       1236            0.0000000000
       708       236  TIP3      H2            -21.5701503985      -13.2215557466      -26.2169246635  WZ1       1236            0.0000000000
       709       237  TIP3      OH2           -13.9516703985      -13.0920657466      -23.5812346635  WZ1       1237            0.0000000000
       710       237  TIP3      H1            -14.2475903985      -13.2577657466      -24.4763246635  WZ1       1237            0.0000000000
       711       237  TIP3      H2            -13.0201503985      -13.3120357466      -23.5918446635  WZ1       1237            0.0000000000
       712       238  TIP3      OH2            -9.3313903985       -7.7188657466      -25.6914346635  WZ1       1238            0.0000000000
       713       238  TIP3      H1            -10.2319603985       -7.5356057466      -25.9590446635  WZ1       1238            0.0000000000
       714       238  TIP3      H2             -9.2972803985       -7.4599357466      -24.7705546635  WZ1       1238            0.0000000000
       715       239  TIP3      OH2            -3.6368603985       -9.6739057466      -24.4870246635  WZ1       1240            0.0000000000
       716       239  TIP3      H1             -4.4880103985       -9.4355257466      -24.8543846635  WZ1       1240            0.0000000000
       717       239  TIP3      H2             -3.0465203985       -9.6905857466      -25.2403146635  WZ1       1240            0.0000000000
       718       240  TIP3      OH2            -5.3048903985       -6.6880357466      -36.8589646635  WZ1       1241            0.0000000000
       719       240  TIP3      H1             -5.6777803985       -7.5136557466      -36.5499046635  WZ1       1241            0.0000000000
       720       240  TIP3      H2             -5.0275403985       -6.8710957466      -37.7566246635  WZ1       1241            0.0000000000
       721       241  TIP3      OH2            -8.1445003985      -11.8800857466      -29.8377746635  WZ1       1242            0.0000000000
       722       241  TIP3      H1             -9.0728103985      -12.1118957466      -29.8648446635  WZ1       1242            0.0000000000
       723       241  TIP3      H2             -7.6933903985      -12.6571057466      -30.1678946635  WZ1       1242            0.0000000000
       724       242  TIP3      OH2           -13.6593003985       -5.7395757466      -27.8133646635  WZ1       1246            0.0000000000
       725       242  TIP3      H1            -13.2968303985       -4.8850157466      -28.0469246635  WZ1       1246            0.0000000000
       726       242  TIP3      H2            -13.1277803985       -6.0314157466      -27.0727346635  WZ1       1246            0.0000000000
       727       243  TIP3      OH2           -10.1152203985       -9.6405057466      -28.1128046635  WZ1       1248            0.0000000000
       728       243  TIP3      H1            -10.5410903985       -9.8683357466      -27.2864046635  WZ1       1248            0.0000000000
       729       243  TIP3      H2             -9.5346403985      -10.3793257466      -28.2952746635  WZ1       1248            0.0000000000
       730       244  TIP3      OH2            -7.4568003985       -5.0885557466      -25.6433246635  WZ1       1250            0.0000000000
       731       244  TIP3      H1             -8.0584803985       -5.6442657466      -26.1386946635  WZ1       1250            0.0000000000
       732       244  TIP3      H2             -7.1754303985       -4.4215757466      -26.2695846635  WZ1       1250            0.0000000000
       733       245  TIP3      OH2            -3.4088903985       -4.2322057466      -38.8378846635  WZ1       1251            0.0000000000
       734       245  TIP3      H1             -2.6651003985       -3.6461557466      -38.9777246635  WZ1       1251            0.0000000000
       735       245  TIP3      H2             -4.1030803985       -3.6636257466      -38.5046446635  WZ1       1251            0.0000000000
       736       246  TIP3      OH2           -19.3342103985      -17.8557857466      -26.2360646635  WZ1       1252            0.0000000000
       737       246  TIP3      H1            -20.2269803985      -17.5172457466      -26.3036646635  WZ1       1252            0.0000000000
       738       246  TIP3      H2            -19.4329303985      -18.7111757466      -25.8179846635  WZ1       1252            0.0000000000
       739       247  TIP3      OH2            -7.0464003985      -10.0392557466      -36.8121146635  WZ1       1253            0.0000000000
       740       247  TIP3      H1             -7.3236403985      -10.7673257466      -36.2560046635  WZ1       1253            0.0000000000
       741       247  TIP3      H2             -6.1191003985       -9.9200557466      -36.6068546635  WZ1       1253            0.0000000000
       742       248  TIP3      OH2           -19.6830103985       -6.0513457466      -27.8011246635  WZ1       1254            0.0000000000
       743       248  TIP3      H1            -19.4659803985       -6.9831057466      -27.8321546635  WZ1       1254            0.0000000000
       744       248  TIP3      H2            -19.4366603985       -5.7768457466      -26.9178446635  WZ1       1254            0.0000000000
       745       249  TIP3      OH2           -10.5998703985      -18.1147557466      -27.3462046635  WZ1       1258            0.0000000000
       746       249  TIP3      H1             -9.9010803985      -18.0408857466      -26.6962346635  WZ1       1258            0.0000000000
       747       249  TIP3      H2            -10.9807303985      -18.9792557466      -27.1919146635  WZ1       1258            0.0000000000
       748       250  TIP3      OH2           -12.0797503985      -15.7484357466      -26.2294746635  WZ1       1262            0.0000000000
       749       250  TIP3      H1            -11.9607203985      -15.1748957466      -25.4724346635  WZ1       1262            0.0000000000
       750       250  TIP3      H2            -11.4242903985      -16.4364957466      -26.1146946635  WZ1       1262            0.0000000000
       751       251  TIP3      OH2            -5.8751703985      -17.8414057466      -25.3945046635  WZ1       1266            0.0000000000
       752       251  TIP3      H1             -6.7915903985      -17.5792357466      -25.4821346635  WZ1       1266            0.0000000000
       753       251  TIP3      H2             -5.5396703985      -17.8445057466      -26.2909746635  WZ1       1266            0.0000000000
       754       252  TIP3      OH2            -7.2730703985      -14.0913057466      -31.2987746635  WZ1       1267            0.0000000000
       755       252  TIP3      H1             -8.0706303985      -14.5062857466      -31.6272746635  WZ1       1267            0.0000000000
       756       252  TIP3      H2             -6.8279603985      -14.7819357466      -30.8077246635  WZ1       1267            0.0000000000
       757       253  TIP3      OH2            -6.1866103985       -4.8350557466      -29.6764246635  WZ1       1270            0.0000000000
       758       253  TIP3      H1             -6.3421803985       -4.1566157466      -30.3334946635  WZ1       1270            0.0000000000
       759       253  TIP3      H2             -5.2539703985       -4.7631257466      -29.4733646635  WZ1       1270            0.0000000000
       760       254  TIP3      OH2           -20.4726703985       -4.1642057466      -23.4489046635  WZ1       1273            0.0000000000
       761       254  TIP3      H1            -19.9324503985       -4.3808057466      -22.6889846635  WZ1       1273            0.0000000000
       762       254  TIP3      H2            -20.9538703985       -4.9696057466      -23.6386546635  WZ1       1273            0.0000000000
       763       255  TIP3      OH2           -15.8753303985       -5.2447657466      -21.8284846635  WZ1       1274            0.0000000000
       764       255  TIP3      H1            -15.1076103985       -5.7036857466      -21.4875646635  WZ1       1274            0.0000000000
       765       255  TIP3      H2            -15.8967103985       -5.4707857466      -22.7583646635  WZ1       1274            0.0000000000
       766       256  TIP3      OH2            -9.2984603985       -6.8646557466      -23.0993346635  WZ1       1276            0.0000000000
       767       256  TIP3      H1             -9.6495103985       -7.7213557466      -22.8562946635  WZ1       1276            0.0000000000
       768       256  TIP3      H2             -8.5721403985       -6.7219857466      -22.4924346635  WZ1       1276            0.0000000000
       769       257  TIP3      OH2           -20.5657203985      -10.3537957466      -22.4944746635  WZ1       1278            0.0000000000
       770       257  TIP3      H1            -20.4216703985      -11.2557257466      -22.7808046635  WZ1       1278            0.0000000000
       771       257  TIP3      H2            -21.3379803985      -10.0675857466      -22.9822446635  WZ1       1278            0.0000000000
       772       258  TIP3      OH2           -13.9101103985      -10.3839857466      -23.0618346635  WZ1       1280            0.0000000000
       773       258  TIP3      H1            -14.2387303985      -10.1131757466      -23.9190946635  WZ1       1280            0.0000000000
       774       258  TIP3      H2            -13.7582903985      -11.3250057466      -23.1493346635  WZ1       1280            0.0000000000
       775       259  TIP3      OH2            -8.1755903985      -10.4682557466      -25.6786046635  WZ1       1282            0.0000000000
       776       259  TIP3      H1             -7.4301103985       -9.8798857466      -25.7982046635  WZ1       1282            0.0000000000
       777       259  TIP3      H2             -8.9329103985       -9.8862857466      -25.6152946635  WZ1       1282            0.0000000000
       778       260  TIP3      OH2           -19.7330703985      -13.1534657466      -23.0745446635  WZ1       1283            0.0000000000
       779       260  TIP3      H1            -19.3249503985      -14.0108057466      -23.1954846635  WZ1       1283            0.0000000000
       780       260  TIP3      H2            -19.9933103985      -13.1393357466      -22.1535146635  WZ1       1283            0.0000000000
       781       261  TIP3      OH2           -15.7860403985      -14.1448957466      -25.7002546635  WZ1       1285            0.0000000000
       782       261  TIP3      H1            -16.4044303985      -13.4702357466      -25.4197846635  WZ1       1285            0.0000000000
       783       261  TIP3      H2            -15.4419203985      -13.8235057466      -26.5336346635  WZ1       1285            0.0000000000
       784       262  TIP3      OH2           -10.7662203985      -11.6733657466      -22.4227746635  WZ1       1287            0.0000000000
       785       262  TIP3      H1             -9.8131003985      -11.5894557466      -22.4501746635  WZ1       1287            0.0000000000
       786       262  TIP3      H2            -10.9267603985      -12.3851857466      -21.8032846635  WZ1       1287            0.0000000000
       787       263  TIP3      OH2           -15.4466703985      -16.7898157466      -24.6179446635  WZ1       1289            0.0000000000
       788       263  TIP3      H1            -15.2965803985      -17.5186857466      -25.2199746635  WZ1       1289            0.0000000000
       789       263  TIP3      H2            -15.4444303985      -16.0126457466      -25.1767246635  WZ1       1289            0.0000000000
       790       264  TIP3      OH2           -15.0341003985      -18.4202357466      -27.1252046635  WZ1       1290            0.0000000000
       791       264  TIP3      H1            -14.4983503985      -17.9685657466      -27.7772746635  WZ1       1290            0.0000000000
       792       264  TIP3      H2            -15.8861403985      -18.5282557466      -27.5477946635  WZ1       1290            0.0000000000
       793       265  TIP3      OH2           -13.4522603985      -12.9806157466      -26.8856846635  WZ1       1291            0.0000000000
       794       265  TIP3      H1            -12.7017803985      -13.1368657466      -27.4589046635  WZ1       1291            0.0000000000
       795       265  TIP3      H2            -13.7914303985      -12.1289557466      -27.1611346635  WZ1       1291            0.0000000000
       796       266  TIP3      OH2            -9.0366403985      -15.1654357466      -21.8571546635  WZ1       1292            0.0000000000
       797       266  TIP3      H1             -8.8445103985      -16.0964957466      -21.9687046635  WZ1       1292            0.0000000000
       798       266  TIP3      H2             -8.1790103985      -14.7404857466      -21.8676146635  WZ1       1292            0.0000000000
       799       267  TIP3      OH2            -7.7199203985      -12.3769157466      -23.7798846635  WZ1       1293            0.0000000000
       800       267  TIP3      H1             -8.0014203985      -11.6674557466      -24.3575046635  WZ1       1293            0.0000000000
       801       267  TIP3      H2             -6.7774903985      -12.4496157466      -23.9307646635  WZ1       1293            0.0000000000
       802       268  TIP3      OH2           -16.9680403985      -15.5914657466      -22.7063846635  WZ1       1294            0.0000000000
       803       268  TIP3      H1            -17.7351403985      -16.1239857466      -22.9166246635  WZ1       1294            0.0000000000
       804       268  TIP3      H2            -16.2891403985      -15.9014257466      -23.3057546635  WZ1       1294            0.0000000000
       805       269  TIP3      OH2           -14.2285503985      -20.9636657466      -26.6938446635  WZ1       1295            0.0000000000
       806       269  TIP3      H1            -14.3265903985      -20.0173457466      -26.7992246635  WZ1       1295            0.0000000000
       807       269  TIP3      H2            -14.9709303985      -21.3362857466      -27.1694946635  WZ1       1295            0.0000000000
       808       270  TIP3      OH2           -12.9645003985      -16.6421257466      -23.1300046635  WZ1       1296            0.0000000000
       809       270  TIP3      H1            -13.1999603985      -16.8614557466      -22.2285146635  WZ1       1296            0.0000000000
       810       270  TIP3      H2            -13.7478103985      -16.8490057466      -23.6397546635  WZ1       1296            0.0000000000
       811       271  TIP3      OH2           -10.2488403985      -17.5147757466      -24.0546546635  WZ1       1297            0.0000000000
       812       271  TIP3      H1            -11.1963003985      -17.4828057466      -23.9223246635  WZ1       1297            0.0000000000
       813       271  TIP3      H2             -9.9361703985      -18.1400657466      -23.4008346635  WZ1       1297            0.0000000000
       814       272  TIP3      OH2            -8.6146903985      -18.8806657466      -22.0494646635  WZ1       1298            0.0000000000
       815       272  TIP3      H1             -8.7115103985      -19.8329357466      -22.0552746635  WZ1       1298            0.0000000000
       816       272  TIP3      H2             -8.9363803985      -18.6119857466      -21.1889146635  WZ1       1298            0.0000000000
       817       273  TIP3      OH2           -18.7877603985      -17.6710857466      -23.0019146635  WZ1       1299            0.0000000000
       818       273  TIP3      H1            -18.5760203985      -18.3774757466      -23.6121646635  WZ1       1299            0.0000000000
       819       273  TIP3      H2            -18.8990103985      -18.1084857466      -22.1577946635  WZ1       1299            0.0000000000
       820       274  TIP3      OH2           -14.0067403985      -21.6699257466      -24.0225646635  WZ1       1300            0.0000000000
       821       274  TIP3      H1            -13.2949003985      -22.3097057466      -24.0366546635  WZ1       1300            0.0000000000
       822       274  TIP3      H2            -14.1077003985      -21.4030957466      -24.9362546635  WZ1       1300            0.0000000000
       823       275  TIP3      OH2           -13.6529903985      -19.9870857466      -21.9689346635  WZ1       1301            0.0000000000
       824       275  TIP3      H1            -13.7847703985      -20.4627057466      -22.7890846635  WZ1       1301            0.0000000000
       825       275  TIP3      H2            -14.2522503985      -19.2427257466      -22.0242246635  WZ1       1301            0.0000000000
       826       276  TIP3      OH2            -3.4708103985       -4.1844857466      -29.4472346635  WZ1       1306            0.0000000000
       827       276  TIP3      H1             -3.4921403985       -3.9996457466      -28.5082946635  WZ1       1306            0.0000000000
       828       276  TIP3      H2             -2.7801903985       -3.6160857466      -29.7880946635  WZ1       1306            0.0000000000
       829       277  TIP3      OH2            -3.9075203985       -4.6173757466      -26.5253246635  WZ1       1307            0.0000000000
       830       277  TIP3      H1             -4.3946503985       -5.3529657466      -26.8965846635  WZ1       1307            0.0000000000
       831       277  TIP3      H2             -3.3582503985       -5.0109857466      -25.8473846635  WZ1       1307            0.0000000000
       832       278  TIP3      OH2            -5.4567903985       -8.8275657466      -21.8872946635  WZ1       1308            0.0000000000
       833       278  TIP3      H1             -6.3226803985       -8.9325957466      -21.4930646635  WZ1       1308            0.0000000000
       834       278  TIP3      H2             -5.0802003985       -8.0692357466      -21.4408246635  WZ1       1308            0.0000000000
       835       279  TIP3      OH2            -4.1558203985      -10.5711957466      -36.3730446635  WZ1       1309            0.0000000000
       836       279  TIP3      H1             -3.3056803985      -10.1501057466      -36.2458846635  WZ1       1309            0.0000000000
       837       279  TIP3      H2             -4.1503103985      -11.3111857466      -35.7659046635  WZ1       1309            0.0000000000
       838       280  TIP3      OH2            -3.7612603985      -12.5174557466      -34.5494746635  WZ1       1310            0.0000000000
       839       280  TIP3      H1             -4.4878003985      -12.9971957466      -34.1517146635  WZ1       1310            0.0000000000
       840       280  TIP3      H2             -3.1799303985      -12.3119857466      -33.8173146635  WZ1       1310            0.0000000000
       841       281  TIP3      OH2            -4.0021403985       -9.7327057466      -29.6017146635  WZ1       1311            0.0000000000
       842       281  TIP3      H1             -3.1687203985      -10.1107057466      -29.8823546635  WZ1       1311            0.0000000000
       843       281  TIP3      H2             -3.8901103985       -8.7895857466      -29.7208046635  WZ1       1311            0.0000000000
       844       282  TIP3      OH2            -5.5159103985       -6.8549557466      -27.2948746635  WZ1       1312            0.0000000000
       845       282  TIP3      H1             -6.1633803985       -6.5298057466      -26.6693546635  WZ1       1312            0.0000000000
       846       282  TIP3      H2             -6.0335103985       -7.2951857466      -27.9690446635  WZ1       1312            0.0000000000
       847       283  TIP3      OH2            -5.9745803985      -13.9968057466      -33.9866046635  WZ1       1315            0.0000000000
       848       283  TIP3      H1             -6.1247003985      -14.9419457466      -34.0068246635  WZ1       1315            0.0000000000
       849       283  TIP3      H2             -6.3281303985      -13.7156657466      -33.1426946635  WZ1       1315            0.0000000000
       850       284  TIP3      OH2            -5.1182903985      -12.0264757466      -24.3477746635  WZ1       1317            0.0000000000
       851       284  TIP3      H1             -4.5355603985      -12.7612457466      -24.1560546635  WZ1       1317            0.0000000000
       852       284  TIP3      H2             -4.5543603985      -11.2544457466      -24.3011946635  WZ1       1317            0.0000000000
       853       285  TIP3      OH2            -3.6215803985      -14.1238957466      -23.6632346635  WZ1       1318            0.0000000000
       854       285  TIP3      H1             -4.4849103985      -14.5026857466      -23.8287646635  WZ1       1318            0.0000000000
       855       285  TIP3      H2             -3.0172103985      -14.8624157466      -23.7376546635  WZ1       1318            0.0000000000
       856       286  TIP3      OH2            -5.6522703985      -15.8324857466      -30.0882046635  WZ1       1321            0.0000000000
       857       286  TIP3      H1             -4.7194703985      -15.6204957466      -30.1226046635  WZ1       1321            0.0000000000
       858       286  TIP3      H2             -5.8875203985      -15.7312757466      -29.1659046635  WZ1       1321            0.0000000000
       859       287  TIP3      OH2            -5.6230803985      -15.0959557466      -27.3122646635  WZ1       1322            0.0000000000
       860       287  TIP3      H1             -6.4659503985      -14.8279157466      -26.9462846635  WZ1       1322            0.0000000000
       861       287  TIP3      H2             -5.1806503985      -14.2737657466      -27.5231546635  WZ1       1322            0.0000000000
       862       288  TIP3      OH2           -21.3418603985      -16.6480857466      -23.8353446635  WZ1       1323            0.0000000000
       863       288  TIP3      H1            -20.4223703985      -16.7702557466      -23.5990346635  WZ1       1323            0.0000000000
       864       288  TIP3      H2            -21.7914103985      -17.3981157466      -23.4459946635  WZ1       1323            0.0000000000
       865       289  TIP3      OH2            -3.3399203985      -21.1159357466      -21.9587646635  WZ1       1324            0.0000000000
       866       289  TIP3      H1             -2.9902203985      -21.7695857466      -22.5642946635  WZ1       1324            0.0000000000
       867       289  TIP3      H2             -3.1929703985      -20.2785257466      -22.3985046635  WZ1       1324            0.0000000000
       868       290  TIP3      OH2            -3.8202003985      -19.0064757466      -23.6096346635  WZ1       1328            0.0000000000
       869       290  TIP3      H1             -4.7376303985      -18.7357657466      -23.6452846635  WZ1       1328            0.0000000000
       870       290  TIP3      H2             -3.6972603985      -19.5416357466      -24.3936646635  WZ1       1328            0.0000000000
       871       291  TIP3      OH2            -6.7322103985       -4.0945457466      -33.8750546635  WZ1       1331            0.0000000000
       872       291  TIP3      H1             -6.0799203985       -4.4423357466      -34.4831446635  WZ1       1331            0.0000000000
       873       291  TIP3      H2             -6.2218303985       -3.6062257466      -33.2290846635  WZ1       1331            0.0000000000
       874       292  TIP3      OH2           -19.3474603985       -7.1654057466      -23.3319646635  WZ1       1333            0.0000000000
       875       292  TIP3      H1            -20.1682103985       -6.9907557466      -23.7924946635  WZ1       1333            0.0000000000
       876       292  TIP3      H2            -19.5996803985       -7.2389357466      -22.4115246635  WZ1       1333            0.0000000000
       877       293  TIP3      OH2           -16.3931703985       -6.1912857466      -27.0735646635  WZ1       1334            0.0000000000
       878       293  TIP3      H1            -16.8180603985       -5.3814357466      -27.3561046635  WZ1       1334            0.0000000000
       879       293  TIP3      H2            -15.4888903985       -6.1058757466      -27.3755846635  WZ1       1334            0.0000000000
       880       294  TIP3      OH2           -12.0820303985       -4.7922857466      -24.1141946635  WZ1       1335            0.0000000000
       881       294  TIP3      H1            -11.8972803985       -5.1256757466      -23.2361646635  WZ1       1335            0.0000000000
       882       294  TIP3      H2            -11.2355803985       -4.4824257466      -24.4362746635  WZ1       1335            0.0000000000
       883       295  TIP3      OH2            -9.7369903985       -3.5063957466      -24.8700546635  WZ1       1336            0.0000000000
       884       295  TIP3      H1             -9.0601003985       -4.1391657466      -25.1101346635  WZ1       1336            0.0000000000
       885       295  TIP3      H2             -9.4151103985       -3.1053457466      -24.0627246635  WZ1       1336            0.0000000000
       886       296  TIP3      OH2            -4.8196103985      -20.9168457466      -25.7905546635  WZ1       1337            0.0000000000
       887       296  TIP3      H1             -5.6322603985      -20.5918157466      -26.1780846635  WZ1       1337            0.0000000000
       888       296  TIP3      H2             -4.5867603985      -21.6769957466      -26.3236446635  WZ1       1337            0.0000000000
       889       297  TIP3      OH2           -18.9915003985       -2.9348957466      -27.0260346635  WZ1       1338            0.0000000000
       890       297  TIP3      H1            -19.7118603985       -2.4947957466      -27.4772646635  WZ1       1338            0.0000000000
       891       297  TIP3      H2            -19.3571003985       -3.1854257466      -26.1776346635  WZ1       1338            0.0000000000
       892       298  TIP3      OH2           -16.5242403985       -3.3345057466      -27.9963146635  WZ1       1339            0.0000000000
       893       298  TIP3      H1            -17.3890203985       -3.2626557466      -27.5923046635  WZ1       1339            0.0000000000
       894       298  TIP3      H2            -16.5793403985       -2.7877757466      -28.7800646635  WZ1       1339            0.0000000000
       895       299  TIP3      OH2           -11.8136803985       -3.4466157466      -28.8207146635  WZ1       1340            0.0000000000
       896       299  TIP3      H1            -12.2702803985       -2.9176457466      -29.4748746635  WZ1       1340            0.0000000000
       897       299  TIP3      H2            -11.6508803985       -2.8434757466      -28.0954846635  WZ1       1340            0.0000000000
       898       300  TIP3      OH2            -9.4860503985       -4.5686557466      -27.8756846635  WZ1       1341            0.0000000000
       899       300  TIP3      H1            -10.3906803985       -4.4036357466      -28.1414746635  WZ1       1341            0.0000000000
       900       300  TIP3      H2             -9.0571903985       -3.7154357466      -27.9413446635  WZ1       1341            0.0000000000
       901       301  TIP3      OH2            -6.8818603985       -2.9987457466      -27.5809046635  WZ1       1342            0.0000000000
       902       301  TIP3      H1             -7.0636603985       -2.0828557466      -27.7914146635  WZ1       1342            0.0000000000
       903       301  TIP3      H2             -6.7050803985       -3.4090357466      -28.4274446635  WZ1       1342            0.0000000000
       904       302  TIP3      OH2           -19.5766903985       -4.3116457466      -30.1158546635  WZ1       1343            0.0000000000
       905       302  TIP3      H1            -19.5950903985       -4.7371357466      -29.2586246635  WZ1       1343            0.0000000000
       906       302  TIP3      H2            -18.7719003985       -4.6301457466      -30.5246346635  WZ1       1343            0.0000000000
       907       303  TIP3      OH2           -17.4353803985       -5.6017757466      -31.4608646635  WZ1       1344            0.0000000000
       908       303  TIP3      H1            -17.6543103985       -6.5180357466      -31.2912646635  WZ1       1344            0.0000000000
       909       303  TIP3      H2            -16.6111603985       -5.4617357466      -30.9947246635  WZ1       1344            0.0000000000
       910       304  TIP3      OH2           -14.8981303985       -5.1318457466      -30.6120646635  WZ1       1345            0.0000000000
       911       304  TIP3      H1            -14.6855603985       -6.0199457466      -30.8989746635  WZ1       1345            0.0000000000
       912       304  TIP3      H2            -14.8336203985       -5.1660757466      -29.6576646635  WZ1       1345            0.0000000000
       913       305  TIP3      OH2            -6.2470403985      -21.3603857466      -31.3550246635  WZ1       1347            0.0000000000
       914       305  TIP3      H1             -5.6432803985      -20.8128457466      -31.8569246635  WZ1       1347            0.0000000000
       915       305  TIP3      H2             -7.1168403985      -21.0413457466      -31.5956146635  WZ1       1347            0.0000000000
       916       306  TIP3      OH2            -4.5200003985      -20.2215157466      -33.0219346635  WZ1       1348            0.0000000000
       917       306  TIP3      H1             -3.9082503985      -20.7359457466      -33.5485746635  WZ1       1348            0.0000000000
       918       306  TIP3      H2             -4.1376603985      -19.3443057466      -32.9984946635  WZ1       1348            0.0000000000
       919       307  TIP3      OH2            -4.7524103985       -4.3152057466      -35.8678946635  WZ1       1358            0.0000000000
       920       307  TIP3      H1             -4.9467003985       -5.0629957466      -36.4329346635  WZ1       1358            0.0000000000
       921       307  TIP3      H2             -4.7914003985       -3.5571957466      -36.4511046635  WZ1       1358            0.0000000000
       922       308  TIP3      OH2           -19.1052103985      -20.3195657466      -24.1281246635  WZ1       1359            0.0000000000
       923       308  TIP3      H1            -19.4713903985      -21.0853057466      -23.6856546635  WZ1       1359            0.0000000000
       924       308  TIP3      H2            -18.1923603985      -20.2905457466      -23.8416146635  WZ1       1359            0.0000000000
       925       309  TIP3      OH2           -17.1321303985      -20.9691257466      -22.5924146635  WZ1       1360            0.0000000000
       926       309  TIP3      H1            -16.2337703985      -21.2431057466      -22.7770746635  WZ1       1360            0.0000000000
       927       309  TIP3      H2            -17.5188203985      -21.7115257466      -22.1281546635  WZ1       1360            0.0000000000
       928       310  TIP3      OH2            -8.7109003985      -21.6365957466      -22.4101346635  WZ1       1362            0.0000000000
       929       310  TIP3      H1             -8.6341803985      -22.0625257466      -21.5563646635  WZ1       1362            0.0000000000
       930       310  TIP3      H2             -7.8172403985      -21.6231257466      -22.7527846635  WZ1       1362            0.0000000000
       931       311  TIP3      OH2            -5.5347903985       -5.5639657466      -23.7177146635  WZ1       1363            0.0000000000
       932       311  TIP3      H1             -6.3166003985       -5.7501657466      -24.2376546635  WZ1       1363            0.0000000000
       933       311  TIP3      H2             -5.6068003985       -4.6345357466      -23.5004646635  WZ1       1363            0.0000000000
       934       312  TIP3      OH2             8.8712496015      -11.6775257466      -33.6869946635  WZ1       1364            0.0000000000
       935       312  TIP3      H1              8.9603596015      -10.7337057466      -33.8192846635  WZ1       1364            0.0000000000
       936       312  TIP3      H2              8.2330096015      -11.9528857466      -34.3450546635  WZ1       1364            0.0000000000
       937       313  TIP3      OH2             7.8043796015      -12.4224557466      -30.2681746635  WZ1       1365            0.0000000000
       938       313  TIP3      H1              7.7661296015      -13.0688257466      -29.5632146635  WZ1       1365            0.0000000000
       939       313  TIP3      H2              7.4820296015      -12.8890157466      -31.0393046635  WZ1       1365            0.0000000000
       940       314  TIP3      OH2             0.1728796015      -12.8082457466      -28.6751846635  WZ1       1366            0.0000000000
       941       314  TIP3      H1              0.2140896015      -13.4339157466      -27.9519446635  WZ1       1366            0.0000000000
       942       314  TIP3      H2              0.8756496015      -12.1843857466      -28.4931446635  WZ1       1366            0.0000000000
       943       315  TIP3      OH2            11.5103996015       -9.4834157466      -31.9666646635  WZ1       1367            0.0000000000
       944       315  TIP3      H1             11.0696696015      -10.2038157466      -31.5161046635  WZ1       1367            0.0000000000
       945       315  TIP3      H2             11.4973696015       -8.7626957466      -31.3368946635  WZ1       1367            0.0000000000
       946       316  TIP3      OH2             1.0961896015       -8.3583557466      -30.1402746635  WZ1       1368            0.0000000000
       947       316  TIP3      H1              0.7267096015       -9.1603057466      -30.5098446635  WZ1       1368            0.0000000000
       948       316  TIP3      H2              2.0372996015       -8.5268657466      -30.0939346635  WZ1       1368            0.0000000000
       949       317  TIP3      OH2            -2.2937603985      -14.6980957466      -34.7473946635  WZ1       1369            0.0000000000
       950       317  TIP3      H1             -2.7414203985      -13.8522257466      -34.7657446635  WZ1       1369            0.0000000000
       951       317  TIP3      H2             -2.8546403985      -15.2776757466      -35.2628846635  WZ1       1369            0.0000000000
       952       318  TIP3      OH2            -1.5831503985      -12.5361357466      -32.6215946635  WZ1       1370            0.0000000000
       953       318  TIP3      H1             -1.3698003985      -13.3059757466      -32.0942946635  WZ1       1370            0.0000000000
       954       318  TIP3      H2             -0.8453903985      -12.4464657466      -33.2248346635  WZ1       1370            0.0000000000
       955       319  TIP3      OH2             8.6219496015       -4.3792457466      -31.7546246635  WZ1       1371            0.0000000000
       956       319  TIP3      H1              9.2415896015       -5.0557757466      -32.0277046635  WZ1       1371            0.0000000000
       957       319  TIP3      H2              8.4136896015       -4.5971657466      -30.8461346635  WZ1       1371            0.0000000000
       958       320  TIP3      OH2             6.1938196015       -9.9903157466      -29.8620746635  WZ1       1372            0.0000000000
       959       320  TIP3      H1              6.4976096015      -10.6761757466      -30.4566646635  WZ1       1372            0.0000000000
       960       320  TIP3      H2              6.9152196015       -9.8714457466      -29.2442746635  WZ1       1372            0.0000000000
       961       321  TIP3      OH2            14.8567996015      -18.3887857466      -29.0014546635  WZ1       1373            0.0000000000
       962       321  TIP3      H1             14.9060196015      -17.7786657466      -28.2655446635  WZ1       1373            0.0000000000
       963       321  TIP3      H2             15.2823096015      -17.9276957466      -29.7243446635  WZ1       1373            0.0000000000
       964       322  TIP3      OH2             9.3345196015      -15.5960757466      -29.5345946635  WZ1       1374            0.0000000000
       965       322  TIP3      H1              9.4771096015      -16.5423757466      -29.5144346635  WZ1       1374            0.0000000000
       966       322  TIP3      H2              9.2284196015      -15.3890957466      -30.4631046635  WZ1       1374            0.0000000000
       967       323  TIP3      OH2             2.4893496015      -17.4944357466      -32.2621146635  WZ1       1375            0.0000000000
       968       323  TIP3      H1              2.5324596015      -16.6345857466      -32.6804846635  WZ1       1375            0.0000000000
       969       323  TIP3      H2              2.0317596015      -18.0469657466      -32.8957946635  WZ1       1375            0.0000000000
       970       324  TIP3      OH2            10.2116196015      -17.3638757466      -33.8612846635  WZ1       1376            0.0000000000
       971       324  TIP3      H1             10.8580496015      -17.6925557466      -33.2365246635  WZ1       1376            0.0000000000
       972       324  TIP3      H2             10.7215596015      -16.8459757466      -34.4841446635  WZ1       1376            0.0000000000
       973       325  TIP3      OH2            -0.8905003985      -15.0978557466      -31.4999746635  WZ1       1377            0.0000000000
       974       325  TIP3      H1             -0.2368403985      -15.6476857466      -31.0679646635  WZ1       1377            0.0000000000
       975       325  TIP3      H2             -0.8665703985      -15.3719557466      -32.4167746635  WZ1       1377            0.0000000000
       976       326  TIP3      OH2             4.2659496015      -13.5477257466      -32.2848246635  WZ1       1378            0.0000000000
       977       326  TIP3      H1              4.8820496015      -14.0741857466      -31.7754246635  WZ1       1378            0.0000000000
       978       326  TIP3      H2              3.6798296015      -14.1878557466      -32.6884646635  WZ1       1378            0.0000000000
       979       327  TIP3      OH2            15.2482596015      -16.9108657466      -26.7654746635  WZ1       1379            0.0000000000
       980       327  TIP3      H1             14.5597196015      -16.2527957466      -26.8608146635  WZ1       1379            0.0000000000
       981       327  TIP3      H2             15.2637196015      -17.1080757466      -25.8289346635  WZ1       1379            0.0000000000
       982       328  TIP3      OH2             1.2995396015      -18.5765957466      -28.1880346635  WZ1       1380            0.0000000000
       983       328  TIP3      H1              1.0807096015      -18.0465357466      -28.9544346635  WZ1       1380            0.0000000000
       984       328  TIP3      H2              0.6316296015      -18.3500457466      -27.5408946635  WZ1       1380            0.0000000000
       985       329  TIP3      OH2             8.6685196015       -9.0764857466      -34.6441246635  WZ1       1381            0.0000000000
       986       329  TIP3      H1              8.3730296015       -9.3992557466      -35.4954346635  WZ1       1381            0.0000000000
       987       329  TIP3      H2              8.3442996015       -8.1768157466      -34.6028646635  WZ1       1381            0.0000000000
       988       330  TIP3      OH2             3.8686796015      -10.9010257466      -27.9006646635  WZ1       1382            0.0000000000
       989       330  TIP3      H1              3.1285896015      -10.3028757466      -27.7971446635  WZ1       1382            0.0000000000
       990       330  TIP3      H2              4.5826296015      -10.3470657466      -28.2163046635  WZ1       1382            0.0000000000
       991       331  TIP3      OH2            11.9754596015      -18.0729457466      -31.8806946635  WZ1       1383            0.0000000000
       992       331  TIP3      H1             11.7602596015      -18.8386057466      -31.3480946635  WZ1       1383            0.0000000000
       993       331  TIP3      H2             12.6311996015      -17.6004857466      -31.3678446635  WZ1       1383            0.0000000000
       994       332  TIP3      OH2             0.8932696015      -16.6844157466      -30.2358146635  WZ1       1384            0.0000000000
       995       332  TIP3      H1              1.5068996015      -16.0516557466      -29.8625746635  WZ1       1384            0.0000000000
       996       332  TIP3      H2              1.4053396015      -17.1569157466      -30.8921246635  WZ1       1384            0.0000000000
       997       333  TIP3      OH2             2.2761096015       -8.9367257466      -27.1135146635  WZ1       1385            0.0000000000
       998       333  TIP3      H1              2.2708696015       -8.0573757466      -27.4915846635  WZ1       1385            0.0000000000
       999       333  TIP3      H2              1.4225196015       -9.0203157466      -26.6885246635  WZ1       1385            0.0000000000
      1000       334  TIP3      OH2            -1.6028003985       -9.2659357466      -36.3315846635  WZ1       1386            0.0000000000
      1001       334  TIP3      H1             -1.8747103985       -9.0368357466      -37.2202946635  WZ1       1386            0.0000000000
      1002       334  TIP3      H2             -1.5572303985       -8.4280557466      -35.8710546635  WZ1       1386            0.0000000000
      1003       335  TIP3      OH2            12.0221696015       -7.6443457466      -29.6187346635  WZ1       1387            0.0000000000
      1004       335  TIP3      H1             11.0805396015       -7.5859557466      -29.4570446635  WZ1       1387            0.0000000000
      1005       335  TIP3      H2             12.2987796015       -6.7382957466      -29.7557646635  WZ1       1387            0.0000000000
      1006       336  TIP3      OH2            12.3228696015      -19.3578157466      -28.2013446635  WZ1       1388            0.0000000000
      1007       336  TIP3      H1             11.5867896015      -18.7471057466      -28.2392146635  WZ1       1388            0.0000000000
      1008       336  TIP3      H2             13.0062696015      -18.9429157466      -28.7277046635  WZ1       1388            0.0000000000
      1009       337  TIP3      OH2             5.3260096015      -21.2710857466      -30.7355446635  WZ1       1389            0.0000000000
      1010       337  TIP3      H1              5.2084296015      -22.2194857466      -30.7897146635  WZ1       1389            0.0000000000
      1011       337  TIP3      H2              4.4710196015      -20.9384757466      -30.4624346635  WZ1       1389            0.0000000000
      1012       338  TIP3      OH2            10.2742896015       -5.8629957466      -32.9935746635  WZ1       1390            0.0000000000
      1013       338  TIP3      H1             10.6995196015       -6.5702057466      -33.4786146635  WZ1       1390            0.0000000000
      1014       338  TIP3      H2             10.5912896015       -5.0617257466      -33.4103546635  WZ1       1390            0.0000000000
      1015       339  TIP3      OH2            11.4339396015       -7.9621457466      -34.4849146635  WZ1       1391            0.0000000000
      1016       339  TIP3      H1             11.1764196015       -8.6521357466      -35.0963246635  WZ1       1391            0.0000000000
      1017       339  TIP3      H2             11.5050196015       -8.4050257466      -33.6393246635  WZ1       1391            0.0000000000
      1018       340  TIP3      OH2            13.1199596015       -9.3954757466      -26.0075646635  WZ1       1392            0.0000000000
      1019       340  TIP3      H1             13.2595896015       -9.9872257466      -26.7468646635  WZ1       1392            0.0000000000
      1020       340  TIP3      H2             13.2872396015       -8.5228857466      -26.3636846635  WZ1       1392            0.0000000000
      1021       341  TIP3      OH2             7.5924996015      -12.4335257466      -36.2349646635  WZ1       1393            0.0000000000
      1022       341  TIP3      H1              6.8810496015      -11.8985557466      -36.5869146635  WZ1       1393            0.0000000000
      1023       341  TIP3      H2              8.2834596015      -12.3783157466      -36.8950746635  WZ1       1393            0.0000000000
      1024       342  TIP3      OH2             7.6464196015      -13.9760957466      -39.1964646635  WZ1       1394            0.0000000000
      1025       342  TIP3      H1              8.3474096015      -13.9534057466      -38.5450646635  WZ1       1394            0.0000000000
      1026       342  TIP3      H2              7.9487096015      -14.6041257466      -39.8525346635  WZ1       1394            0.0000000000
      1027       343  TIP3      OH2            14.9618896015      -13.0556757466      -27.9415246635  WZ1       1395            0.0000000000
      1028       343  TIP3      H1             14.3092996015      -12.3611157466      -27.8524346635  WZ1       1395            0.0000000000
      1029       343  TIP3      H2             15.4269196015      -12.8455857466      -28.7513646635  WZ1       1395            0.0000000000
      1030       344  TIP3      OH2            10.9982696015      -12.2241957466      -35.2833746635  WZ1       1396            0.0000000000
      1031       344  TIP3      H1             10.2663696015      -11.9958257466      -34.7103146635  WZ1       1396            0.0000000000
      1032       344  TIP3      H2             11.4454896015      -12.9379257466      -34.8286246635  WZ1       1396            0.0000000000
      1033       345  TIP3      OH2            10.8956196015      -14.0499357466      -26.2156746635  WZ1       1397            0.0000000000
      1034       345  TIP3      H1             10.9755296015      -13.2864957466      -25.6438246635  WZ1       1397            0.0000000000
      1035       345  TIP3      H2             10.2943896015      -13.7706957466      -26.9061646635  WZ1       1397            0.0000000000
      1036       346  TIP3      OH2             2.6436396015      -11.5935757466      -33.4008746635  WZ1       1398            0.0000000000
      1037       346  TIP3      H1              2.3131596015      -11.9642357466      -34.2191746635  WZ1       1398            0.0000000000
      1038       346  TIP3      H2              3.2320496015      -12.2641757466      -33.0540446635  WZ1       1398            0.0000000000
      1039       347  TIP3      OH2             4.0103896015       -8.1655157466      -30.7196546635  WZ1       1399            0.0000000000
      1040       347  TIP3      H1              3.9155196015       -8.7442057466      -31.4761946635  WZ1       1399            0.0000000000
      1041       347  TIP3      H2              4.7397496015       -8.5369457466      -30.2233746635  WZ1       1399            0.0000000000
      1042       348  TIP3      OH2             3.0101896015      -12.8250157466      -29.7673746635  WZ1       1400            0.0000000000
      1043       348  TIP3      H1              3.5754396015      -12.7035957466      -30.5302546635  WZ1       1400            0.0000000000
      1044       348  TIP3      H2              3.3290796015      -12.1875157466      -29.1285246635  WZ1       1400            0.0000000000
      1045       349  TIP3      OH2             9.3194096015       -7.3218257466      -29.0333246635  WZ1       1401            0.0000000000
      1046       349  TIP3      H1              9.0790696015       -6.6595157466      -28.3854046635  WZ1       1401            0.0000000000
      1047       349  TIP3      H2              9.1212296015       -8.1563057466      -28.6083646635  WZ1       1401            0.0000000000
      1048       350  TIP3      OH2             3.8902596015       -8.4257457466      -25.0501846635  WZ1       1402            0.0000000000
      1049       350  TIP3      H1              3.5790096015       -7.6434257466      -24.5948646635  WZ1       1402            0.0000000000
      1050       350  TIP3      H2              3.2402796015       -8.5788357466      -25.7359846635  WZ1       1402            0.0000000000
      1051       351  TIP3      OH2             9.8692196015      -13.0619057466      -37.5982546635  WZ1       1403            0.0000000000
      1052       351  TIP3      H1             10.4487696015      -12.9118757466      -36.8513646635  WZ1       1403            0.0000000000
      1053       351  TIP3      H2             10.2832196015      -12.5911657466      -38.3216146635  WZ1       1403            0.0000000000
      1054       352  TIP3      OH2             0.8102496015      -12.2276357466      -25.8216146635  WZ1       1404            0.0000000000
      1055       352  TIP3      H1              0.8805696015      -11.5769557466      -25.1231146635  WZ1       1404            0.0000000000
      1056       352  TIP3      H2             -0.0805303985      -12.1248857466      -26.1565246635  WZ1       1404            0.0000000000
      1057       353  TIP3      OH2             7.5957096015       -6.3250557466      -34.1629446635  WZ1       1405            0.0000000000
      1058       353  TIP3      H1              8.0694696015       -6.0294257466      -33.3855246635  WZ1       1405            0.0000000000
      1059       353  TIP3      H2              7.0326396015       -5.5868957466      -34.3959846635  WZ1       1405            0.0000000000
      1060       354  TIP3      OH2             2.1298496015       -6.3542457466      -24.2868046635  WZ1       1406            0.0000000000
      1061       354  TIP3      H1              2.1373796015       -6.4902757466      -25.2342546635  WZ1       1406            0.0000000000
      1062       354  TIP3      H2              1.2138896015       -6.4714357466      -24.0348046635  WZ1       1406            0.0000000000
      1063       355  TIP3      OH2             1.6339096015      -12.5241457466      -35.8115946635  WZ1       1408            0.0000000000
      1064       355  TIP3      H1              1.3420396015      -11.7559757466      -36.3024646635  WZ1       1408            0.0000000000
      1065       355  TIP3      H2              0.9594296015      -13.1835257466      -35.9744546635  WZ1       1408            0.0000000000
      1066       356  TIP3      OH2            -2.2730803985      -10.1612257466      -26.9966146635  WZ1       1410            0.0000000000
      1067       356  TIP3      H1             -2.7742403985      -10.1892857466      -27.8116446635  WZ1       1410            0.0000000000
      1068       356  TIP3      H2             -2.2677103985      -11.0669057466      -26.6868846635  WZ1       1410            0.0000000000
      1069       357  TIP3      OH2            -2.5228103985       -7.3808457466      -30.1125946635  WZ1       1411            0.0000000000
      1070       357  TIP3      H1             -1.5767503985       -7.5251457466      -30.1316446635  WZ1       1411            0.0000000000
      1071       357  TIP3      H2             -2.6351803985       -6.5965657466      -29.5754746635  WZ1       1411            0.0000000000
      1072       358  TIP3      OH2            15.6750396015       -6.7148757466      -24.4302246635  WZ1       1412            0.0000000000
      1073       358  TIP3      H1             15.6257196015       -7.6700657466      -24.4674646635  WZ1       1412            0.0000000000
      1074       358  TIP3      H2             14.8482696015       -6.4473457466      -24.0288446635  WZ1       1412            0.0000000000
      1075       359  TIP3      OH2             6.6534396015       -7.1409557466      -25.5540846635  WZ1       1413            0.0000000000
      1076       359  TIP3      H1              6.7408996015       -6.3144957466      -25.0791746635  WZ1       1413            0.0000000000
      1077       359  TIP3      H2              5.7899496015       -7.4705757466      -25.3051546635  WZ1       1413            0.0000000000
      1078       360  TIP3      OH2             7.0680196015       -3.3685857466      -35.7480246635  WZ1       1414            0.0000000000
      1079       360  TIP3      H1              6.9926196015       -3.4898657466      -36.6945046635  WZ1       1414            0.0000000000
      1080       360  TIP3      H2              7.1008896015       -2.4193157466      -35.6295646635  WZ1       1414            0.0000000000
      1081       361  TIP3      OH2             0.7213996015       -4.5798857466      -33.9671246635  WZ1       1415            0.0000000000
      1082       361  TIP3      H1              0.8734396015       -4.9278457466      -33.0884746635  WZ1       1415            0.0000000000
      1083       361  TIP3      H2             -0.1295603985       -4.9361557466      -34.2224046635  WZ1       1415            0.0000000000
      1084       362  TIP3      OH2            10.1696196015       -4.2145657466      -38.7457846635  WZ1       1416            0.0000000000
      1085       362  TIP3      H1             10.5444596015       -4.9589557466      -39.2165246635  WZ1       1416            0.0000000000
      1086       362  TIP3      H2             10.1739896015       -4.4845057466      -37.8274546635  WZ1       1416            0.0000000000
      1087       363  TIP3      OH2             9.8384296015       -4.2888557466      -35.9965646635  WZ1       1417            0.0000000000
      1088       363  TIP3      H1              8.9034096015       -4.1886657466      -35.8178646635  WZ1       1417            0.0000000000
      1089       363  TIP3      H2             10.1186196015       -4.9982557466      -35.4182446635  WZ1       1417            0.0000000000
      1090       364  TIP3      OH2            12.8270196015      -15.2216257466      -23.9500046635  WZ1       1418            0.0000000000
      1091       364  TIP3      H1             12.4196996015      -14.7410657466      -24.6706746635  WZ1       1418            0.0000000000
      1092       364  TIP3      H2             12.8675896015      -16.1270257466      -24.2579246635  WZ1       1418            0.0000000000
      1093       365  TIP3      OH2            -0.0240303985       -8.8376857466      -25.9533346635  WZ1       1419            0.0000000000
      1094       365  TIP3      H1              0.1920996015       -9.1991257466      -25.0937546635  WZ1       1419            0.0000000000
      1095       365  TIP3      H2             -0.8795603985       -9.2123057466      -26.1629846635  WZ1       1419            0.0000000000
      1096       366  TIP3      OH2             2.5947696015      -20.3676357466      -29.9579146635  WZ1       1420            0.0000000000
      1097       366  TIP3      H1              1.7331396015      -20.4548157466      -30.3656246635  WZ1       1420            0.0000000000
      1098       366  TIP3      H2              2.5723396015      -19.5116257466      -29.5301546635  WZ1       1420            0.0000000000
      1099       367  TIP3      OH2             7.2575496015      -20.6455957466      -26.5832146635  WZ1       1421            0.0000000000
      1100       367  TIP3      H1              7.6778596015      -21.0608857466      -25.8301546635  WZ1       1421            0.0000000000
      1101       367  TIP3      H2              6.3245096015      -20.8242657466      -26.4660146635  WZ1       1421            0.0000000000
      1102       368  TIP3      OH2            10.5840396015      -16.8900757466      -25.7297646635  WZ1       1422            0.0000000000
      1103       368  TIP3      H1             10.0699896015      -17.0158557466      -24.9321646635  WZ1       1422            0.0000000000
      1104       368  TIP3      H2             10.4285096015      -15.9777657466      -25.9741446635  WZ1       1422            0.0000000000
      1105       369  TIP3      OH2            11.3465296015      -12.0290757466      -39.9684646635  WZ1       1423            0.0000000000
      1106       369  TIP3      H1             11.3886096015      -12.2516857466      -40.8984646635  WZ1       1423            0.0000000000
      1107       369  TIP3      H2             12.1957396015      -11.6303657466      -39.7784746635  WZ1       1423            0.0000000000
      1108       370  TIP3      OH2             6.9192796015      -18.1532557466      -39.2981346635  WZ1       1424            0.0000000000
      1109       370  TIP3      H1              6.6657596015      -18.1340957466      -38.3753246635  WZ1       1424            0.0000000000
      1110       370  TIP3      H2              6.6624896015      -19.0247157466      -39.5995146635  WZ1       1424            0.0000000000
      1111       371  TIP3      OH2             2.6857796015      -15.4021857466      -28.8628946635  WZ1       1425            0.0000000000
      1112       371  TIP3      H1              2.0439896015      -15.4424557466      -28.1538846635  WZ1       1425            0.0000000000
      1113       371  TIP3      H2              2.7229796015      -14.4757157466      -29.1005946635  WZ1       1425            0.0000000000
      1114       372  TIP3      OH2             2.6826896015      -15.1811757466      -33.9508946635  WZ1       1426            0.0000000000
      1115       372  TIP3      H1              1.7899796015      -15.5215657466      -34.0095146635  WZ1       1426            0.0000000000
      1116       372  TIP3      H2              3.1333496015      -15.5580857466      -34.7065746635  WZ1       1426            0.0000000000
      1117       373  TIP3      OH2             8.2182396015      -14.7651457466      -35.1338146635  WZ1       1427            0.0000000000
      1118       373  TIP3      H1              7.8092696015      -13.9502857466      -35.4253346635  WZ1       1427            0.0000000000
      1119       373  TIP3      H2              8.9388596015      -14.9051357466      -35.7481046635  WZ1       1427            0.0000000000
      1120       374  TIP3      OH2             7.3203996015      -14.5895057466      -23.6457446635  WZ1       1428            0.0000000000
      1121       374  TIP3      H1              6.7577796015      -15.2943457466      -23.3249646635  WZ1       1428            0.0000000000
      1122       374  TIP3      H2              8.1467396015      -14.7103157466      -23.1779846635  WZ1       1428            0.0000000000
      1123       375  TIP3      OH2             9.2230096015      -15.3191057466      -32.3198446635  WZ1       1429            0.0000000000
      1124       375  TIP3      H1              9.0274596015      -14.7134257466      -33.0347846635  WZ1       1429            0.0000000000
      1125       375  TIP3      H2              9.4042696015      -16.1525857466      -32.7542146635  WZ1       1429            0.0000000000
      1126       376  TIP3      OH2             0.4358296015      -15.0818357466      -26.9956946635  WZ1       1430            0.0000000000
      1127       376  TIP3      H1              0.3977696015      -14.6816757466      -26.1269846635  WZ1       1430            0.0000000000
      1128       376  TIP3      H2             -0.0550603985      -15.8985957466      -26.9054046635  WZ1       1430            0.0000000000
      1129       377  TIP3      OH2            -2.9560903985      -17.9656557466      -33.1452246635  WZ1       1432            0.0000000000
      1130       377  TIP3      H1             -2.3253203985      -17.9944457466      -32.4258346635  WZ1       1432            0.0000000000
      1131       377  TIP3      H2             -2.5066603985      -18.3907857466      -33.8756346635  WZ1       1432            0.0000000000
      1132       378  TIP3      OH2             8.4869296015      -13.6809757466      -27.6486046635  WZ1       1434            0.0000000000
      1133       378  TIP3      H1              8.8104096015      -14.3120057466      -28.2915546635  WZ1       1434            0.0000000000
      1134       378  TIP3      H2              8.0468596015      -14.2157557466      -26.9878646635  WZ1       1434            0.0000000000
      1135       379  TIP3      OH2             5.2642196015      -17.7534257466      -32.8644846635  WZ1       1435            0.0000000000
      1136       379  TIP3      H1              4.3533296015      -17.6967457466      -32.5758846635  WZ1       1435            0.0000000000
      1137       379  TIP3      H2              5.7695096015      -17.8138757466      -32.0537646635  WZ1       1435            0.0000000000
      1138       380  TIP3      OH2             0.0925596015      -16.1247957466      -34.0377246635  WZ1       1436            0.0000000000
      1139       380  TIP3      H1             -0.7966403985      -16.0252457466      -34.3777646635  WZ1       1436            0.0000000000
      1140       380  TIP3      H2              0.3890496015      -16.9664957466      -34.3839346635  WZ1       1436            0.0000000000
      1141       381  TIP3      OH2             3.7457396015      -16.1245357466      -36.3812646635  WZ1       1437            0.0000000000
      1142       381  TIP3      H1              4.6772896015      -15.9955357466      -36.2029546635  WZ1       1437            0.0000000000
      1143       381  TIP3      H2              3.5307696015      -15.4551057466      -37.0307946635  WZ1       1437            0.0000000000
      1144       382  TIP3      OH2             9.6694096015      -18.5187957466      -29.6003046635  WZ1       1438            0.0000000000
      1145       382  TIP3      H1              8.9925696015      -18.3874857466      -28.9363346635  WZ1       1438            0.0000000000
      1146       382  TIP3      H2              9.1838996015      -18.6738457466      -30.4105346635  WZ1       1438            0.0000000000
      1147       383  TIP3      OH2             2.4197596015      -14.9303157466      -38.8146546635  WZ1       1439            0.0000000000
      1148       383  TIP3      H1              1.8772696015      -15.3099357466      -39.5058946635  WZ1       1439            0.0000000000
      1149       383  TIP3      H2              3.2532496015      -14.7358457466      -39.2432446635  WZ1       1439            0.0000000000
      1150       384  TIP3      OH2            12.9569196015       -2.8472557466      -23.3235446635  WZ1       1440            0.0000000000
      1151       384  TIP3      H1             13.1567896015       -2.4230657466      -24.1580146635  WZ1       1440            0.0000000000
      1152       384  TIP3      H2             13.6122896015       -2.5034357466      -22.7165046635  WZ1       1440            0.0000000000
      1153       385  TIP3      OH2             0.5548996015      -10.3731257466      -23.7154946635  WZ1       1441            0.0000000000
      1154       385  TIP3      H1              1.2871396015      -10.1185357466      -23.1540446635  WZ1       1441            0.0000000000
      1155       385  TIP3      H2             -0.2252303985      -10.1685857466      -23.1999546635  WZ1       1441            0.0000000000
      1156       386  TIP3      OH2             6.5841896015      -14.9661257466      -30.9775246635  WZ1       1442            0.0000000000
      1157       386  TIP3      H1              7.1485296015      -15.5124657466      -31.5245646635  WZ1       1442            0.0000000000
      1158       386  TIP3      H2              6.4365296015      -15.4879357466      -30.1887646635  WZ1       1442            0.0000000000
      1159       387  TIP3      OH2             1.5861596015      -18.8295157466      -34.5590446635  WZ1       1443            0.0000000000
      1160       387  TIP3      H1              1.2691096015      -19.7319857466      -34.5945046635  WZ1       1443            0.0000000000
      1161       387  TIP3      H2              2.3675696015      -18.8277757466      -35.1118846635  WZ1       1443            0.0000000000
      1162       388  TIP3      OH2             5.2107796015      -16.5775157466      -28.5634846635  WZ1       1444            0.0000000000
      1163       388  TIP3      H1              4.3753096015      -16.1235657466      -28.4532446635  WZ1       1444            0.0000000000
      1164       388  TIP3      H2              5.7348396015      -16.3016657466      -27.8114946635  WZ1       1444            0.0000000000
      1165       389  TIP3      OH2             5.7550396015      -10.3647457466      -36.8788446635  WZ1       1445            0.0000000000
      1166       389  TIP3      H1              5.0101396015      -10.8722157466      -37.2010546635  WZ1       1445            0.0000000000
      1167       389  TIP3      H2              5.6207596015      -10.3159457466      -35.9323646635  WZ1       1445            0.0000000000
      1168       390  TIP3      OH2            12.9049296015      -11.2319257466      -28.0920846635  WZ1       1446            0.0000000000
      1169       390  TIP3      H1             13.5468096015      -10.7752957466      -28.6358646635  WZ1       1446            0.0000000000
      1170       390  TIP3      H2             12.0746196015      -11.1186857466      -28.5546746635  WZ1       1446            0.0000000000
      1171       391  TIP3      OH2             9.6527196015      -17.5507557466      -38.6795846635  WZ1       1447            0.0000000000
      1172       391  TIP3      H1              8.7141396015      -17.4391957466      -38.8307046635  WZ1       1447            0.0000000000
      1173       391  TIP3      H2              9.9499296015      -16.6940657466      -38.3730146635  WZ1       1447            0.0000000000
      1174       392  TIP3      OH2             7.2742496015      -10.1804157466      -25.6419346635  WZ1       1448            0.0000000000
      1175       392  TIP3      H1              6.9288596015      -10.5621757466      -24.8349746635  WZ1       1448            0.0000000000
      1176       392  TIP3      H2              7.0742596015       -9.2470557466      -25.5706446635  WZ1       1448            0.0000000000
      1177       393  TIP3      OH2            10.3710696015      -15.6834857466      -37.0188446635  WZ1       1449            0.0000000000
      1178       393  TIP3      H1             11.2629696015      -15.8209857466      -36.6997246635  WZ1       1449            0.0000000000
      1179       393  TIP3      H2             10.4274296015      -14.8928757466      -37.5554946635  WZ1       1449            0.0000000000
      1180       394  TIP3      OH2             0.8798696015      -11.0697457466      -31.1090546635  WZ1       1450            0.0000000000
      1181       394  TIP3      H1              1.6245896015      -11.0721757466      -31.7104046635  WZ1       1450            0.0000000000
      1182       394  TIP3      H2              0.9575296015      -11.8933657466      -30.6275446635  WZ1       1450            0.0000000000
      1183       395  TIP3      OH2             7.8804496015       -8.9063157466      -37.8533846635  WZ1       1451            0.0000000000
      1184       395  TIP3      H1              7.5852896015       -8.0795257466      -37.4719046635  WZ1       1451            0.0000000000
      1185       395  TIP3      H2              7.1774496015       -9.5256257466      -37.6572446635  WZ1       1451            0.0000000000
      1186       396  TIP3      OH2            -2.1121603985      -12.6090557466      -25.7942046635  WZ1       1452            0.0000000000
      1187       396  TIP3      H1             -1.8893003985      -13.0270957466      -24.9624546635  WZ1       1452            0.0000000000
      1188       396  TIP3      H2             -2.7141503985      -13.2215557466      -26.2169246635  WZ1       1452            0.0000000000
      1189       397  TIP3      OH2             4.9043296015      -13.0920657466      -23.5812346635  WZ1       1453            0.0000000000
      1190       397  TIP3      H1              4.6084096015      -13.2577657466      -24.4763246635  WZ1       1453            0.0000000000
      1191       397  TIP3      H2              5.8358496015      -13.3120357466      -23.5918446635  WZ1       1453            0.0000000000
      1192       398  TIP3      OH2             9.5246096015       -7.7188657466      -25.6914346635  WZ1       1454            0.0000000000
      1193       398  TIP3      H1              8.6240396015       -7.5356057466      -25.9590446635  WZ1       1454            0.0000000000
      1194       398  TIP3      H2              9.5587196015       -7.4599357466      -24.7705546635  WZ1       1454            0.0000000000
      1195       399  TIP3      OH2            15.2559396015      -15.4740757466      -37.3241746635  WZ1       1455            0.0000000000
      1196       399  TIP3      H1             14.7015696015      -15.8702757466      -37.9964246635  WZ1       1455            0.0000000000
      1197       399  TIP3      H2             15.3562996015      -14.5635557466      -37.6018446635  WZ1       1455            0.0000000000
      1198       400  TIP3      OH2            15.2191396015       -9.6739057466      -24.4870246635  WZ1       1456            0.0000000000
      1199       400  TIP3      H1             14.3679896015       -9.4355257466      -24.8543846635  WZ1       1456            0.0000000000
      1200       400  TIP3      H2             15.8094796015       -9.6905857466      -25.2403146635  WZ1       1456            0.0000000000
      1201       401  TIP3      OH2            13.5511096015       -6.6880357466      -36.8589646635  WZ1       1457            0.0000000000
      1202       401  TIP3      H1             13.1782196015       -7.5136557466      -36.5499046635  WZ1       1457            0.0000000000
      1203       401  TIP3      H2             13.8284596015       -6.8710957466      -37.7566246635  WZ1       1457            0.0000000000
      1204       402  TIP3      OH2            10.7114996015      -11.8800857466      -29.8377746635  WZ1       1458            0.0000000000
      1205       402  TIP3      H1              9.7831896015      -12.1118957466      -29.8648446635  WZ1       1458            0.0000000000
      1206       402  TIP3      H2             11.1626096015      -12.6571057466      -30.1678946635  WZ1       1458            0.0000000000
      1207       403  TIP3      OH2             3.2548096015       -7.5519257466      -33.7049046635  WZ1       1459            0.0000000000
      1208       403  TIP3      H1              3.7820296015       -6.7784857466      -33.9050246635  WZ1       1459            0.0000000000
      1209       403  TIP3      H2              2.3746596015       -7.3270057466      -34.0065046635  WZ1       1459            0.0000000000
      1210       404  TIP3      OH2            -0.9904203985      -12.6895157466      -39.1176646635  WZ1       1460            0.0000000000
      1211       404  TIP3      H1             -0.3744303985      -12.0627957466      -38.7381846635  WZ1       1460            0.0000000000
      1212       404  TIP3      H2             -1.8521603985      -12.3735357466      -38.8460146635  WZ1       1460            0.0000000000
      1213       405  TIP3      OH2             4.6820396015       -9.8889357466      -34.1284746635  WZ1       1461            0.0000000000
      1214       405  TIP3      H1              4.4410396015       -8.9634957466      -34.0869446635  WZ1       1461            0.0000000000
      1215       405  TIP3      H2              3.9413996015      -10.3478057466      -33.7320846635  WZ1       1461            0.0000000000
      1216       406  TIP3      OH2             5.1966996015       -5.7395757466      -27.8133646635  WZ1       1462            0.0000000000
      1217       406  TIP3      H1              5.5591696015       -4.8850157466      -28.0469246635  WZ1       1462            0.0000000000
      1218       406  TIP3      H2              5.7282196015       -6.0314157466      -27.0727346635  WZ1       1462            0.0000000000
      1219       407  TIP3      OH2             3.3651196015       -4.8671757466      -34.5832546635  WZ1       1463            0.0000000000
      1220       407  TIP3      H1              2.4151696015       -4.7614357466      -34.5319246635  WZ1       1463            0.0000000000
      1221       407  TIP3      H2              3.7169296015       -4.0464357466      -34.2385046635  WZ1       1463            0.0000000000
      1222       408  TIP3      OH2             8.7407796015       -9.6405057466      -28.1128046635  WZ1       1464            0.0000000000
      1223       408  TIP3      H1              8.3149096015       -9.8683357466      -27.2864046635  WZ1       1464            0.0000000000
      1224       408  TIP3      H2              9.3213596015      -10.3793257466      -28.2952746635  WZ1       1464            0.0000000000
      1225       409  TIP3      OH2            10.9436696015       -8.7114557466      -39.0389046635  WZ1       1465            0.0000000000
      1226       409  TIP3      H1             11.2969796015       -9.0914757466      -38.2345546635  WZ1       1465            0.0000000000
      1227       409  TIP3      H2              9.9950196015       -8.8049757466      -38.9519746635  WZ1       1465            0.0000000000
      1228       410  TIP3      OH2            11.3991996015       -5.0885557466      -25.6433246635  WZ1       1466            0.0000000000
      1229       410  TIP3      H1             10.7975196015       -5.6442657466      -26.1386946635  WZ1       1466            0.0000000000
      1230       410  TIP3      H2             11.6805696015       -4.4215757466      -26.2695846635  WZ1       1466            0.0000000000
      1231       411  TIP3      OH2            -0.4782103985      -17.8557857466      -26.2360646635  WZ1       1468            0.0000000000
      1232       411  TIP3      H1             -1.3709803985      -17.5172457466      -26.3036646635  WZ1       1468            0.0000000000
      1233       411  TIP3      H2             -0.5769303985      -18.7111757466      -25.8179846635  WZ1       1468            0.0000000000
      1234       412  TIP3      OH2            11.8095996015      -10.0392557466      -36.8121146635  WZ1       1469            0.0000000000
      1235       412  TIP3      H1             11.5323596015      -10.7673257466      -36.2560046635  WZ1       1469            0.0000000000
      1236       412  TIP3      H2             12.7368996015       -9.9200557466      -36.6068546635  WZ1       1469            0.0000000000
      1237       413  TIP3      OH2            -0.8270103985       -6.0513457466      -27.8011246635  WZ1       1470            0.0000000000
      1238       413  TIP3      H1             -0.6099803985       -6.9831057466      -27.8321546635  WZ1       1470            0.0000000000
      1239       413  TIP3      H2             -0.5806603985       -5.7768457466      -26.9178446635  WZ1       1470            0.0000000000
      1240       414  TIP3      OH2             5.0344496015       -7.5998457466      -40.5919046635  WZ1       1471            0.0000000000
      1241       414  TIP3      H1              5.2734296015       -8.3480357466      -41.1390146635  WZ1       1471            0.0000000000
      1242       414  TIP3      H2              4.7655796015       -7.9876757466      -39.7591246635  WZ1       1471            0.0000000000
      1243       415  TIP3      OH2             3.9715096015       -8.0294657466      -38.1356446635  WZ1       1472            0.0000000000
      1244       415  TIP3      H1              4.1183096015       -8.5494857466      -37.3455546635  WZ1       1472            0.0000000000
      1245       415  TIP3      H2              3.9686796015       -7.1227057466      -37.8290546635  WZ1       1472            0.0000000000
      1246       416  TIP3      OH2             0.4246196015      -10.7771357466      -37.6251046635  WZ1       1473            0.0000000000
      1247       416  TIP3      H1             -0.2614503985      -10.4248857466      -37.0581346635  WZ1       1473            0.0000000000
      1248       416  TIP3      H2              0.9474096015      -10.0141757466      -37.8716746635  WZ1       1473            0.0000000000
      1249       417  TIP3      OH2             8.2561296015      -18.1147557466      -27.3462046635  WZ1       1474            0.0000000000
      1250       417  TIP3      H1              8.9549196015      -18.0408857466      -26.6962346635  WZ1       1474            0.0000000000
      1251       417  TIP3      H2              7.8752696015      -18.9792557466      -27.1919146635  WZ1       1474            0.0000000000
      1252       418  TIP3      OH2             9.0406196015      -18.4625857466      -36.2489746635  WZ1       1475            0.0000000000
      1253       418  TIP3      H1              9.2604496015      -17.9910457466      -37.0524346635  WZ1       1475            0.0000000000
      1254       418  TIP3      H2              9.5990196015      -18.0683257466      -35.5789146635  WZ1       1475            0.0000000000
      1255       419  TIP3      OH2             6.7092296015       -6.3321057466      -37.3862246635  WZ1       1476            0.0000000000
      1256       419  TIP3      H1              5.8928396015       -5.8351357466      -37.3337946635  WZ1       1476            0.0000000000
      1257       419  TIP3      H2              7.2388596015       -5.8567557466      -38.0263446635  WZ1       1476            0.0000000000
      1258       420  TIP3      OH2             6.2406096015      -16.7347057466      -35.4141346635  WZ1       1477            0.0000000000
      1259       420  TIP3      H1              7.0528696015      -16.2303857466      -35.3679646635  WZ1       1477            0.0000000000
      1260       420  TIP3      H2              5.9959096015      -16.8797357466      -34.5001746635  WZ1       1477            0.0000000000
      1261       421  TIP3      OH2             6.7762496015      -15.7484357466      -26.2294746635  WZ1       1478            0.0000000000
      1262       421  TIP3      H1              6.8952796015      -15.1748957466      -25.4724346635  WZ1       1478            0.0000000000
      1263       421  TIP3      H2              7.4317096015      -16.4364957466      -26.1146946635  WZ1       1478            0.0000000000
      1264       422  TIP3      OH2             7.1242796015      -19.6534057466      -34.4760246635  WZ1       1479            0.0000000000
      1265       422  TIP3      H1              6.7776296015      -19.0363457466      -33.8315946635  WZ1       1479            0.0000000000
      1266       422  TIP3      H2              7.7829696015      -19.1528357466      -34.9574746635  WZ1       1479            0.0000000000
      1267       423  TIP3      OH2             4.0475396015       -5.2883857466      -37.4045346635  WZ1       1480            0.0000000000
      1268       423  TIP3      H1              4.2084096015       -4.4886357466      -37.9052746635  WZ1       1480            0.0000000000
      1269       423  TIP3      H2              3.8503196015       -4.9817857466      -36.5194746635  WZ1       1480            0.0000000000
      1270       424  TIP3      OH2             2.7819796015      -18.5904657466      -37.7887746635  WZ1       1481            0.0000000000
      1271       424  TIP3      H1              2.6984596015      -17.7021557466      -37.4421346635  WZ1       1481            0.0000000000
      1272       424  TIP3      H2              3.6720096015      -18.8557957466      -37.5570946635  WZ1       1481            0.0000000000
      1273       425  TIP3      OH2            12.9808296015      -17.8414057466      -25.3945046635  WZ1       1482            0.0000000000
      1274       425  TIP3      H1             12.0644096015      -17.5792357466      -25.4821346635  WZ1       1482            0.0000000000
      1275       425  TIP3      H2             13.3163296015      -17.8445057466      -26.2909746635  WZ1       1482            0.0000000000
      1276       426  TIP3      OH2            11.5829296015      -14.0913057466      -31.2987746635  WZ1       1483            0.0000000000
      1277       426  TIP3      H1             10.7853696015      -14.5062857466      -31.6272746635  WZ1       1483            0.0000000000
      1278       426  TIP3      H2             12.0280396015      -14.7819357466      -30.8077246635  WZ1       1483            0.0000000000
      1279       427  TIP3      OH2             1.0405096015       -8.1632457466      -38.7283246635  WZ1       1484            0.0000000000
      1280       427  TIP3      H1              1.6326596015       -7.4637657466      -38.4520846635  WZ1       1484            0.0000000000
      1281       427  TIP3      H2              1.4998096015       -8.5962957466      -39.4478646635  WZ1       1484            0.0000000000
      1282       428  TIP3      OH2            12.6693896015       -4.8350557466      -29.6764246635  WZ1       1486            0.0000000000
      1283       428  TIP3      H1             12.5138196015       -4.1566157466      -30.3334946635  WZ1       1486            0.0000000000
      1284       428  TIP3      H2             13.6020296015       -4.7631257466      -29.4733646635  WZ1       1486            0.0000000000
      1285       429  TIP3      OH2             0.1646296015      -20.7172857466      -30.9392846635  WZ1       1487            0.0000000000
      1286       429  TIP3      H1             -0.0643903985      -20.6580357466      -31.8667846635  WZ1       1487            0.0000000000
      1287       429  TIP3      H2             -0.2780303985      -21.5087357466      -30.6328746635  WZ1       1487            0.0000000000
      1288       430  TIP3      OH2            -0.9050403985       -6.7765757466      -34.7787046635  WZ1       1488            0.0000000000
      1289       430  TIP3      H1             -1.7371803985       -6.3043057466      -34.7515646635  WZ1       1488            0.0000000000
      1290       430  TIP3      H2             -0.3592103985       -6.2668157466      -35.3773946635  WZ1       1488            0.0000000000
      1291       431  TIP3      OH2            -1.6166703985       -4.1642057466      -23.4489046635  WZ1       1489            0.0000000000
      1292       431  TIP3      H1             -1.0764503985       -4.3808057466      -22.6889846635  WZ1       1489            0.0000000000
      1293       431  TIP3      H2             -2.0978703985       -4.9696057466      -23.6386546635  WZ1       1489            0.0000000000
      1294       432  TIP3      OH2             2.9806696015       -5.2447657466      -21.8284846635  WZ1       1490            0.0000000000
      1295       432  TIP3      H1              3.7483896015       -5.7036857466      -21.4875646635  WZ1       1490            0.0000000000
      1296       432  TIP3      H2              2.9592896015       -5.4707857466      -22.7583646635  WZ1       1490            0.0000000000
      1297       433  TIP3      OH2             7.0726296015       -5.7367057466      -40.4533046635  WZ1       1491            0.0000000000
      1298       433  TIP3      H1              6.4287296015       -6.3678457466      -40.1319346635  WZ1       1491            0.0000000000
      1299       433  TIP3      H2              7.8344596015       -6.2679057466      -40.6849546635  WZ1       1491            0.0000000000
      1300       434  TIP3      OH2             9.5575396015       -6.8646557466      -23.0993346635  WZ1       1492            0.0000000000
      1301       434  TIP3      H1              9.2064896015       -7.7213557466      -22.8562946635  WZ1       1492            0.0000000000
      1302       434  TIP3      H2             10.2838596015       -6.7219857466      -22.4924346635  WZ1       1492            0.0000000000
      1303       435  TIP3      OH2            11.6769196015       -5.9197157466      -40.2195046635  WZ1       1493            0.0000000000
      1304       435  TIP3      H1             11.9599596015       -6.7141957466      -39.7668146635  WZ1       1493            0.0000000000
      1305       435  TIP3      H2             12.4167096015       -5.6866157466      -40.7803946635  WZ1       1493            0.0000000000
      1306       436  TIP3      OH2            -1.7097203985      -10.3537957466      -22.4944746635  WZ1       1494            0.0000000000
      1307       436  TIP3      H1             -1.5656703985      -11.2557257466      -22.7808046635  WZ1       1494            0.0000000000
      1308       436  TIP3      H2             -2.4819803985      -10.0675857466      -22.9822446635  WZ1       1494            0.0000000000
      1309       437  TIP3      OH2             2.6316496015      -10.0102257466      -40.3620146635  WZ1       1495            0.0000000000
      1310       437  TIP3      H1              2.6960596015      -10.8042657466      -39.8313746635  WZ1       1495            0.0000000000
      1311       437  TIP3      H2              3.2845696015      -10.1289457466      -41.0518146635  WZ1       1495            0.0000000000
      1312       438  TIP3      OH2             4.9458896015      -10.3839857466      -23.0618346635  WZ1       1496            0.0000000000
      1313       438  TIP3      H1              4.6172696015      -10.1131757466      -23.9190946635  WZ1       1496            0.0000000000
      1314       438  TIP3      H2              5.0977096015      -11.3250057466      -23.1493346635  WZ1       1496            0.0000000000
      1315       439  TIP3      OH2             7.9839896015       -8.9630557466      -40.6262146635  WZ1       1497            0.0000000000
      1316       439  TIP3      H1              7.7153996015       -8.7828457466      -39.7253246635  WZ1       1497            0.0000000000
      1317       439  TIP3      H2              7.7775496015       -9.8884357466      -40.7576346635  WZ1       1497            0.0000000000
      1318       440  TIP3      OH2            10.6804096015      -10.4682557466      -25.6786046635  WZ1       1498            0.0000000000
      1319       440  TIP3      H1             11.4258896015       -9.8798857466      -25.7982046635  WZ1       1498            0.0000000000
      1320       440  TIP3      H2              9.9230896015       -9.8862857466      -25.6152946635  WZ1       1498            0.0000000000
      1321       441  TIP3      OH2            -0.8770703985      -13.1534657466      -23.0745446635  WZ1       1499            0.0000000000
      1322       441  TIP3      H1             -0.4689503985      -14.0108057466      -23.1954846635  WZ1       1499            0.0000000000
      1323       441  TIP3      H2             -1.1373103985      -13.1393357466      -22.1535146635  WZ1       1499            0.0000000000
      1324       442  TIP3      OH2             3.7810296015      -12.0376057466      -38.0562146635  WZ1       1500            0.0000000000
      1325       442  TIP3      H1              3.3212296015      -12.5217757466      -37.3703646635  WZ1       1500            0.0000000000
      1326       442  TIP3      H2              4.0358996015      -12.7060657466      -38.6921646635  WZ1       1500            0.0000000000
      1327       443  TIP3      OH2             3.0699596015      -14.1448957466      -25.7002546635  WZ1       1501            0.0000000000
      1328       443  TIP3      H1              2.4515696015      -13.4702357466      -25.4197846635  WZ1       1501            0.0000000000
      1329       443  TIP3      H2              3.4140796015      -13.8235057466      -26.5336346635  WZ1       1501            0.0000000000
      1330       444  TIP3      OH2             4.8520696015      -13.7944257466      -39.7938946635  WZ1       1502            0.0000000000
      1331       444  TIP3      H1              4.6715696015      -13.9493057466      -40.7210646635  WZ1       1502            0.0000000000
      1332       444  TIP3      H2              5.8021196015      -13.6865557466      -39.7491046635  WZ1       1502            0.0000000000
      1333       445  TIP3      OH2             8.0897796015      -11.6733657466      -22.4227746635  WZ1       1503            0.0000000000
      1334       445  TIP3      H1              9.0428996015      -11.5894557466      -22.4501746635  WZ1       1503            0.0000000000
      1335       445  TIP3      H2              7.9292396015      -12.3851857466      -21.8032846635  WZ1       1503            0.0000000000
      1336       446  TIP3      OH2            14.2418996015      -11.4400057466      -40.3480846635  WZ1       1504            0.0000000000
      1337       446  TIP3      H1             13.9683796015      -11.8644557466      -41.1612546635  WZ1       1504            0.0000000000
      1338       446  TIP3      H2             14.2813096015      -10.5085557466      -40.5650446635  WZ1       1504            0.0000000000
      1339       447  TIP3      OH2             3.4093296015      -16.7898157466      -24.6179446635  WZ1       1505            0.0000000000
      1340       447  TIP3      H1              3.5594196015      -17.5186857466      -25.2199746635  WZ1       1505            0.0000000000
      1341       447  TIP3      H2              3.4115696015      -16.0126457466      -25.1767246635  WZ1       1505            0.0000000000
      1342       448  TIP3      OH2             3.8218996015      -18.4202357466      -27.1252046635  WZ1       1506            0.0000000000
      1343       448  TIP3      H1              4.3576496015      -17.9685657466      -27.7772746635  WZ1       1506            0.0000000000
      1344       448  TIP3      H2              2.9698596015      -18.5282557466      -27.5477946635  WZ1       1506            0.0000000000
      1345       449  TIP3      OH2             5.4037396015      -12.9806157466      -26.8856846635  WZ1       1507            0.0000000000
      1346       449  TIP3      H1              6.1542196015      -13.1368657466      -27.4589046635  WZ1       1507            0.0000000000
      1347       449  TIP3      H2              5.0645696015      -12.1289557466      -27.1611346635  WZ1       1507            0.0000000000
      1348       450  TIP3      OH2             9.8193596015      -15.1654357466      -21.8571546635  WZ1       1508            0.0000000000
      1349       450  TIP3      H1             10.0114896015      -16.0964957466      -21.9687046635  WZ1       1508            0.0000000000
      1350       450  TIP3      H2             10.6769896015      -14.7404857466      -21.8676146635  WZ1       1508            0.0000000000
      1351       451  TIP3      OH2            11.1360796015      -12.3769157466      -23.7798846635  WZ1       1509            0.0000000000
      1352       451  TIP3      H1             10.8545796015      -11.6674557466      -24.3575046635  WZ1       1509            0.0000000000
      1353       451  TIP3      H2             12.0785096015      -12.4496157466      -23.9307646635  WZ1       1509            0.0000000000
      1354       452  TIP3      OH2             1.8879596015      -15.5914657466      -22.7063846635  WZ1       1510            0.0000000000
      1355       452  TIP3      H1              1.1208596015      -16.1239857466      -22.9166246635  WZ1       1510            0.0000000000
      1356       452  TIP3      H2              2.5668596015      -15.9014257466      -23.3057546635  WZ1       1510            0.0000000000
      1357       453  TIP3      OH2             4.6274496015      -20.9636657466      -26.6938446635  WZ1       1511            0.0000000000
      1358       453  TIP3      H1              4.5294096015      -20.0173457466      -26.7992246635  WZ1       1511            0.0000000000
      1359       453  TIP3      H2              3.8850696015      -21.3362857466      -27.1694946635  WZ1       1511            0.0000000000
      1360       454  TIP3      OH2             5.8914996015      -16.6421257466      -23.1300046635  WZ1       1512            0.0000000000
      1361       454  TIP3      H1              5.6560396015      -16.8614557466      -22.2285146635  WZ1       1512            0.0000000000
      1362       454  TIP3      H2              5.1081896015      -16.8490057466      -23.6397546635  WZ1       1512            0.0000000000
      1363       455  TIP3      OH2             8.6071596015      -17.5147757466      -24.0546546635  WZ1       1513            0.0000000000
      1364       455  TIP3      H1              7.6596996015      -17.4828057466      -23.9223246635  WZ1       1513            0.0000000000
      1365       455  TIP3      H2              8.9198296015      -18.1400657466      -23.4008346635  WZ1       1513            0.0000000000
      1366       456  TIP3      OH2            10.2413096015      -18.8806657466      -22.0494646635  WZ1       1514            0.0000000000
      1367       456  TIP3      H1             10.1444896015      -19.8329357466      -22.0552746635  WZ1       1514            0.0000000000
      1368       456  TIP3      H2              9.9196196015      -18.6119857466      -21.1889146635  WZ1       1514            0.0000000000
      1369       457  TIP3      OH2             0.0682396015      -17.6710857466      -23.0019146635  WZ1       1515            0.0000000000
      1370       457  TIP3      H1              0.2799796015      -18.3774757466      -23.6121646635  WZ1       1515            0.0000000000
      1371       457  TIP3      H2             -0.0430103985      -18.1084857466      -22.1577946635  WZ1       1515            0.0000000000
      1372       458  TIP3      OH2             4.8492596015      -21.6699257466      -24.0225646635  WZ1       1516            0.0000000000
      1373       458  TIP3      H1              5.5610996015      -22.3097057466      -24.0366546635  WZ1       1516            0.0000000000
      1374       458  TIP3      H2              4.7482996015      -21.4030957466      -24.9362546635  WZ1       1516            0.0000000000
      1375       459  TIP3      OH2             5.2030096015      -19.9870857466      -21.9689346635  WZ1       1517            0.0000000000
      1376       459  TIP3      H1              5.0712296015      -20.4627057466      -22.7890846635  WZ1       1517            0.0000000000
      1377       459  TIP3      H2              4.6037496015      -19.2427257466      -22.0242246635  WZ1       1517            0.0000000000
      1378       460  TIP3      OH2             4.7492396015       -3.1040557466      -38.7925346635  WZ1       1518            0.0000000000
      1379       460  TIP3      H1              5.6823096015       -2.9461857466      -38.6486946635  WZ1       1518            0.0000000000
      1380       460  TIP3      H2              4.4851196015       -2.4287557466      -39.4173846635  WZ1       1518            0.0000000000
      1381       461  TIP3      OH2            -1.6822703985       -8.4676757466      -39.3097246635  WZ1       1519            0.0000000000
      1382       461  TIP3      H1             -0.7683503985       -8.3887857466      -39.0363346635  WZ1       1519            0.0000000000
      1383       461  TIP3      H2             -1.6749603985       -9.1547157466      -39.9761646635  WZ1       1519            0.0000000000
      1384       462  TIP3      OH2            -3.0332103985       -3.0748257466      -34.2323346635  WZ1       1520            0.0000000000
      1385       462  TIP3      H1             -3.6805003985       -3.5366557466      -34.7652146635  WZ1       1520            0.0000000000
      1386       462  TIP3      H2             -2.6787503985       -3.7464957466      -33.6497146635  WZ1       1520            0.0000000000
      1387       463  TIP3      OH2            -2.1632903985       -4.9941257466      -32.4277146635  WZ1       1521            0.0000000000
      1388       463  TIP3      H1             -2.4976103985       -5.8743957466      -32.2556946635  WZ1       1521            0.0000000000
      1389       463  TIP3      H2             -1.9410503985       -4.6486257466      -31.5631546635  WZ1       1521            0.0000000000
      1390       464  TIP3      OH2            15.3851896015       -4.1844857466      -29.4472346635  WZ1       1522            0.0000000000
      1391       464  TIP3      H1             15.3638596015       -3.9996457466      -28.5082946635  WZ1       1522            0.0000000000
      1392       464  TIP3      H2             16.0758096015       -3.6160857466      -29.7880946635  WZ1       1522            0.0000000000
      1393       465  TIP3      OH2            14.9484796015       -4.6173757466      -26.5253246635  WZ1       1523            0.0000000000
      1394       465  TIP3      H1             14.4613496015       -5.3529657466      -26.8965846635  WZ1       1523            0.0000000000
      1395       465  TIP3      H2             15.4977496015       -5.0109857466      -25.8473846635  WZ1       1523            0.0000000000
      1396       466  TIP3      OH2            13.3992096015       -8.8275657466      -21.8872946635  WZ1       1524            0.0000000000
      1397       466  TIP3      H1             12.5333196015       -8.9325957466      -21.4930646635  WZ1       1524            0.0000000000
      1398       466  TIP3      H2             13.7757996015       -8.0692357466      -21.4408246635  WZ1       1524            0.0000000000
      1399       467  TIP3      OH2            14.7001796015      -10.5711957466      -36.3730446635  WZ1       1525            0.0000000000
      1400       467  TIP3      H1             15.5503196015      -10.1501057466      -36.2458846635  WZ1       1525            0.0000000000
      1401       467  TIP3      H2             14.7056896015      -11.3111857466      -35.7659046635  WZ1       1525            0.0000000000
      1402       468  TIP3      OH2            15.0947396015      -12.5174557466      -34.5494746635  WZ1       1526            0.0000000000
      1403       468  TIP3      H1             14.3681996015      -12.9971957466      -34.1517146635  WZ1       1526            0.0000000000
      1404       468  TIP3      H2             15.6760696015      -12.3119857466      -33.8173146635  WZ1       1526            0.0000000000
      1405       469  TIP3      OH2            14.8538596015       -9.7327057466      -29.6017146635  WZ1       1527            0.0000000000
      1406       469  TIP3      H1             15.6872796015      -10.1107057466      -29.8823546635  WZ1       1527            0.0000000000
      1407       469  TIP3      H2             14.9658896015       -8.7895857466      -29.7208046635  WZ1       1527            0.0000000000
      1408       470  TIP3      OH2            13.3400896015       -6.8549557466      -27.2948746635  WZ1       1528            0.0000000000
      1409       470  TIP3      H1             12.6926196015       -6.5298057466      -26.6693546635  WZ1       1528            0.0000000000
      1410       470  TIP3      H2             12.8224896015       -7.2951857466      -27.9690446635  WZ1       1528            0.0000000000
      1411       471  TIP3      OH2            15.3630496015      -12.6166057466      -38.1583446635  WZ1       1529            0.0000000000
      1412       471  TIP3      H1             14.8411596015      -12.2601957466      -38.8772546635  WZ1       1529            0.0000000000
      1413       471  TIP3      H2             15.3299696015      -11.9418257466      -37.4802546635  WZ1       1529            0.0000000000
      1414       472  TIP3      OH2            12.8814196015      -13.9968057466      -33.9866046635  WZ1       1531            0.0000000000
      1415       472  TIP3      H1             12.7312996015      -14.9419457466      -34.0068246635  WZ1       1531            0.0000000000
      1416       472  TIP3      H2             12.5278696015      -13.7156657466      -33.1426946635  WZ1       1531            0.0000000000
      1417       473  TIP3      OH2            -2.0833403985      -11.9185857466      -29.9762246635  WZ1       1532            0.0000000000
      1418       473  TIP3      H1             -1.8990503985      -12.0004157466      -30.9119346635  WZ1       1532            0.0000000000
      1419       473  TIP3      H2             -1.2340503985      -12.0428857466      -29.5525846635  WZ1       1532            0.0000000000
      1420       474  TIP3      OH2            13.7377096015      -12.0264757466      -24.3477746635  WZ1       1533            0.0000000000
      1421       474  TIP3      H1             14.3204396015      -12.7612457466      -24.1560546635  WZ1       1533            0.0000000000
      1422       474  TIP3      H2             14.3016396015      -11.2544457466      -24.3011946635  WZ1       1533            0.0000000000
      1423       475  TIP3      OH2            15.2344196015      -14.1238957466      -23.6632346635  WZ1       1534            0.0000000000
      1424       475  TIP3      H1             14.3710896015      -14.5026857466      -23.8287646635  WZ1       1534            0.0000000000
      1425       475  TIP3      H2             15.8387896015      -14.8624157466      -23.7376546635  WZ1       1534            0.0000000000
      1426       476  TIP3      OH2            12.5918996015      -16.4142257466      -35.5240946635  WZ1       1536            0.0000000000
      1427       476  TIP3      H1             12.8716096015      -17.3211857466      -35.3999246635  WZ1       1536            0.0000000000
      1428       476  TIP3      H2             13.3510696015      -15.9800757466      -35.9131746635  WZ1       1536            0.0000000000
      1429       477  TIP3      OH2            13.2037296015      -15.8324857466      -30.0882046635  WZ1       1537            0.0000000000
      1430       477  TIP3      H1             14.1365296015      -15.6204957466      -30.1226046635  WZ1       1537            0.0000000000
      1431       477  TIP3      H2             12.9684796015      -15.7312757466      -29.1659046635  WZ1       1537            0.0000000000
      1432       478  TIP3      OH2            13.2329196015      -15.0959557466      -27.3122646635  WZ1       1538            0.0000000000
      1433       478  TIP3      H1             12.3900496015      -14.8279157466      -26.9462846635  WZ1       1538            0.0000000000
      1434       478  TIP3      H2             13.6753496015      -14.2737657466      -27.5231546635  WZ1       1538            0.0000000000
      1435       479  TIP3      OH2            -2.4858603985      -16.6480857466      -23.8353446635  WZ1       1539            0.0000000000
      1436       479  TIP3      H1             -1.5663703985      -16.7702557466      -23.5990346635  WZ1       1539            0.0000000000
      1437       479  TIP3      H2             -2.9354103985      -17.3981157466      -23.4459946635  WZ1       1539            0.0000000000
      1438       480  TIP3      OH2            15.5160796015      -21.1159357466      -21.9587646635  WZ1       1540            0.0000000000
      1439       480  TIP3      H1             15.8657796015      -21.7695857466      -22.5642946635  WZ1       1540            0.0000000000
      1440       480  TIP3      H2             15.6630296015      -20.2785257466      -22.3985046635  WZ1       1540            0.0000000000
      1441       481  TIP3      OH2            13.2053796015      -19.1512957466      -35.4758946635  WZ1       1541            0.0000000000
      1442       481  TIP3      H1             13.3878796015      -19.6001457466      -34.6503946635  WZ1       1541            0.0000000000
      1443       481  TIP3      H2             12.6056696015      -19.7358557466      -35.9394346635  WZ1       1541            0.0000000000
      1444       482  TIP3      OH2            -1.2646103985      -18.3359257466      -30.9440546635  WZ1       1542            0.0000000000
      1445       482  TIP3      H1             -0.8194503985      -19.1276757466      -30.6420846635  WZ1       1542            0.0000000000
      1446       482  TIP3      H2             -0.7983103985      -17.6194057466      -30.5134946635  WZ1       1542            0.0000000000
      1447       483  TIP3      OH2            -2.9605803985      -15.3366257466      -29.8750346635  WZ1       1543            0.0000000000
      1448       483  TIP3      H1             -2.4686003985      -15.5575757466      -30.6658346635  WZ1       1543            0.0000000000
      1449       483  TIP3      H2             -2.5984903985      -14.4962857466      -29.5940846635  WZ1       1543            0.0000000000
      1450       484  TIP3      OH2            15.0357996015      -19.0064757466      -23.6096346635  WZ1       1544            0.0000000000
      1451       484  TIP3      H1             14.1183696015      -18.7357657466      -23.6452846635  WZ1       1544            0.0000000000
      1452       484  TIP3      H2             15.1587396015      -19.5416357466      -24.3936646635  WZ1       1544            0.0000000000
      1453       485  TIP3      OH2            12.1237896015       -4.0945457466      -33.8750546635  WZ1       1547            0.0000000000
      1454       485  TIP3      H1             12.7760796015       -4.4423357466      -34.4831446635  WZ1       1547            0.0000000000
      1455       485  TIP3      H2             12.6341696015       -3.6062257466      -33.2290846635  WZ1       1547            0.0000000000
      1456       486  TIP3      OH2            -2.6833903985      -20.3408157466      -27.4765446635  WZ1       1548            0.0000000000
      1457       486  TIP3      H1             -3.3483403985      -20.5867857466      -26.8334546635  WZ1       1548            0.0000000000
      1458       486  TIP3      H2             -3.1262603985      -19.7187757466      -28.0537446635  WZ1       1548            0.0000000000
      1459       487  TIP3      OH2            -0.4914603985       -7.1654057466      -23.3319646635  WZ1       1549            0.0000000000
      1460       487  TIP3      H1             -1.3122103985       -6.9907557466      -23.7924946635  WZ1       1549            0.0000000000
      1461       487  TIP3      H2             -0.7436803985       -7.2389357466      -22.4115246635  WZ1       1549            0.0000000000
      1462       488  TIP3      OH2             2.4628296015       -6.1912857466      -27.0735646635  WZ1       1550            0.0000000000
      1463       488  TIP3      H1              2.0379396015       -5.3814357466      -27.3561046635  WZ1       1550            0.0000000000
      1464       488  TIP3      H2              3.3671096015       -6.1058757466      -27.3755846635  WZ1       1550            0.0000000000
      1465       489  TIP3      OH2             6.7739696015       -4.7922857466      -24.1141946635  WZ1       1551            0.0000000000
      1466       489  TIP3      H1              6.9587196015       -5.1256757466      -23.2361646635  WZ1       1551            0.0000000000
      1467       489  TIP3      H2              7.6204196015       -4.4824257466      -24.4362746635  WZ1       1551            0.0000000000
      1468       490  TIP3      OH2             9.1190096015       -3.5063957466      -24.8700546635  WZ1       1552            0.0000000000
      1469       490  TIP3      H1              9.7958996015       -4.1391657466      -25.1101346635  WZ1       1552            0.0000000000
      1470       490  TIP3      H2              9.4408896015       -3.1053457466      -24.0627246635  WZ1       1552            0.0000000000
      1471       491  TIP3      OH2            14.0363896015      -20.9168457466      -25.7905546635  WZ1       1553            0.0000000000
      1472       491  TIP3      H1             13.2237396015      -20.5918157466      -26.1780846635  WZ1       1553            0.0000000000
      1473       491  TIP3      H2             14.2692396015      -21.6769957466      -26.3236446635  WZ1       1553            0.0000000000
      1474       492  TIP3      OH2            -0.1355003985       -2.9348957466      -27.0260346635  WZ1       1554            0.0000000000
      1475       492  TIP3      H1             -0.8558603985       -2.4947957466      -27.4772646635  WZ1       1554            0.0000000000
      1476       492  TIP3      H2             -0.5011003985       -3.1854257466      -26.1776346635  WZ1       1554            0.0000000000
      1477       493  TIP3      OH2             2.3317596015       -3.3345057466      -27.9963146635  WZ1       1555            0.0000000000
      1478       493  TIP3      H1              1.4669796015       -3.2626557466      -27.5923046635  WZ1       1555            0.0000000000
      1479       493  TIP3      H2              2.2766596015       -2.7877757466      -28.7800646635  WZ1       1555            0.0000000000
      1480       494  TIP3      OH2             7.0423196015       -3.4466157466      -28.8207146635  WZ1       1556            0.0000000000
      1481       494  TIP3      H1              6.5857196015       -2.9176457466      -29.4748746635  WZ1       1556            0.0000000000
      1482       494  TIP3      H2              7.2051196015       -2.8434757466      -28.0954846635  WZ1       1556            0.0000000000
      1483       495  TIP3      OH2             9.3699496015       -4.5686557466      -27.8756846635  WZ1       1557            0.0000000000
      1484       495  TIP3      H1              8.4653196015       -4.4036357466      -28.1414746635  WZ1       1557            0.0000000000
      1485       495  TIP3      H2              9.7988096015       -3.7154357466      -27.9413446635  WZ1       1557            0.0000000000
      1486       496  TIP3      OH2            11.9741396015       -2.9987457466      -27.5809046635  WZ1       1558            0.0000000000
      1487       496  TIP3      H1             11.7923396015       -2.0828557466      -27.7914146635  WZ1       1558            0.0000000000
      1488       496  TIP3      H2             12.1509196015       -3.4090357466      -28.4274446635  WZ1       1558            0.0000000000
      1489       497  TIP3      OH2            -0.7206903985       -4.3116457466      -30.1158546635  WZ1       1559            0.0000000000
      1490       497  TIP3      H1             -0.7390903985       -4.7371357466      -29.2586246635  WZ1       1559            0.0000000000
      1491       497  TIP3      H2              0.0840996015       -4.6301457466      -30.5246346635  WZ1       1559            0.0000000000
      1492       498  TIP3      OH2             1.4206196015       -5.6017757466      -31.4608646635  WZ1       1560            0.0000000000
      1493       498  TIP3      H1              1.2016896015       -6.5180357466      -31.2912646635  WZ1       1560            0.0000000000
      1494       498  TIP3      H2              2.2448396015       -5.4617357466      -30.9947246635  WZ1       1560            0.0000000000
      1495       499  TIP3      OH2             3.9578696015       -5.1318457466      -30.6120646635  WZ1       1561            0.0000000000
      1496       499  TIP3      H1              4.1704396015       -6.0199457466      -30.8989746635  WZ1       1561            0.0000000000
      1497       499  TIP3      H2              4.0223796015       -5.1660757466      -29.6576646635  WZ1       1561            0.0000000000
      1498       500  TIP3      OH2             7.4662396015      -19.4677857466      -31.4677346635  WZ1       1562            0.0000000000
      1499       500  TIP3      H1              6.7919196015      -20.0972257466      -31.2121546635  WZ1       1562            0.0000000000
      1500       500  TIP3      H2              8.0301596015      -19.9518957466      -32.0709446635  WZ1       1562            0.0000000000
      1501       501  TIP3      OH2            12.6089596015      -21.3603857466      -31.3550246635  WZ1       1563            0.0000000000
      1502       501  TIP3      H1             13.2127196015      -20.8128457466      -31.8569246635  WZ1       1563            0.0000000000
      1503       501  TIP3      H2             11.7391596015      -21.0413457466      -31.5956146635  WZ1       1563            0.0000000000
      1504       502  TIP3      OH2            14.3359996015      -20.2215157466      -33.0219346635  WZ1       1564            0.0000000000
      1505       502  TIP3      H1             14.9477496015      -20.7359457466      -33.5485746635  WZ1       1564            0.0000000000
      1506       502  TIP3      H2             14.7183396015      -19.3443057466      -32.9984946635  WZ1       1564            0.0000000000
      1507       503  TIP3      OH2            -0.2070103985      -20.8337557466      -33.6457446635  WZ1       1565            0.0000000000
      1508       503  TIP3      H1             -0.9840303985      -21.0682657466      -34.1531546635  WZ1       1565            0.0000000000
      1509       503  TIP3      H2              0.3233496015      -21.6305457466      -33.6369446635  WZ1       1565            0.0000000000
      1510       504  TIP3      OH2             4.3722496015      -20.9070457466      -33.8324346635  WZ1       1567            0.0000000000
      1511       504  TIP3      H1              5.2465896015      -20.5186157466      -33.8620046635  WZ1       1567            0.0000000000
      1512       504  TIP3      H2              4.2363296015      -21.1222657466      -32.9097146635  WZ1       1567            0.0000000000
      1513       505  TIP3      OH2             9.9290896015      -20.8770657466      -32.1832646635  WZ1       1568            0.0000000000
      1514       505  TIP3      H1             10.0052496015      -20.7819057466      -33.1326646635  WZ1       1568            0.0000000000
      1515       505  TIP3      H2              9.6540096015      -21.7847757466      -32.0543546635  WZ1       1568            0.0000000000
      1516       506  TIP3      OH2            11.2823496015      -20.8512857466      -36.4907646635  WZ1       1569            0.0000000000
      1517       506  TIP3      H1             10.5794596015      -20.2363657466      -36.7006246635  WZ1       1569            0.0000000000
      1518       506  TIP3      H2             10.8374896015      -21.6886157466      -36.3596746635  WZ1       1569            0.0000000000
      1519       507  TIP3      OH2            -1.4697203985       -5.0877257466      -36.9446246635  WZ1       1570            0.0000000000
      1520       507  TIP3      H1             -2.1547303985       -5.1258357466      -37.6121146635  WZ1       1570            0.0000000000
      1521       507  TIP3      H2             -1.4660003985       -4.1749657466      -36.6564146635  WZ1       1570            0.0000000000
      1522       508  TIP3      OH2             5.5162496015      -18.8266457466      -36.9426746635  WZ1       1572            0.0000000000
      1523       508  TIP3      H1              5.6943796015      -19.4733257466      -36.2598146635  WZ1       1572            0.0000000000
      1524       508  TIP3      H2              5.4628696015      -17.9928757466      -36.4755646635  WZ1       1572            0.0000000000
      1525       509  TIP3      OH2             7.3946296015       -3.8782357466      -38.5470046635  WZ1       1573            0.0000000000
      1526       509  TIP3      H1              8.2606496015       -3.5114957466      -38.7251846635  WZ1       1573            0.0000000000
      1527       509  TIP3      H2              7.1479096015       -4.3174357466      -39.3609246635  WZ1       1573            0.0000000000
      1528       510  TIP3      OH2            14.1035896015       -4.3152057466      -35.8678946635  WZ1       1574            0.0000000000
      1529       510  TIP3      H1             13.9092996015       -5.0629957466      -36.4329346635  WZ1       1574            0.0000000000
      1530       510  TIP3      H2             14.0645996015       -3.5571957466      -36.4511046635  WZ1       1574            0.0000000000
      1531       511  TIP3      OH2            -0.2492103985      -20.3195657466      -24.1281246635  WZ1       1575            0.0000000000
      1532       511  TIP3      H1             -0.6153903985      -21.0853057466      -23.6856546635  WZ1       1575            0.0000000000
      1533       511  TIP3      H2              0.6636396015      -20.2905457466      -23.8416146635  WZ1       1575            0.0000000000
      1534       512  TIP3      OH2             1.7238696015      -20.9691257466      -22.5924146635  WZ1       1576            0.0000000000
      1535       512  TIP3      H1              2.6222296015      -21.2431057466      -22.7770746635  WZ1       1576            0.0000000000
      1536       512  TIP3      H2              1.3371796015      -21.7115257466      -22.1281546635  WZ1       1576            0.0000000000
      1537       513  TIP3      OH2             0.3483996015       -4.1676457466      -39.9194146635  WZ1       1577            0.0000000000
      1538       513  TIP3      H1              0.0808596015       -3.8813557466      -39.0461046635  WZ1       1577            0.0000000000
      1539       513  TIP3      H2              1.1196596015       -4.7137257466      -39.7671646635  WZ1       1577            0.0000000000
      1540       514  TIP3      OH2            10.1450996015      -21.6365957466      -22.4101346635  WZ1       1578            0.0000000000
      1541       514  TIP3      H1             10.2218196015      -22.0625257466      -21.5563646635  WZ1       1578            0.0000000000
      1542       514  TIP3      H2             11.0387596015      -21.6231257466      -22.7527846635  WZ1       1578            0.0000000000
      1543       515  TIP3      OH2            13.3212096015       -5.5639657466      -23.7177146635  WZ1       1579            0.0000000000
      1544       515  TIP3      H1             12.5393996015       -5.7501657466      -24.2376546635  WZ1       1579            0.0000000000
      1545       515  TIP3      H2             13.2491996015       -4.6345357466      -23.5004646635  WZ1       1579            0.0000000000
      1546       516  TIP3      OH2            27.7272496015      -11.6775257466      -33.6869946635  WZ1       1580            0.0000000000
      1547       516  TIP3      H1             27.8163596015      -10.7337057466      -33.8192846635  WZ1       1580            0.0000000000
      1548       516  TIP3      H2             27.0890096015      -11.9528857466      -34.3450546635  WZ1       1580            0.0000000000
      1549       517  TIP3      OH2            26.6603796015      -12.4224557466      -30.2681746635  WZ1       1581            0.0000000000
      1550       517  TIP3      H1             26.6221296015      -13.0688257466      -29.5632146635  WZ1       1581            0.0000000000
      1551       517  TIP3      H2             26.3380296015      -12.8890157466      -31.0393046635  WZ1       1581            0.0000000000
      1552       518  TIP3      OH2            19.0288796015      -12.8082457466      -28.6751846635  WZ1       1582            0.0000000000
      1553       518  TIP3      H1             19.0700896015      -13.4339157466      -27.9519446635  WZ1       1582            0.0000000000
      1554       518  TIP3      H2             19.7316496015      -12.1843857466      -28.4931446635  WZ1       1582            0.0000000000
      1555       519  TIP3      OH2            30.3663996015       -9.4834157466      -31.9666646635  WZ1       1583            0.0000000000
      1556       519  TIP3      H1             29.9256696015      -10.2038157466      -31.5161046635  WZ1       1583            0.0000000000
      1557       519  TIP3      H2             30.3533696015       -8.7626957466      -31.3368946635  WZ1       1583            0.0000000000
      1558       520  TIP3      OH2            19.9521896015       -8.3583557466      -30.1402746635  WZ1       1584            0.0000000000
      1559       520  TIP3      H1             19.5827096015       -9.1603057466      -30.5098446635  WZ1       1584            0.0000000000
      1560       520  TIP3      H2             20.8932996015       -8.5268657466      -30.0939346635  WZ1       1584            0.0000000000
      1561       521  TIP3      OH2            16.5622396015      -14.6980957466      -34.7473946635  WZ1       1585            0.0000000000
      1562       521  TIP3      H1             16.1145796015      -13.8522257466      -34.7657446635  WZ1       1585            0.0000000000
      1563       521  TIP3      H2             16.0013596015      -15.2776757466      -35.2628846635  WZ1       1585            0.0000000000
      1564       522  TIP3      OH2            17.2728496015      -12.5361357466      -32.6215946635  WZ1       1586            0.0000000000
      1565       522  TIP3      H1             17.4861996015      -13.3059757466      -32.0942946635  WZ1       1586            0.0000000000
      1566       522  TIP3      H2             18.0106096015      -12.4464657466      -33.2248346635  WZ1       1586            0.0000000000
      1567       523  TIP3      OH2            25.0498196015       -9.9903157466      -29.8620746635  WZ1       1588            0.0000000000
      1568       523  TIP3      H1             25.3536096015      -10.6761757466      -30.4566646635  WZ1       1588            0.0000000000
      1569       523  TIP3      H2             25.7712196015       -9.8714457466      -29.2442746635  WZ1       1588            0.0000000000
      1570       524  TIP3      OH2            28.1905196015      -15.5960757466      -29.5345946635  WZ1       1590            0.0000000000
      1571       524  TIP3      H1             28.3331096015      -16.5423757466      -29.5144346635  WZ1       1590            0.0000000000
      1572       524  TIP3      H2             28.0844196015      -15.3890957466      -30.4631046635  WZ1       1590            0.0000000000
      1573       525  TIP3      OH2            21.3453496015      -17.4944357466      -32.2621146635  WZ1       1591            0.0000000000
      1574       525  TIP3      H1             21.3884596015      -16.6345857466      -32.6804846635  WZ1       1591            0.0000000000
      1575       525  TIP3      H2             20.8877596015      -18.0469657466      -32.8957946635  WZ1       1591            0.0000000000
      1576       526  TIP3      OH2            17.9654996015      -15.0978557466      -31.4999746635  WZ1       1593            0.0000000000
      1577       526  TIP3      H1             18.6191596015      -15.6476857466      -31.0679646635  WZ1       1593            0.0000000000
      1578       526  TIP3      H2             17.9894296015      -15.3719557466      -32.4167746635  WZ1       1593            0.0000000000
      1579       527  TIP3      OH2            23.1219496015      -13.5477257466      -32.2848246635  WZ1       1594            0.0000000000
      1580       527  TIP3      H1             23.7380496015      -14.0741857466      -31.7754246635  WZ1       1594            0.0000000000
      1581       527  TIP3      H2             22.5358296015      -14.1878557466      -32.6884646635  WZ1       1594            0.0000000000
      1582       528  TIP3      OH2            20.1555396015      -18.5765957466      -28.1880346635  WZ1       1596            0.0000000000
      1583       528  TIP3      H1             19.9367096015      -18.0465357466      -28.9544346635  WZ1       1596            0.0000000000
      1584       528  TIP3      H2             19.4876296015      -18.3500457466      -27.5408946635  WZ1       1596            0.0000000000
      1585       529  TIP3      OH2            22.7246796015      -10.9010257466      -27.9006646635  WZ1       1598            0.0000000000
      1586       529  TIP3      H1             21.9845896015      -10.3028757466      -27.7971446635  WZ1       1598            0.0000000000
      1587       529  TIP3      H2             23.4386296015      -10.3470657466      -28.2163046635  WZ1       1598            0.0000000000
      1588       530  TIP3      OH2            19.7492696015      -16.6844157466      -30.2358146635  WZ1       1600            0.0000000000
      1589       530  TIP3      H1             20.3628996015      -16.0516557466      -29.8625746635  WZ1       1600            0.0000000000
      1590       530  TIP3      H2             20.2613396015      -17.1569157466      -30.8921246635  WZ1       1600            0.0000000000
      1591       531  TIP3      OH2            21.1321096015       -8.9367257466      -27.1135146635  WZ1       1601            0.0000000000
      1592       531  TIP3      H1             21.1268696015       -8.0573757466      -27.4915846635  WZ1       1601            0.0000000000
      1593       531  TIP3      H2             20.2785196015       -9.0203157466      -26.6885246635  WZ1       1601            0.0000000000
      1594       532  TIP3      OH2            17.2531996015       -9.2659357466      -36.3315846635  WZ1       1602            0.0000000000
      1595       532  TIP3      H1             16.9812896015       -9.0368357466      -37.2202946635  WZ1       1602            0.0000000000
      1596       532  TIP3      H2             17.2987696015       -8.4280557466      -35.8710546635  WZ1       1602            0.0000000000
      1597       533  TIP3      OH2            30.8781696015       -7.6443457466      -29.6187346635  WZ1       1603            0.0000000000
      1598       533  TIP3      H1             29.9365396015       -7.5859557466      -29.4570446635  WZ1       1603            0.0000000000
      1599       533  TIP3      H2             31.1547796015       -6.7382957466      -29.7557646635  WZ1       1603            0.0000000000
      1600       534  TIP3      OH2            31.9759596015       -9.3954757466      -26.0075646635  WZ1       1608            0.0000000000
      1601       534  TIP3      H1             32.1155896015       -9.9872257466      -26.7468646635  WZ1       1608            0.0000000000
      1602       534  TIP3      H2             32.1432396015       -8.5228857466      -26.3636846635  WZ1       1608            0.0000000000
      1603       535  TIP3      OH2            33.8178896015      -13.0556757466      -27.9415246635  WZ1       1611            0.0000000000
      1604       535  TIP3      H1             33.1652996015      -12.3611157466      -27.8524346635  WZ1       1611            0.0000000000
      1605       535  TIP3      H2             34.2829196015      -12.8455857466      -28.7513646635  WZ1       1611            0.0000000000
      1606       536  TIP3      OH2            29.7516196015      -14.0499357466      -26.2156746635  WZ1       1613            0.0000000000
      1607       536  TIP3      H1             29.8315296015      -13.2864957466      -25.6438246635  WZ1       1613            0.0000000000
      1608       536  TIP3      H2             29.1503896015      -13.7706957466      -26.9061646635  WZ1       1613            0.0000000000
      1609       537  TIP3      OH2            21.4996396015      -11.5935757466      -33.4008746635  WZ1       1614            0.0000000000
      1610       537  TIP3      H1             21.1691596015      -11.9642357466      -34.2191746635  WZ1       1614            0.0000000000
      1611       537  TIP3      H2             22.0880496015      -12.2641757466      -33.0540446635  WZ1       1614            0.0000000000
      1612       538  TIP3      OH2            22.8663896015       -8.1655157466      -30.7196546635  WZ1       1615            0.0000000000
      1613       538  TIP3      H1             22.7715196015       -8.7442057466      -31.4761946635  WZ1       1615            0.0000000000
      1614       538  TIP3      H2             23.5957496015       -8.5369457466      -30.2233746635  WZ1       1615            0.0000000000
      1615       539  TIP3      OH2            21.8661896015      -12.8250157466      -29.7673746635  WZ1       1616            0.0000000000
      1616       539  TIP3      H1             22.4314396015      -12.7035957466      -30.5302546635  WZ1       1616            0.0000000000
      1617       539  TIP3      H2             22.1850796015      -12.1875157466      -29.1285246635  WZ1       1616            0.0000000000
      1618       540  TIP3      OH2            28.1754096015       -7.3218257466      -29.0333246635  WZ1       1617            0.0000000000
      1619       540  TIP3      H1             27.9350696015       -6.6595157466      -28.3854046635  WZ1       1617            0.0000000000
      1620       540  TIP3      H2             27.9772296015       -8.1563057466      -28.6083646635  WZ1       1617            0.0000000000
      1621       541  TIP3      OH2            22.7462596015       -8.4257457466      -25.0501846635  WZ1       1618            0.0000000000
      1622       541  TIP3      H1             22.4350096015       -7.6434257466      -24.5948646635  WZ1       1618            0.0000000000
      1623       541  TIP3      H2             22.0962796015       -8.5788357466      -25.7359846635  WZ1       1618            0.0000000000
      1624       542  TIP3      OH2            19.6662496015      -12.2276357466      -25.8216146635  WZ1       1620            0.0000000000
      1625       542  TIP3      H1             19.7365696015      -11.5769557466      -25.1231146635  WZ1       1620            0.0000000000
      1626       542  TIP3      H2             18.7754696015      -12.1248857466      -26.1565246635  WZ1       1620            0.0000000000
      1627       543  TIP3      OH2            20.9858496015       -6.3542457466      -24.2868046635  WZ1       1622            0.0000000000
      1628       543  TIP3      H1             20.9933796015       -6.4902757466      -25.2342546635  WZ1       1622            0.0000000000
      1629       543  TIP3      H2             20.0698896015       -6.4714357466      -24.0348046635  WZ1       1622            0.0000000000
      1630       544  TIP3      OH2            20.4899096015      -12.5241457466      -35.8115946635  WZ1       1624            0.0000000000
      1631       544  TIP3      H1             20.1980396015      -11.7559757466      -36.3024646635  WZ1       1624            0.0000000000
      1632       544  TIP3      H2             19.8154296015      -13.1835257466      -35.9744546635  WZ1       1624            0.0000000000
      1633       545  TIP3      OH2            16.5829196015      -10.1612257466      -26.9966146635  WZ1       1626            0.0000000000
      1634       545  TIP3      H1             16.0817596015      -10.1892857466      -27.8116446635  WZ1       1626            0.0000000000
      1635       545  TIP3      H2             16.5882896015      -11.0669057466      -26.6868846635  WZ1       1626            0.0000000000
      1636       546  TIP3      OH2            16.3331896015       -7.3808457466      -30.1125946635  WZ1       1627            0.0000000000
      1637       546  TIP3      H1             17.2792496015       -7.5251457466      -30.1316446635  WZ1       1627            0.0000000000
      1638       546  TIP3      H2             16.2208196015       -6.5965657466      -29.5754746635  WZ1       1627            0.0000000000
      1639       547  TIP3      OH2            34.5310396015       -6.7148757466      -24.4302246635  WZ1       1628            0.0000000000
      1640       547  TIP3      H1             34.4817196015       -7.6700657466      -24.4674646635  WZ1       1628            0.0000000000
      1641       547  TIP3      H2             33.7042696015       -6.4473457466      -24.0288446635  WZ1       1628            0.0000000000
      1642       548  TIP3      OH2            25.5094396015       -7.1409557466      -25.5540846635  WZ1       1629            0.0000000000
      1643       548  TIP3      H1             25.5968996015       -6.3144957466      -25.0791746635  WZ1       1629            0.0000000000
      1644       548  TIP3      H2             24.6459496015       -7.4705757466      -25.3051546635  WZ1       1629            0.0000000000
      1645       549  TIP3      OH2            19.5773996015       -4.5798857466      -33.9671246635  WZ1       1631            0.0000000000
      1646       549  TIP3      H1             19.7294396015       -4.9278457466      -33.0884746635  WZ1       1631            0.0000000000
      1647       549  TIP3      H2             18.7264396015       -4.9361557466      -34.2224046635  WZ1       1631            0.0000000000
      1648       550  TIP3      OH2            31.6830196015      -15.2216257466      -23.9500046635  WZ1       1634            0.0000000000
      1649       550  TIP3      H1             31.2756996015      -14.7410657466      -24.6706746635  WZ1       1634            0.0000000000
      1650       550  TIP3      H2             31.7235896015      -16.1270257466      -24.2579246635  WZ1       1634            0.0000000000
      1651       551  TIP3      OH2            18.8319696015       -8.8376857466      -25.9533346635  WZ1       1635            0.0000000000
      1652       551  TIP3      H1             19.0480996015       -9.1991257466      -25.0937546635  WZ1       1635            0.0000000000
      1653       551  TIP3      H2             17.9764396015       -9.2123057466      -26.1629846635  WZ1       1635            0.0000000000
      1654       552  TIP3      OH2            21.4507696015      -20.3676357466      -29.9579146635  WZ1       1636            0.0000000000
      1655       552  TIP3      H1             20.5891396015      -20.4548157466      -30.3656246635  WZ1       1636            0.0000000000
      1656       552  TIP3      H2             21.4283396015      -19.5116257466      -29.5301546635  WZ1       1636            0.0000000000
      1657       553  TIP3      OH2            26.1135496015      -20.6455957466      -26.5832146635  WZ1       1637            0.0000000000
      1658       553  TIP3      H1             26.5338596015      -21.0608857466      -25.8301546635  WZ1       1637            0.0000000000
      1659       553  TIP3      H2             25.1805096015      -20.8242657466      -26.4660146635  WZ1       1637            0.0000000000
      1660       554  TIP3      OH2            29.4400396015      -16.8900757466      -25.7297646635  WZ1       1638            0.0000000000
      1661       554  TIP3      H1             28.9259896015      -17.0158557466      -24.9321646635  WZ1       1638            0.0000000000
      1662       554  TIP3      H2             29.2845096015      -15.9777657466      -25.9741446635  WZ1       1638            0.0000000000
      1663       555  TIP3      OH2            21.5417796015      -15.4021857466      -28.8628946635  WZ1       1641            0.0000000000
      1664       555  TIP3      H1             20.8999896015      -15.4424557466      -28.1538846635  WZ1       1641            0.0000000000
      1665       555  TIP3      H2             21.5789796015      -14.4757157466      -29.1005946635  WZ1       1641            0.0000000000
      1666       556  TIP3      OH2            21.5386896015      -15.1811757466      -33.9508946635  WZ1       1642            0.0000000000
      1667       556  TIP3      H1             20.6459796015      -15.5215657466      -34.0095146635  WZ1       1642            0.0000000000
      1668       556  TIP3      H2             21.9893496015      -15.5580857466      -34.7065746635  WZ1       1642            0.0000000000
      1669       557  TIP3      OH2            26.1763996015      -14.5895057466      -23.6457446635  WZ1       1644            0.0000000000
      1670       557  TIP3      H1             25.6137796015      -15.2943457466      -23.3249646635  WZ1       1644            0.0000000000
      1671       557  TIP3      H2             27.0027396015      -14.7103157466      -23.1779846635  WZ1       1644            0.0000000000
      1672       558  TIP3      OH2            19.2918296015      -15.0818357466      -26.9956946635  WZ1       1646            0.0000000000
      1673       558  TIP3      H1             19.2537696015      -14.6816757466      -26.1269846635  WZ1       1646            0.0000000000
      1674       558  TIP3      H2             18.8009396015      -15.8985957466      -26.9054046635  WZ1       1646            0.0000000000
      1675       559  TIP3      OH2            15.8999096015      -17.9656557466      -33.1452246635  WZ1       1648            0.0000000000
      1676       559  TIP3      H1             16.5306796015      -17.9944457466      -32.4258346635  WZ1       1648            0.0000000000
      1677       559  TIP3      H2             16.3493396015      -18.3907857466      -33.8756346635  WZ1       1648            0.0000000000
      1678       560  TIP3      OH2            27.3429296015      -13.6809757466      -27.6486046635  WZ1       1650            0.0000000000
      1679       560  TIP3      H1             27.6664096015      -14.3120057466      -28.2915546635  WZ1       1650            0.0000000000
      1680       560  TIP3      H2             26.9028596015      -14.2157557466      -26.9878646635  WZ1       1650            0.0000000000
      1681       561  TIP3      OH2            18.9485596015      -16.1247957466      -34.0377246635  WZ1       1652            0.0000000000
      1682       561  TIP3      H1             18.0593596015      -16.0252457466      -34.3777646635  WZ1       1652            0.0000000000
      1683       561  TIP3      H2             19.2450496015      -16.9664957466      -34.3839346635  WZ1       1652            0.0000000000
      1684       562  TIP3      OH2            31.8129196015       -2.8472557466      -23.3235446635  WZ1       1656            0.0000000000
      1685       562  TIP3      H1             32.0127896015       -2.4230657466      -24.1580146635  WZ1       1656            0.0000000000
      1686       562  TIP3      H2             32.4682896015       -2.5034357466      -22.7165046635  WZ1       1656            0.0000000000
      1687       563  TIP3      OH2            19.4108996015      -10.3731257466      -23.7154946635  WZ1       1657            0.0000000000
      1688       563  TIP3      H1             20.1431396015      -10.1185357466      -23.1540446635  WZ1       1657            0.0000000000
      1689       563  TIP3      H2             18.6307696015      -10.1685857466      -23.1999546635  WZ1       1657            0.0000000000
      1690       564  TIP3      OH2            25.4401896015      -14.9661257466      -30.9775246635  WZ1       1658            0.0000000000
      1691       564  TIP3      H1             26.0045296015      -15.5124657466      -31.5245646635  WZ1       1658            0.0000000000
      1692       564  TIP3      H2             25.2925296015      -15.4879357466      -30.1887646635  WZ1       1658            0.0000000000
      1693       565  TIP3      OH2            24.0667796015      -16.5775157466      -28.5634846635  WZ1       1660            0.0000000000
      1694       565  TIP3      H1             23.2313096015      -16.1235657466      -28.4532446635  WZ1       1660            0.0000000000
      1695       565  TIP3      H2             24.5908396015      -16.3016657466      -27.8114946635  WZ1       1660            0.0000000000
      1696       566  TIP3      OH2            31.7609296015      -11.2319257466      -28.0920846635  WZ1       1662            0.0000000000
      1697       566  TIP3      H1             32.4028096015      -10.7752957466      -28.6358646635  WZ1       1662            0.0000000000
      1698       566  TIP3      H2             30.9306196015      -11.1186857466      -28.5546746635  WZ1       1662            0.0000000000
      1699       567  TIP3      OH2            26.1302496015      -10.1804157466      -25.6419346635  WZ1       1664            0.0000000000
      1700       567  TIP3      H1             25.7848596015      -10.5621757466      -24.8349746635  WZ1       1664            0.0000000000
      1701       567  TIP3      H2             25.9302596015       -9.2470557466      -25.5706446635  WZ1       1664            0.0000000000
      1702       568  TIP3      OH2            19.7358696015      -11.0697457466      -31.1090546635  WZ1       1666            0.0000000000
      1703       568  TIP3      H1             20.4805896015      -11.0721757466      -31.7104046635  WZ1       1666            0.0000000000
      1704       568  TIP3      H2             19.8135296015      -11.8933657466      -30.6275446635  WZ1       1666            0.0000000000
      1705       569  TIP3      OH2            16.7438396015      -12.6090557466      -25.7942046635  WZ1       1668            0.0000000000
      1706       569  TIP3      H1             16.9666996015      -13.0270957466      -24.9624546635  WZ1       1668            0.0000000000
      1707       569  TIP3      H2             16.1418496015      -13.2215557466      -26.2169246635  WZ1       1668            0.0000000000
      1708       570  TIP3      OH2            23.7603296015      -13.0920657466      -23.5812346635  WZ1       1669            0.0000000000
      1709       570  TIP3      H1             23.4644096015      -13.2577657466      -24.4763246635  WZ1       1669            0.0000000000
      1710       570  TIP3      H2             24.6918496015      -13.3120357466      -23.5918446635  WZ1       1669            0.0000000000
      1711       571  TIP3      OH2            28.3806096015       -7.7188657466      -25.6914346635  WZ1       1670            0.0000000000
      1712       571  TIP3      H1             27.4800396015       -7.5356057466      -25.9590446635  WZ1       1670            0.0000000000
      1713       571  TIP3      H2             28.4147196015       -7.4599357466      -24.7705546635  WZ1       1670            0.0000000000
      1714       572  TIP3      OH2            34.0751396015       -9.6739057466      -24.4870246635  WZ1       1672            0.0000000000
      1715       572  TIP3      H1             33.2239896015       -9.4355257466      -24.8543846635  WZ1       1672            0.0000000000
      1716       572  TIP3      H2             34.6654796015       -9.6905857466      -25.2403146635  WZ1       1672            0.0000000000
      1717       573  TIP3      OH2            29.5674996015      -11.8800857466      -29.8377746635  WZ1       1674            0.0000000000
      1718       573  TIP3      H1             28.6391896015      -12.1118957466      -29.8648446635  WZ1       1674            0.0000000000
      1719       573  TIP3      H2             30.0186096015      -12.6571057466      -30.1678946635  WZ1       1674            0.0000000000
      1720       574  TIP3      OH2            22.1108096015       -7.5519257466      -33.7049046635  WZ1       1675            0.0000000000
      1721       574  TIP3      H1             22.6380296015       -6.7784857466      -33.9050246635  WZ1       1675            0.0000000000
      1722       574  TIP3      H2             21.2306596015       -7.3270057466      -34.0065046635  WZ1       1675            0.0000000000
      1723       575  TIP3      OH2            17.8655796015      -12.6895157466      -39.1176646635  WZ1       1676            0.0000000000
      1724       575  TIP3      H1             18.4815696015      -12.0627957466      -38.7381846635  WZ1       1676            0.0000000000
      1725       575  TIP3      H2             17.0038396015      -12.3735357466      -38.8460146635  WZ1       1676            0.0000000000
      1726       576  TIP3      OH2            23.5380396015       -9.8889357466      -34.1284746635  WZ1       1677            0.0000000000
      1727       576  TIP3      H1             23.2970396015       -8.9634957466      -34.0869446635  WZ1       1677            0.0000000000
      1728       576  TIP3      H2             22.7973996015      -10.3478057466      -33.7320846635  WZ1       1677            0.0000000000
      1729       577  TIP3      OH2            24.0526996015       -5.7395757466      -27.8133646635  WZ1       1678            0.0000000000
      1730       577  TIP3      H1             24.4151696015       -4.8850157466      -28.0469246635  WZ1       1678            0.0000000000
      1731       577  TIP3      H2             24.5842196015       -6.0314157466      -27.0727346635  WZ1       1678            0.0000000000
      1732       578  TIP3      OH2            22.2211196015       -4.8671757466      -34.5832546635  WZ1       1679            0.0000000000
      1733       578  TIP3      H1             21.2711696015       -4.7614357466      -34.5319246635  WZ1       1679            0.0000000000
      1734       578  TIP3      H2             22.5729296015       -4.0464357466      -34.2385046635  WZ1       1679            0.0000000000
      1735       579  TIP3      OH2            27.5967796015       -9.6405057466      -28.1128046635  WZ1       1680            0.0000000000
      1736       579  TIP3      H1             27.1709096015       -9.8683357466      -27.2864046635  WZ1       1680            0.0000000000
      1737       579  TIP3      H2             28.1773596015      -10.3793257466      -28.2952746635  WZ1       1680            0.0000000000
      1738       580  TIP3      OH2            30.2551996015       -5.0885557466      -25.6433246635  WZ1       1682            0.0000000000
      1739       580  TIP3      H1             29.6535196015       -5.6442657466      -26.1386946635  WZ1       1682            0.0000000000
      1740       580  TIP3      H2             30.5365696015       -4.4215757466      -26.2695846635  WZ1       1682            0.0000000000
      1741       581  TIP3      OH2            18.3777896015      -17.8557857466      -26.2360646635  WZ1       1684            0.0000000000
      1742       581  TIP3      H1             17.4850196015      -17.5172457466      -26.3036646635  WZ1       1684            0.0000000000
      1743       581  TIP3      H2             18.2790696015      -18.7111757466      -25.8179846635  WZ1       1684            0.0000000000
      1744       582  TIP3      OH2            18.0289896015       -6.0513457466      -27.8011246635  WZ1       1686            0.0000000000
      1745       582  TIP3      H1             18.2460196015       -6.9831057466      -27.8321546635  WZ1       1686            0.0000000000
      1746       582  TIP3      H2             18.2753396015       -5.7768457466      -26.9178446635  WZ1       1686            0.0000000000
      1747       583  TIP3      OH2            19.2806196015      -10.7771357466      -37.6251046635  WZ1       1689            0.0000000000
      1748       583  TIP3      H1             18.5945496015      -10.4248857466      -37.0581346635  WZ1       1689            0.0000000000
      1749       583  TIP3      H2             19.8034096015      -10.0141757466      -37.8716746635  WZ1       1689            0.0000000000
      1750       584  TIP3      OH2            27.1121296015      -18.1147557466      -27.3462046635  WZ1       1690            0.0000000000
      1751       584  TIP3      H1             27.8109196015      -18.0408857466      -26.6962346635  WZ1       1690            0.0000000000
      1752       584  TIP3      H2             26.7312696015      -18.9792557466      -27.1919146635  WZ1       1690            0.0000000000
      1753       585  TIP3      OH2            25.6322496015      -15.7484357466      -26.2294746635  WZ1       1694            0.0000000000
      1754       585  TIP3      H1             25.7512796015      -15.1748957466      -25.4724346635  WZ1       1694            0.0000000000
      1755       585  TIP3      H2             26.2877096015      -16.4364957466      -26.1146946635  WZ1       1694            0.0000000000
      1756       586  TIP3      OH2            31.8368296015      -17.8414057466      -25.3945046635  WZ1       1698            0.0000000000
      1757       586  TIP3      H1             30.9204096015      -17.5792357466      -25.4821346635  WZ1       1698            0.0000000000
      1758       586  TIP3      H2             32.1723296015      -17.8445057466      -26.2909746635  WZ1       1698            0.0000000000
      1759       587  TIP3      OH2            30.4389296015      -14.0913057466      -31.2987746635  WZ1       1699            0.0000000000
      1760       587  TIP3      H1             29.6413696015      -14.5062857466      -31.6272746635  WZ1       1699            0.0000000000
      1761       587  TIP3      H2             30.8840396015      -14.7819357466      -30.8077246635  WZ1       1699            0.0000000000
      1762       588  TIP3      OH2            19.0206296015      -20.7172857466      -30.9392846635  WZ1       1703            0.0000000000
      1763       588  TIP3      H1             18.7916096015      -20.6580357466      -31.8667846635  WZ1       1703            0.0000000000
      1764       588  TIP3      H2             18.5779696015      -21.5087357466      -30.6328746635  WZ1       1703            0.0000000000
      1765       589  TIP3      OH2            17.9509596015       -6.7765757466      -34.7787046635  WZ1       1704            0.0000000000
      1766       589  TIP3      H1             17.1188196015       -6.3043057466      -34.7515646635  WZ1       1704            0.0000000000
      1767       589  TIP3      H2             18.4967896015       -6.2668157466      -35.3773946635  WZ1       1704            0.0000000000
      1768       590  TIP3      OH2            17.2393296015       -4.1642057466      -23.4489046635  WZ1       1705            0.0000000000
      1769       590  TIP3      H1             17.7795496015       -4.3808057466      -22.6889846635  WZ1       1705            0.0000000000
      1770       590  TIP3      H2             16.7581296015       -4.9696057466      -23.6386546635  WZ1       1705            0.0000000000
      1771       591  TIP3      OH2            21.8366696015       -5.2447657466      -21.8284846635  WZ1       1706            0.0000000000
      1772       591  TIP3      H1             22.6043896015       -5.7036857466      -21.4875646635  WZ1       1706            0.0000000000
      1773       591  TIP3      H2             21.8152896015       -5.4707857466      -22.7583646635  WZ1       1706            0.0000000000
      1774       592  TIP3      OH2            28.4135396015       -6.8646557466      -23.0993346635  WZ1       1708            0.0000000000
      1775       592  TIP3      H1             28.0624896015       -7.7213557466      -22.8562946635  WZ1       1708            0.0000000000
      1776       592  TIP3      H2             29.1398596015       -6.7219857466      -22.4924346635  WZ1       1708            0.0000000000
      1777       593  TIP3      OH2            17.1462796015      -10.3537957466      -22.4944746635  WZ1       1710            0.0000000000
      1778       593  TIP3      H1             17.2903296015      -11.2557257466      -22.7808046635  WZ1       1710            0.0000000000
      1779       593  TIP3      H2             16.3740196015      -10.0675857466      -22.9822446635  WZ1       1710            0.0000000000
      1780       594  TIP3      OH2            23.8018896015      -10.3839857466      -23.0618346635  WZ1       1712            0.0000000000
      1781       594  TIP3      H1             23.4732696015      -10.1131757466      -23.9190946635  WZ1       1712            0.0000000000
      1782       594  TIP3      H2             23.9537096015      -11.3250057466      -23.1493346635  WZ1       1712            0.0000000000
      1783       595  TIP3      OH2            29.5364096015      -10.4682557466      -25.6786046635  WZ1       1714            0.0000000000
      1784       595  TIP3      H1             30.2818896015       -9.8798857466      -25.7982046635  WZ1       1714            0.0000000000
      1785       595  TIP3      H2             28.7790896015       -9.8862857466      -25.6152946635  WZ1       1714            0.0000000000
      1786       596  TIP3      OH2            17.9789296015      -13.1534657466      -23.0745446635  WZ1       1715            0.0000000000
      1787       596  TIP3      H1             18.3870496015      -14.0108057466      -23.1954846635  WZ1       1715            0.0000000000
      1788       596  TIP3      H2             17.7186896015      -13.1393357466      -22.1535146635  WZ1       1715            0.0000000000
      1789       597  TIP3      OH2            21.9259596015      -14.1448957466      -25.7002546635  WZ1       1717            0.0000000000
      1790       597  TIP3      H1             21.3075696015      -13.4702357466      -25.4197846635  WZ1       1717            0.0000000000
      1791       597  TIP3      H2             22.2700796015      -13.8235057466      -26.5336346635  WZ1       1717            0.0000000000
      1792       598  TIP3      OH2            26.9457796015      -11.6733657466      -22.4227746635  WZ1       1719            0.0000000000
      1793       598  TIP3      H1             27.8988996015      -11.5894557466      -22.4501746635  WZ1       1719            0.0000000000
      1794       598  TIP3      H2             26.7852396015      -12.3851857466      -21.8032846635  WZ1       1719            0.0000000000
      1795       599  TIP3      OH2            22.2653296015      -16.7898157466      -24.6179446635  WZ1       1721            0.0000000000
      1796       599  TIP3      H1             22.4154196015      -17.5186857466      -25.2199746635  WZ1       1721            0.0000000000
      1797       599  TIP3      H2             22.2675696015      -16.0126457466      -25.1767246635  WZ1       1721            0.0000000000
      1798       600  TIP3      OH2            22.6778996015      -18.4202357466      -27.1252046635  WZ1       1722            0.0000000000
      1799       600  TIP3      H1             23.2136496015      -17.9685657466      -27.7772746635  WZ1       1722            0.0000000000
      1800       600  TIP3      H2             21.8258596015      -18.5282557466      -27.5477946635  WZ1       1722            0.0000000000
      1801       601  TIP3      OH2            24.2597396015      -12.9806157466      -26.8856846635  WZ1       1723            0.0000000000
      1802       601  TIP3      H1             25.0102196015      -13.1368657466      -27.4589046635  WZ1       1723            0.0000000000
      1803       601  TIP3      H2             23.9205696015      -12.1289557466      -27.1611346635  WZ1       1723            0.0000000000
      1804       602  TIP3      OH2            28.6753596015      -15.1654357466      -21.8571546635  WZ1       1724            0.0000000000
      1805       602  TIP3      H1             28.8674896015      -16.0964957466      -21.9687046635  WZ1       1724            0.0000000000
      1806       602  TIP3      H2             29.5329896015      -14.7404857466      -21.8676146635  WZ1       1724            0.0000000000
      1807       603  TIP3      OH2            29.9920796015      -12.3769157466      -23.7798846635  WZ1       1725            0.0000000000
      1808       603  TIP3      H1             29.7105796015      -11.6674557466      -24.3575046635  WZ1       1725            0.0000000000
      1809       603  TIP3      H2             30.9345096015      -12.4496157466      -23.9307646635  WZ1       1725            0.0000000000
      1810       604  TIP3      OH2            20.7439596015      -15.5914657466      -22.7063846635  WZ1       1726            0.0000000000
      1811       604  TIP3      H1             19.9768596015      -16.1239857466      -22.9166246635  WZ1       1726            0.0000000000
      1812       604  TIP3      H2             21.4228596015      -15.9014257466      -23.3057546635  WZ1       1726            0.0000000000
      1813       605  TIP3      OH2            23.4834496015      -20.9636657466      -26.6938446635  WZ1       1727            0.0000000000
      1814       605  TIP3      H1             23.3854096015      -20.0173457466      -26.7992246635  WZ1       1727            0.0000000000
      1815       605  TIP3      H2             22.7410696015      -21.3362857466      -27.1694946635  WZ1       1727            0.0000000000
      1816       606  TIP3      OH2            24.7474996015      -16.6421257466      -23.1300046635  WZ1       1728            0.0000000000
      1817       606  TIP3      H1             24.5120396015      -16.8614557466      -22.2285146635  WZ1       1728            0.0000000000
      1818       606  TIP3      H2             23.9641896015      -16.8490057466      -23.6397546635  WZ1       1728            0.0000000000
      1819       607  TIP3      OH2            27.4631596015      -17.5147757466      -24.0546546635  WZ1       1729            0.0000000000
      1820       607  TIP3      H1             26.5156996015      -17.4828057466      -23.9223246635  WZ1       1729            0.0000000000
      1821       607  TIP3      H2             27.7758296015      -18.1400657466      -23.4008346635  WZ1       1729            0.0000000000
      1822       608  TIP3      OH2            29.0973096015      -18.8806657466      -22.0494646635  WZ1       1730            0.0000000000
      1823       608  TIP3      H1             29.0004896015      -19.8329357466      -22.0552746635  WZ1       1730            0.0000000000
      1824       608  TIP3      H2             28.7756196015      -18.6119857466      -21.1889146635  WZ1       1730            0.0000000000
      1825       609  TIP3      OH2            18.9242396015      -17.6710857466      -23.0019146635  WZ1       1731            0.0000000000
      1826       609  TIP3      H1             19.1359796015      -18.3774757466      -23.6121646635  WZ1       1731            0.0000000000
      1827       609  TIP3      H2             18.8129896015      -18.1084857466      -22.1577946635  WZ1       1731            0.0000000000
      1828       610  TIP3      OH2            23.7052596015      -21.6699257466      -24.0225646635  WZ1       1732            0.0000000000
      1829       610  TIP3      H1             24.4170996015      -22.3097057466      -24.0366546635  WZ1       1732            0.0000000000
      1830       610  TIP3      H2             23.6042996015      -21.4030957466      -24.9362546635  WZ1       1732            0.0000000000
      1831       611  TIP3      OH2            24.0590096015      -19.9870857466      -21.9689346635  WZ1       1733            0.0000000000
      1832       611  TIP3      H1             23.9272296015      -20.4627057466      -22.7890846635  WZ1       1733            0.0000000000
      1833       611  TIP3      H2             23.4597496015      -19.2427257466      -22.0242246635  WZ1       1733            0.0000000000
      1834       612  TIP3      OH2            15.8227896015       -3.0748257466      -34.2323346635  WZ1       1736            0.0000000000
      1835       612  TIP3      H1             15.1754996015       -3.5366557466      -34.7652146635  WZ1       1736            0.0000000000
      1836       612  TIP3      H2             16.1772496015       -3.7464957466      -33.6497146635  WZ1       1736            0.0000000000
      1837       613  TIP3      OH2            16.6927096015       -4.9941257466      -32.4277146635  WZ1       1737            0.0000000000
      1838       613  TIP3      H1             16.3583896015       -5.8743957466      -32.2556946635  WZ1       1737            0.0000000000
      1839       613  TIP3      H2             16.9149496015       -4.6486257466      -31.5631546635  WZ1       1737            0.0000000000
      1840       614  TIP3      OH2            33.8044796015       -4.6173757466      -26.5253246635  WZ1       1739            0.0000000000
      1841       614  TIP3      H1             33.3173496015       -5.3529657466      -26.8965846635  WZ1       1739            0.0000000000
      1842       614  TIP3      H2             34.3537496015       -5.0109857466      -25.8473846635  WZ1       1739            0.0000000000
      1843       615  TIP3      OH2            32.2552096015       -8.8275657466      -21.8872946635  WZ1       1740            0.0000000000
      1844       615  TIP3      H1             31.3893196015       -8.9325957466      -21.4930646635  WZ1       1740            0.0000000000
      1845       615  TIP3      H2             32.6317996015       -8.0692357466      -21.4408246635  WZ1       1740            0.0000000000
      1846       616  TIP3      OH2            32.1960896015       -6.8549557466      -27.2948746635  WZ1       1744            0.0000000000
      1847       616  TIP3      H1             31.5486196015       -6.5298057466      -26.6693546635  WZ1       1744            0.0000000000
      1848       616  TIP3      H2             31.6784896015       -7.2951857466      -27.9690446635  WZ1       1744            0.0000000000
      1849       617  TIP3      OH2            16.7726596015      -11.9185857466      -29.9762246635  WZ1       1748            0.0000000000
      1850       617  TIP3      H1             16.9569496015      -12.0004157466      -30.9119346635  WZ1       1748            0.0000000000
      1851       617  TIP3      H2             17.6219496015      -12.0428857466      -29.5525846635  WZ1       1748            0.0000000000
      1852       618  TIP3      OH2            32.5937096015      -12.0264757466      -24.3477746635  WZ1       1749            0.0000000000
      1853       618  TIP3      H1             33.1764396015      -12.7612457466      -24.1560546635  WZ1       1749            0.0000000000
      1854       618  TIP3      H2             33.1576396015      -11.2544457466      -24.3011946635  WZ1       1749            0.0000000000
      1855       619  TIP3      OH2            34.0904196015      -14.1238957466      -23.6632346635  WZ1       1750            0.0000000000
      1856       619  TIP3      H1             33.2270896015      -14.5026857466      -23.8287646635  WZ1       1750            0.0000000000
      1857       619  TIP3      H2             34.6947896015      -14.8624157466      -23.7376546635  WZ1       1750            0.0000000000
      1858       620  TIP3      OH2            32.0889196015      -15.0959557466      -27.3122646635  WZ1       1754            0.0000000000
      1859       620  TIP3      H1             31.2460496015      -14.8279157466      -26.9462846635  WZ1       1754            0.0000000000
      1860       620  TIP3      H2             32.5313496015      -14.2737657466      -27.5231546635  WZ1       1754            0.0000000000
      1861       621  TIP3      OH2            16.3701396015      -16.6480857466      -23.8353446635  WZ1       1755            0.0000000000
      1862       621  TIP3      H1             17.2896296015      -16.7702557466      -23.5990346635  WZ1       1755            0.0000000000
      1863       621  TIP3      H2             15.9205896015      -17.3981157466      -23.4459946635  WZ1       1755            0.0000000000
      1864       622  TIP3      OH2            17.5913896015      -18.3359257466      -30.9440546635  WZ1       1758            0.0000000000
      1865       622  TIP3      H1             18.0365496015      -19.1276757466      -30.6420846635  WZ1       1758            0.0000000000
      1866       622  TIP3      H2             18.0576896015      -17.6194057466      -30.5134946635  WZ1       1758            0.0000000000
      1867       623  TIP3      OH2            15.8954196015      -15.3366257466      -29.8750346635  WZ1       1759            0.0000000000
      1868       623  TIP3      H1             16.3873996015      -15.5575757466      -30.6658346635  WZ1       1759            0.0000000000
      1869       623  TIP3      H2             16.2575096015      -14.4962857466      -29.5940846635  WZ1       1759            0.0000000000
      1870       624  TIP3      OH2            16.1726096015      -20.3408157466      -27.4765446635  WZ1       1764            0.0000000000
      1871       624  TIP3      H1             15.5076596015      -20.5867857466      -26.8334546635  WZ1       1764            0.0000000000
      1872       624  TIP3      H2             15.7297396015      -19.7187757466      -28.0537446635  WZ1       1764            0.0000000000
      1873       625  TIP3      OH2            18.3645396015       -7.1654057466      -23.3319646635  WZ1       1765            0.0000000000
      1874       625  TIP3      H1             17.5437896015       -6.9907557466      -23.7924946635  WZ1       1765            0.0000000000
      1875       625  TIP3      H2             18.1123196015       -7.2389357466      -22.4115246635  WZ1       1765            0.0000000000
      1876       626  TIP3      OH2            21.3188296015       -6.1912857466      -27.0735646635  WZ1       1766            0.0000000000
      1877       626  TIP3      H1             20.8939396015       -5.3814357466      -27.3561046635  WZ1       1766            0.0000000000
      1878       626  TIP3      H2             22.2231096015       -6.1058757466      -27.3755846635  WZ1       1766            0.0000000000
      1879       627  TIP3      OH2            25.6299696015       -4.7922857466      -24.1141946635  WZ1       1767            0.0000000000
      1880       627  TIP3      H1             25.8147196015       -5.1256757466      -23.2361646635  WZ1       1767            0.0000000000
      1881       627  TIP3      H2             26.4764196015       -4.4824257466      -24.4362746635  WZ1       1767            0.0000000000
      1882       628  TIP3      OH2            27.9750096015       -3.5063957466      -24.8700546635  WZ1       1768            0.0000000000
      1883       628  TIP3      H1             28.6518996015       -4.1391657466      -25.1101346635  WZ1       1768            0.0000000000
      1884       628  TIP3      H2             28.2968896015       -3.1053457466      -24.0627246635  WZ1       1768            0.0000000000
      1885       629  TIP3      OH2            18.7204996015       -2.9348957466      -27.0260346635  WZ1       1770            0.0000000000
      1886       629  TIP3      H1             18.0001396015       -2.4947957466      -27.4772646635  WZ1       1770            0.0000000000
      1887       629  TIP3      H2             18.3548996015       -3.1854257466      -26.1776346635  WZ1       1770            0.0000000000
      1888       630  TIP3      OH2            21.1877596015       -3.3345057466      -27.9963146635  WZ1       1771            0.0000000000
      1889       630  TIP3      H1             20.3229796015       -3.2626557466      -27.5923046635  WZ1       1771            0.0000000000
      1890       630  TIP3      H2             21.1326596015       -2.7877757466      -28.7800646635  WZ1       1771            0.0000000000
      1891       631  TIP3      OH2            25.8983196015       -3.4466157466      -28.8207146635  WZ1       1772            0.0000000000
      1892       631  TIP3      H1             25.4417196015       -2.9176457466      -29.4748746635  WZ1       1772            0.0000000000
      1893       631  TIP3      H2             26.0611196015       -2.8434757466      -28.0954846635  WZ1       1772            0.0000000000
      1894       632  TIP3      OH2            28.2259496015       -4.5686557466      -27.8756846635  WZ1       1773            0.0000000000
      1895       632  TIP3      H1             27.3213196015       -4.4036357466      -28.1414746635  WZ1       1773            0.0000000000
      1896       632  TIP3      H2             28.6548096015       -3.7154357466      -27.9413446635  WZ1       1773            0.0000000000
      1897       633  TIP3      OH2            30.8301396015       -2.9987457466      -27.5809046635  WZ1       1774            0.0000000000
      1898       633  TIP3      H1             30.6483396015       -2.0828557466      -27.7914146635  WZ1       1774            0.0000000000
      1899       633  TIP3      H2             31.0069196015       -3.4090357466      -28.4274446635  WZ1       1774            0.0000000000
      1900       634  TIP3      OH2            18.1353096015       -4.3116457466      -30.1158546635  WZ1       1775            0.0000000000
      1901       634  TIP3      H1             18.1169096015       -4.7371357466      -29.2586246635  WZ1       1775            0.0000000000
      1902       634  TIP3      H2             18.9400996015       -4.6301457466      -30.5246346635  WZ1       1775            0.0000000000
      1903       635  TIP3      OH2            20.2766196015       -5.6017757466      -31.4608646635  WZ1       1776            0.0000000000
      1904       635  TIP3      H1             20.0576896015       -6.5180357466      -31.2912646635  WZ1       1776            0.0000000000
      1905       635  TIP3      H2             21.1008396015       -5.4617357466      -30.9947246635  WZ1       1776            0.0000000000
      1906       636  TIP3      OH2            22.8138696015       -5.1318457466      -30.6120646635  WZ1       1777            0.0000000000
      1907       636  TIP3      H1             23.0264396015       -6.0199457466      -30.8989746635  WZ1       1777            0.0000000000
      1908       636  TIP3      H2             22.8783796015       -5.1660757466      -29.6576646635  WZ1       1777            0.0000000000
      1909       637  TIP3      OH2            17.3862796015       -5.0877257466      -36.9446246635  WZ1       1786            0.0000000000
      1910       637  TIP3      H1             16.7012696015       -5.1258357466      -37.6121146635  WZ1       1786            0.0000000000
      1911       637  TIP3      H2             17.3899996015       -4.1749657466      -36.6564146635  WZ1       1786            0.0000000000
      1912       638  TIP3      OH2            18.6067896015      -20.3195657466      -24.1281246635  WZ1       1791            0.0000000000
      1913       638  TIP3      H1             18.2406096015      -21.0853057466      -23.6856546635  WZ1       1791            0.0000000000
      1914       638  TIP3      H2             19.5196396015      -20.2905457466      -23.8416146635  WZ1       1791            0.0000000000
      1915       639  TIP3      OH2            20.5798696015      -20.9691257466      -22.5924146635  WZ1       1792            0.0000000000
      1916       639  TIP3      H1             21.4782296015      -21.2431057466      -22.7770746635  WZ1       1792            0.0000000000
      1917       639  TIP3      H2             20.1931796015      -21.7115257466      -22.1281546635  WZ1       1792            0.0000000000
      1918       640  TIP3      OH2            29.0010996015      -21.6365957466      -22.4101346635  WZ1       1794            0.0000000000
      1919       640  TIP3      H1             29.0778196015      -22.0625257466      -21.5563646635  WZ1       1794            0.0000000000
      1920       640  TIP3      H2             29.8947596015      -21.6231257466      -22.7527846635  WZ1       1794            0.0000000000
      1921       641  TIP3      OH2            32.1772096015       -5.5639657466      -23.7177146635  WZ1       1795            0.0000000000
      1922       641  TIP3      H1             31.3953996015       -5.7501657466      -24.2376546635  WZ1       1795            0.0000000000
      1923       641  TIP3      H2             32.1051996015       -4.6345357466      -23.5004646635  WZ1       1795            0.0000000000
      1924       642  TIP3      OH2            35.4389196015      -10.1612257466      -26.9966146635  WZ1       1810            0.0000000000
      1925       642  TIP3      H1             34.9377596015      -10.1892857466      -27.8116446635  WZ1       1810            0.0000000000
      1926       642  TIP3      H2             35.4442896015      -11.0669057466      -26.6868846635  WZ1       1810            0.0000000000
      1927       643  TIP3      OH2            36.0953296015       -4.1642057466      -23.4489046635  WZ1       1835            0.0000000000
      1928       643  TIP3      H1             36.6355496015       -4.3808057466      -22.6889846635  WZ1       1835            0.0000000000
      1929       643  TIP3      H2             35.6141296015       -4.9696057466      -23.6386546635  WZ1       1835            0.0000000000
      1930       644  TIP3      OH2            37.2205396015       -7.1654057466      -23.3319646635  WZ1       1850            0.0000000000
      1931       644  TIP3      H1             36.3997896015       -6.9907557466      -23.7924946635  WZ1       1850            0.0000000000
      1932       644  TIP3      H2             36.9683196015       -7.2389357466      -22.4115246635  WZ1       1850            0.0000000000
      1933       645  TIP3      OH2           -29.9076203985        6.4335442534      -30.2681746635  WZ1       1864            0.0000000000
      1934       645  TIP3      H1            -29.9458703985        5.7871742534      -29.5632146635  WZ1       1864            0.0000000000
      1935       645  TIP3      H2            -30.2299703985        5.9669842534      -31.0393046635  WZ1       1864            0.0000000000
      1936       646  TIP3      OH2           -26.2016003985        9.3725842534      -31.9666646635  WZ1       1866            0.0000000000
      1937       646  TIP3      H1            -26.6423303985        8.6521842534      -31.5161046635  WZ1       1866            0.0000000000
      1938       646  TIP3      H2            -26.2146303985       10.0933042534      -31.3368946635  WZ1       1866            0.0000000000
      1939       647  TIP3      OH2           -29.0900503985       14.4767542534      -31.7546246635  WZ1       1870            0.0000000000
      1940       647  TIP3      H1            -28.4704103985       13.8002242534      -32.0277046635  WZ1       1870            0.0000000000
      1941       647  TIP3      H2            -29.2983103985       14.2588342534      -30.8461346635  WZ1       1870            0.0000000000
      1942       648  TIP3      OH2           -31.5181803985        8.8656842534      -29.8620746635  WZ1       1871            0.0000000000
      1943       648  TIP3      H1            -31.2143903985        8.1798242534      -30.4566646635  WZ1       1871            0.0000000000
      1944       648  TIP3      H2            -30.7967803985        8.9845542534      -29.2442746635  WZ1       1871            0.0000000000
      1945       649  TIP3      OH2           -22.8552003985        0.4672142534      -29.0014546635  WZ1       1872            0.0000000000
      1946       649  TIP3      H1            -22.8059803985        1.0773342534      -28.2655446635  WZ1       1872            0.0000000000
      1947       649  TIP3      H2            -22.4296903985        0.9283042534      -29.7243446635  WZ1       1872            0.0000000000
      1948       650  TIP3      OH2           -28.3774803985        3.2599242534      -29.5345946635  WZ1       1873            0.0000000000
      1949       650  TIP3      H1            -28.2348903985        2.3136242534      -29.5144346635  WZ1       1873            0.0000000000
      1950       650  TIP3      H2            -28.4835803985        3.4669042534      -30.4631046635  WZ1       1873            0.0000000000
      1951       651  TIP3      OH2           -22.4637403985        1.9451342534      -26.7654746635  WZ1       1878            0.0000000000
      1952       651  TIP3      H1            -23.1522803985        2.6032042534      -26.8608146635  WZ1       1878            0.0000000000
      1953       651  TIP3      H2            -22.4482803985        1.7479242534      -25.8289346635  WZ1       1878            0.0000000000
      1954       652  TIP3      OH2           -33.8433203985        7.9549742534      -27.9006646635  WZ1       1881            0.0000000000
      1955       652  TIP3      H1            -34.5834103985        8.5531242534      -27.7971446635  WZ1       1881            0.0000000000
      1956       652  TIP3      H2            -33.1293703985        8.5089342534      -28.2163046635  WZ1       1881            0.0000000000
      1957       653  TIP3      OH2           -25.6898303985       11.2116542534      -29.6187346635  WZ1       1886            0.0000000000
      1958       653  TIP3      H1            -26.6314603985       11.2700442534      -29.4570446635  WZ1       1886            0.0000000000
      1959       653  TIP3      H2            -25.4132203985       12.1177042534      -29.7557646635  WZ1       1886            0.0000000000
      1960       654  TIP3      OH2           -25.3891303985       -0.5018157466      -28.2013446635  WZ1       1887            0.0000000000
      1961       654  TIP3      H1            -26.1252103985        0.1088942534      -28.2392146635  WZ1       1887            0.0000000000
      1962       654  TIP3      H2            -24.7057303985       -0.0869157466      -28.7277046635  WZ1       1887            0.0000000000
      1963       655  TIP3      OH2           -27.4377103985       12.9930042534      -32.9935746635  WZ1       1889            0.0000000000
      1964       655  TIP3      H1            -27.0124803985       12.2857942534      -33.4786146635  WZ1       1889            0.0000000000
      1965       655  TIP3      H2            -27.1207103985       13.7942742534      -33.4103546635  WZ1       1889            0.0000000000
      1966       656  TIP3      OH2           -26.2780603985       10.8938542534      -34.4849146635  WZ1       1890            0.0000000000
      1967       656  TIP3      H1            -26.5355803985       10.2038642534      -35.0963246635  WZ1       1890            0.0000000000
      1968       656  TIP3      H2            -26.2069803985       10.4509742534      -33.6393246635  WZ1       1890            0.0000000000
      1969       657  TIP3      OH2           -24.5920403985        9.4605242534      -26.0075646635  WZ1       1891            0.0000000000
      1970       657  TIP3      H1            -24.4524103985        8.8687742534      -26.7468646635  WZ1       1891            0.0000000000
      1971       657  TIP3      H2            -24.4247603985       10.3331142534      -26.3636846635  WZ1       1891            0.0000000000
      1972       658  TIP3      OH2           -22.7501103985        5.8003242534      -27.9415246635  WZ1       1894            0.0000000000
      1973       658  TIP3      H1            -23.4027003985        6.4948842534      -27.8524346635  WZ1       1894            0.0000000000
      1974       658  TIP3      H2            -22.2850803985        6.0104142534      -28.7513646635  WZ1       1894            0.0000000000
      1975       659  TIP3      OH2           -26.8163803985        4.8060642534      -26.2156746635  WZ1       1896            0.0000000000
      1976       659  TIP3      H1            -26.7364703985        5.5695042534      -25.6438246635  WZ1       1896            0.0000000000
      1977       659  TIP3      H2            -27.4176103985        5.0853042534      -26.9061646635  WZ1       1896            0.0000000000
      1978       660  TIP3      OH2           -28.3925903985       11.5341742534      -29.0333246635  WZ1       1900            0.0000000000
      1979       660  TIP3      H1            -28.6329303985       12.1964842534      -28.3854046635  WZ1       1900            0.0000000000
      1980       660  TIP3      H2            -28.5907703985       10.6996942534      -28.6083646635  WZ1       1900            0.0000000000
      1981       661  TIP3      OH2           -33.8217403985       10.4302542534      -25.0501846635  WZ1       1901            0.0000000000
      1982       661  TIP3      H1            -34.1329903985       11.2125742534      -24.5948646635  WZ1       1901            0.0000000000
      1983       661  TIP3      H2            -34.4717203985       10.2771642534      -25.7359846635  WZ1       1901            0.0000000000
      1984       662  TIP3      OH2           -22.0369603985       12.1411242534      -24.4302246635  WZ1       1911            0.0000000000
      1985       662  TIP3      H1            -22.0862803985       11.1859342534      -24.4674646635  WZ1       1911            0.0000000000
      1986       662  TIP3      H2            -22.8637303985       12.4086542534      -24.0288446635  WZ1       1911            0.0000000000
      1987       663  TIP3      OH2           -31.0585603985       11.7150442534      -25.5540846635  WZ1       1912            0.0000000000
      1988       663  TIP3      H1            -30.9711003985       12.5415042534      -25.0791746635  WZ1       1912            0.0000000000
      1989       663  TIP3      H2            -31.9220503985       11.3854242534      -25.3051546635  WZ1       1912            0.0000000000
      1990       664  TIP3      OH2           -24.8849803985        3.6343742534      -23.9500046635  WZ1       1917            0.0000000000
      1991       664  TIP3      H1            -25.2923003985        4.1149342534      -24.6706746635  WZ1       1917            0.0000000000
      1992       664  TIP3      H2            -24.8444103985        2.7289742534      -24.2579246635  WZ1       1917            0.0000000000
      1993       665  TIP3      OH2           -30.4544503985       -1.7895957466      -26.5832146635  WZ1       1920            0.0000000000
      1994       665  TIP3      H1            -30.0341403985       -2.2048857466      -25.8301546635  WZ1       1920            0.0000000000
      1995       665  TIP3      H2            -31.3874903985       -1.9682657466      -26.4660146635  WZ1       1920            0.0000000000
      1996       666  TIP3      OH2           -27.1279603985        1.9659242534      -25.7297646635  WZ1       1921            0.0000000000
      1997       666  TIP3      H1            -27.6420103985        1.8401442534      -24.9321646635  WZ1       1921            0.0000000000
      1998       666  TIP3      H2            -27.2834903985        2.8782342534      -25.9741446635  WZ1       1921            0.0000000000
      1999       667  TIP3      OH2           -30.3916003985        4.2664942534      -23.6457446635  WZ1       1927            0.0000000000
      2000       667  TIP3      H1            -30.9542203985        3.5616542534      -23.3249646635  WZ1       1927            0.0000000000
      2001       667  TIP3      H2            -29.5652603985        4.1456842534      -23.1779846635  WZ1       1927            0.0000000000
      2002       668  TIP3      OH2           -29.2250703985        5.1750242534      -27.6486046635  WZ1       1933            0.0000000000
      2003       668  TIP3      H1            -28.9015903985        4.5439942534      -28.2915546635  WZ1       1933            0.0000000000
      2004       668  TIP3      H2            -29.6651403985        4.6402442534      -26.9878646635  WZ1       1933            0.0000000000
      2005       669  TIP3      OH2           -24.7550803985       16.0087442534      -23.3235446635  WZ1       1939            0.0000000000
      2006       669  TIP3      H1            -24.5552103985       16.4329342534      -24.1580146635  WZ1       1939            0.0000000000
      2007       669  TIP3      H2            -24.0997103985       16.3525642534      -22.7165046635  WZ1       1939            0.0000000000
      2008       670  TIP3      OH2           -24.8070703985        7.6240742534      -28.0920846635  WZ1       1945            0.0000000000
      2009       670  TIP3      H1            -24.1651903985        8.0807042534      -28.6358646635  WZ1       1945            0.0000000000
      2010       670  TIP3      H2            -25.6373803985        7.7373142534      -28.5546746635  WZ1       1945            0.0000000000
      2011       671  TIP3      OH2           -30.4377503985        8.6755842534      -25.6419346635  WZ1       1947            0.0000000000
      2012       671  TIP3      H1            -30.7831403985        8.2938242534      -24.8349746635  WZ1       1947            0.0000000000
      2013       671  TIP3      H2            -30.6377403985        9.6089442534      -25.5706446635  WZ1       1947            0.0000000000
      2014       672  TIP3      OH2           -32.8076703985        5.7639342534      -23.5812346635  WZ1       1952            0.0000000000
      2015       672  TIP3      H1            -33.1035903985        5.5982342534      -24.4763246635  WZ1       1952            0.0000000000
      2016       672  TIP3      H2            -31.8761503985        5.5439642534      -23.5918446635  WZ1       1952            0.0000000000
      2017       673  TIP3      OH2           -28.1873903985       11.1371342534      -25.6914346635  WZ1       1953            0.0000000000
      2018       673  TIP3      H1            -29.0879603985       11.3203942534      -25.9590446635  WZ1       1953            0.0000000000
      2019       673  TIP3      H2            -28.1532803985       11.3960642534      -24.7705546635  WZ1       1953            0.0000000000
      2020       674  TIP3      OH2           -22.4928603985        9.1820942534      -24.4870246635  WZ1       1955            0.0000000000
      2021       674  TIP3      H1            -23.3440103985        9.4204742534      -24.8543846635  WZ1       1955            0.0000000000
      2022       674  TIP3      H2            -21.9025203985        9.1654142534      -25.2403146635  WZ1       1955            0.0000000000
      2023       675  TIP3      OH2           -27.0005003985        6.9759142534      -29.8377746635  WZ1       1957            0.0000000000
      2024       675  TIP3      H1            -27.9288103985        6.7441042534      -29.8648446635  WZ1       1957            0.0000000000
      2025       675  TIP3      H2            -26.5493903985        6.1988942534      -30.1678946635  WZ1       1957            0.0000000000
      2026       676  TIP3      OH2           -32.5153003985       13.1164242534      -27.8133646635  WZ1       1961            0.0000000000
      2027       676  TIP3      H1            -32.1528303985       13.9709842534      -28.0469246635  WZ1       1961            0.0000000000
      2028       676  TIP3      H2            -31.9837803985       12.8245842534      -27.0727346635  WZ1       1961            0.0000000000
      2029       677  TIP3      OH2           -28.9712203985        9.2154942534      -28.1128046635  WZ1       1963            0.0000000000
      2030       677  TIP3      H1            -29.3970903985        8.9876642534      -27.2864046635  WZ1       1963            0.0000000000
      2031       677  TIP3      H2            -28.3906403985        8.4766742534      -28.2952746635  WZ1       1963            0.0000000000
      2032       678  TIP3      OH2           -26.3128003985       13.7674442534      -25.6433246635  WZ1       1965            0.0000000000
      2033       678  TIP3      H1            -26.9144803985       13.2117342534      -26.1386946635  WZ1       1965            0.0000000000
      2034       678  TIP3      H2            -26.0314303985       14.4344242534      -26.2695846635  WZ1       1965            0.0000000000
      2035       679  TIP3      OH2           -29.4558703985        0.7412442534      -27.3462046635  WZ1       1973            0.0000000000
      2036       679  TIP3      H1            -28.7570803985        0.8151142534      -26.6962346635  WZ1       1973            0.0000000000
      2037       679  TIP3      H2            -29.8367303985       -0.1232557466      -27.1919146635  WZ1       1973            0.0000000000
      2038       680  TIP3      OH2           -30.9357503985        3.1075642534      -26.2294746635  WZ1       1977            0.0000000000
      2039       680  TIP3      H1            -30.8167203985        3.6811042534      -25.4724346635  WZ1       1977            0.0000000000
      2040       680  TIP3      H2            -30.2802903985        2.4195042534      -26.1146946635  WZ1       1977            0.0000000000
      2041       681  TIP3      OH2           -24.7311703985        1.0145942534      -25.3945046635  WZ1       1981            0.0000000000
      2042       681  TIP3      H1            -25.6475903985        1.2767642534      -25.4821346635  WZ1       1981            0.0000000000
      2043       681  TIP3      H2            -24.3956703985        1.0114942534      -26.2909746635  WZ1       1981            0.0000000000
      2044       682  TIP3      OH2           -26.1290703985        4.7646942534      -31.2987746635  WZ1       1982            0.0000000000
      2045       682  TIP3      H1            -26.9266303985        4.3497142534      -31.6272746635  WZ1       1982            0.0000000000
      2046       682  TIP3      H2            -25.6839603985        4.0740642534      -30.8077246635  WZ1       1982            0.0000000000
      2047       683  TIP3      OH2           -25.0426103985       14.0209442534      -29.6764246635  WZ1       1985            0.0000000000
      2048       683  TIP3      H1            -25.1981803985       14.6993842534      -30.3334946635  WZ1       1985            0.0000000000
      2049       683  TIP3      H2            -24.1099703985       14.0928742534      -29.4733646635  WZ1       1985            0.0000000000
      2050       684  TIP3      OH2           -34.7313303985       13.6112342534      -21.8284846635  WZ1       1989            0.0000000000
      2051       684  TIP3      H1            -33.9636103985       13.1523142534      -21.4875646635  WZ1       1989            0.0000000000
      2052       684  TIP3      H2            -34.7527103985       13.3852142534      -22.7583646635  WZ1       1989            0.0000000000
      2053       685  TIP3      OH2           -28.1544603985       11.9913442534      -23.0993346635  WZ1       1991            0.0000000000
      2054       685  TIP3      H1            -28.5055103985       11.1346442534      -22.8562946635  WZ1       1991            0.0000000000
      2055       685  TIP3      H2            -27.4281403985       12.1340142534      -22.4924346635  WZ1       1991            0.0000000000
      2056       686  TIP3      OH2           -32.7661103985        8.4720142534      -23.0618346635  WZ1       1995            0.0000000000
      2057       686  TIP3      H1            -33.0947303985        8.7428242534      -23.9190946635  WZ1       1995            0.0000000000
      2058       686  TIP3      H2            -32.6142903985        7.5309942534      -23.1493346635  WZ1       1995            0.0000000000
      2059       687  TIP3      OH2           -27.0315903985        8.3877442534      -25.6786046635  WZ1       1997            0.0000000000
      2060       687  TIP3      H1            -26.2861103985        8.9761142534      -25.7982046635  WZ1       1997            0.0000000000
      2061       687  TIP3      H2            -27.7889103985        8.9697142534      -25.6152946635  WZ1       1997            0.0000000000
      2062       688  TIP3      OH2           -34.6420403985        4.7111042534      -25.7002546635  WZ1       2000            0.0000000000
      2063       688  TIP3      H1            -35.2604303985        5.3857642534      -25.4197846635  WZ1       2000            0.0000000000
      2064       688  TIP3      H2            -34.2979203985        5.0324942534      -26.5336346635  WZ1       2000            0.0000000000
      2065       689  TIP3      OH2           -29.6222203985        7.1826342534      -22.4227746635  WZ1       2002            0.0000000000
      2066       689  TIP3      H1            -28.6691003985        7.2665442534      -22.4501746635  WZ1       2002            0.0000000000
      2067       689  TIP3      H2            -29.7827603985        6.4708142534      -21.8032846635  WZ1       2002            0.0000000000
      2068       690  TIP3      OH2           -34.3026703985        2.0661842534      -24.6179446635  WZ1       2004            0.0000000000
      2069       690  TIP3      H1            -34.1525803985        1.3373142534      -25.2199746635  WZ1       2004            0.0000000000
      2070       690  TIP3      H2            -34.3004303985        2.8433542534      -25.1767246635  WZ1       2004            0.0000000000
      2071       691  TIP3      OH2           -32.3082603985        5.8753842534      -26.8856846635  WZ1       2006            0.0000000000
      2072       691  TIP3      H1            -31.5577803985        5.7191342534      -27.4589046635  WZ1       2006            0.0000000000
      2073       691  TIP3      H2            -32.6474303985        6.7270442534      -27.1611346635  WZ1       2006            0.0000000000
      2074       692  TIP3      OH2           -27.8926403985        3.6905642534      -21.8571546635  WZ1       2007            0.0000000000
      2075       692  TIP3      H1            -27.7005103985        2.7595042534      -21.9687046635  WZ1       2007            0.0000000000
      2076       692  TIP3      H2            -27.0350103985        4.1155142534      -21.8676146635  WZ1       2007            0.0000000000
      2077       693  TIP3      OH2           -26.5759203985        6.4790842534      -23.7798846635  WZ1       2008            0.0000000000
      2078       693  TIP3      H1            -26.8574203985        7.1885442534      -24.3575046635  WZ1       2008            0.0000000000
      2079       693  TIP3      H2            -25.6334903985        6.4063842534      -23.9307646635  WZ1       2008            0.0000000000
      2080       694  TIP3      OH2           -35.8240403985        3.2645342534      -22.7063846635  WZ1       2009            0.0000000000
      2081       694  TIP3      H1            -36.5911403985        2.7320142534      -22.9166246635  WZ1       2009            0.0000000000
      2082       694  TIP3      H2            -35.1451403985        2.9545742534      -23.3057546635  WZ1       2009            0.0000000000
      2083       695  TIP3      OH2           -31.8205003985        2.2138742534      -23.1300046635  WZ1       2011            0.0000000000
      2084       695  TIP3      H1            -32.0559603985        1.9945442534      -22.2285146635  WZ1       2011            0.0000000000
      2085       695  TIP3      H2            -32.6038103985        2.0069942534      -23.6397546635  WZ1       2011            0.0000000000
      2086       696  TIP3      OH2           -29.1048403985        1.3412242534      -24.0546546635  WZ1       2012            0.0000000000
      2087       696  TIP3      H1            -30.0523003985        1.3731942534      -23.9223246635  WZ1       2012            0.0000000000
      2088       696  TIP3      H2            -28.7921703985        0.7159342534      -23.4008346635  WZ1       2012            0.0000000000
      2089       697  TIP3      OH2           -27.4706903985       -0.0246657466      -22.0494646635  WZ1       2013            0.0000000000
      2090       697  TIP3      H1            -27.5675103985       -0.9769357466      -22.0552746635  WZ1       2013            0.0000000000
      2091       697  TIP3      H2            -27.7923803985        0.2440142534      -21.1889146635  WZ1       2013            0.0000000000
      2092       698  TIP3      OH2           -37.6437603985        1.1849142534      -23.0019146635  WZ1       2014            0.0000000000
      2093       698  TIP3      H1            -37.4320203985        0.4785242534      -23.6121646635  WZ1       2014            0.0000000000
      2094       698  TIP3      H2            -37.7550103985        0.7475142534      -22.1577946635  WZ1       2014            0.0000000000
      2095       699  TIP3      OH2           -32.8627403985       -2.8139257466      -24.0225646635  WZ1       2015            0.0000000000
      2096       699  TIP3      H1            -32.1509003985       -3.4537057466      -24.0366546635  WZ1       2015            0.0000000000
      2097       699  TIP3      H2            -32.9637003985       -2.5470957466      -24.9362546635  WZ1       2015            0.0000000000
      2098       700  TIP3      OH2           -32.5089903985       -1.1310857466      -21.9689346635  WZ1       2016            0.0000000000
      2099       700  TIP3      H1            -32.6407703985       -1.6067057466      -22.7890846635  WZ1       2016            0.0000000000
      2100       700  TIP3      H2            -33.1082503985       -0.3867257466      -22.0242246635  WZ1       2016            0.0000000000
      2101       701  TIP3      OH2           -22.3268103985       14.6715142534      -29.4472346635  WZ1       2021            0.0000000000
      2102       701  TIP3      H1            -22.3481403985       14.8563542534      -28.5082946635  WZ1       2021            0.0000000000
      2103       701  TIP3      H2            -21.6361903985       15.2399142534      -29.7880946635  WZ1       2021            0.0000000000
      2104       702  TIP3      OH2           -22.7635203985       14.2386242534      -26.5253246635  WZ1       2022            0.0000000000
      2105       702  TIP3      H1            -23.2506503985       13.5030342534      -26.8965846635  WZ1       2022            0.0000000000
      2106       702  TIP3      H2            -22.2142503985       13.8450142534      -25.8473846635  WZ1       2022            0.0000000000
      2107       703  TIP3      OH2           -24.3127903985       10.0284342534      -21.8872946635  WZ1       2023            0.0000000000
      2108       703  TIP3      H1            -25.1786803985        9.9234042534      -21.4930646635  WZ1       2023            0.0000000000
      2109       703  TIP3      H2            -23.9362003985       10.7867642534      -21.4408246635  WZ1       2023            0.0000000000
      2110       704  TIP3      OH2           -22.6172603985        6.3385442534      -34.5494746635  WZ1       2025            0.0000000000
      2111       704  TIP3      H1            -23.3438003985        5.8588042534      -34.1517146635  WZ1       2025            0.0000000000
      2112       704  TIP3      H2            -22.0359303985        6.5440142534      -33.8173146635  WZ1       2025            0.0000000000
      2113       705  TIP3      OH2           -22.8581403985        9.1232942534      -29.6017146635  WZ1       2026            0.0000000000
      2114       705  TIP3      H1            -22.0247203985        8.7452942534      -29.8823546635  WZ1       2026            0.0000000000
      2115       705  TIP3      H2            -22.7461103985       10.0664142534      -29.7208046635  WZ1       2026            0.0000000000
      2116       706  TIP3      OH2           -24.3719103985       12.0010442534      -27.2948746635  WZ1       2027            0.0000000000
      2117       706  TIP3      H1            -25.0193803985       12.3261942534      -26.6693546635  WZ1       2027            0.0000000000
      2118       706  TIP3      H2            -24.8895103985       11.5608142534      -27.9690446635  WZ1       2027            0.0000000000
      2119       707  TIP3      OH2           -23.9742903985        6.8295242534      -24.3477746635  WZ1       2032            0.0000000000
      2120       707  TIP3      H1            -23.3915603985        6.0947542534      -24.1560546635  WZ1       2032            0.0000000000
      2121       707  TIP3      H2            -23.4103603985        7.6015542534      -24.3011946635  WZ1       2032            0.0000000000
      2122       708  TIP3      OH2           -22.4775803985        4.7321042534      -23.6632346635  WZ1       2033            0.0000000000
      2123       708  TIP3      H1            -23.3409103985        4.3533142534      -23.8287646635  WZ1       2033            0.0000000000
      2124       708  TIP3      H2            -21.8732103985        3.9935842534      -23.7376546635  WZ1       2033            0.0000000000
      2125       709  TIP3      OH2           -24.5082703985        3.0235142534      -30.0882046635  WZ1       2036            0.0000000000
      2126       709  TIP3      H1            -23.5754703985        3.2355042534      -30.1226046635  WZ1       2036            0.0000000000
      2127       709  TIP3      H2            -24.7435203985        3.1247242534      -29.1659046635  WZ1       2036            0.0000000000
      2128       710  TIP3      OH2           -24.4790803985        3.7600442534      -27.3122646635  WZ1       2037            0.0000000000
      2129       710  TIP3      H1            -25.3219503985        4.0280842534      -26.9462846635  WZ1       2037            0.0000000000
      2130       710  TIP3      H2            -24.0366503985        4.5822342534      -27.5231546635  WZ1       2037            0.0000000000
      2131       711  TIP3      OH2           -22.1959203985       -2.2599357466      -21.9587646635  WZ1       2039            0.0000000000
      2132       711  TIP3      H1            -21.8462203985       -2.9135857466      -22.5642946635  WZ1       2039            0.0000000000
      2133       711  TIP3      H2            -22.0489703985       -1.4225257466      -22.3985046635  WZ1       2039            0.0000000000
      2134       712  TIP3      OH2           -22.6762003985       -0.1504757466      -23.6096346635  WZ1       2043            0.0000000000
      2135       712  TIP3      H1            -23.5936303985        0.1202342534      -23.6452846635  WZ1       2043            0.0000000000
      2136       712  TIP3      H2            -22.5532603985       -0.6856357466      -24.3936646635  WZ1       2043            0.0000000000
      2137       713  TIP3      OH2           -30.9380303985       14.0637142534      -24.1141946635  WZ1       2050            0.0000000000
      2138       713  TIP3      H1            -30.7532803985       13.7303242534      -23.2361646635  WZ1       2050            0.0000000000
      2139       713  TIP3      H2            -30.0915803985       14.3735742534      -24.4362746635  WZ1       2050            0.0000000000
      2140       714  TIP3      OH2           -28.5929903985       15.3496042534      -24.8700546635  WZ1       2051            0.0000000000
      2141       714  TIP3      H1            -27.9161003985       14.7168342534      -25.1101346635  WZ1       2051            0.0000000000
      2142       714  TIP3      H2            -28.2711103985       15.7506542534      -24.0627246635  WZ1       2051            0.0000000000
      2143       715  TIP3      OH2           -23.6756103985       -2.0608457466      -25.7905546635  WZ1       2052            0.0000000000
      2144       715  TIP3      H1            -24.4882603985       -1.7358157466      -26.1780846635  WZ1       2052            0.0000000000
      2145       715  TIP3      H2            -23.4427603985       -2.8209957466      -26.3236446635  WZ1       2052            0.0000000000
      2146       716  TIP3      OH2           -30.6696803985       15.4093842534      -28.8207146635  WZ1       2055            0.0000000000
      2147       716  TIP3      H1            -31.1262803985       15.9383542534      -29.4748746635  WZ1       2055            0.0000000000
      2148       716  TIP3      H2            -30.5068803985       16.0125242534      -28.0954846635  WZ1       2055            0.0000000000
      2149       717  TIP3      OH2           -28.3420503985       14.2873442534      -27.8756846635  WZ1       2056            0.0000000000
      2150       717  TIP3      H1            -29.2466803985       14.4523642534      -28.1414746635  WZ1       2056            0.0000000000
      2151       717  TIP3      H2            -27.9131903985       15.1405642534      -27.9413446635  WZ1       2056            0.0000000000
      2152       718  TIP3      OH2           -25.7378603985       15.8572542534      -27.5809046635  WZ1       2057            0.0000000000
      2153       718  TIP3      H1            -25.9196603985       16.7731442534      -27.7914146635  WZ1       2057            0.0000000000
      2154       718  TIP3      H2            -25.5610803985       15.4469642534      -28.4274446635  WZ1       2057            0.0000000000
      2155       719  TIP3      OH2           -35.9881303985       -2.1131257466      -22.5924146635  WZ1       2075            0.0000000000
      2156       719  TIP3      H1            -35.0897703985       -2.3871057466      -22.7770746635  WZ1       2075            0.0000000000
      2157       719  TIP3      H2            -36.3748203985       -2.8555257466      -22.1281546635  WZ1       2075            0.0000000000
      2158       720  TIP3      OH2           -27.5669003985       -2.7805957466      -22.4101346635  WZ1       2077            0.0000000000
      2159       720  TIP3      H1            -27.4901803985       -3.2065257466      -21.5563646635  WZ1       2077            0.0000000000
      2160       720  TIP3      H2            -26.6732403985       -2.7671257466      -22.7527846635  WZ1       2077            0.0000000000
      2161       721  TIP3      OH2           -24.3907903985       13.2920342534      -23.7177146635  WZ1       2078            0.0000000000
      2162       721  TIP3      H1            -25.1726003985       13.1058342534      -24.2376546635  WZ1       2078            0.0000000000
      2163       721  TIP3      H2            -24.4628003985       14.2214642534      -23.5004646635  WZ1       2078            0.0000000000
      2164       722  TIP3      OH2            -9.9847503985        7.1784742534      -33.6869946635  WZ1       2079            0.0000000000
      2165       722  TIP3      H1             -9.8956403985        8.1222942534      -33.8192846635  WZ1       2079            0.0000000000
      2166       722  TIP3      H2            -10.6229903985        6.9031142534      -34.3450546635  WZ1       2079            0.0000000000
      2167       723  TIP3      OH2           -11.0516203985        6.4335442534      -30.2681746635  WZ1       2080            0.0000000000
      2168       723  TIP3      H1            -11.0898703985        5.7871742534      -29.5632146635  WZ1       2080            0.0000000000
      2169       723  TIP3      H2            -11.3739703985        5.9669842534      -31.0393046635  WZ1       2080            0.0000000000
      2170       724  TIP3      OH2           -18.6831203985        6.0477542534      -28.6751846635  WZ1       2081            0.0000000000
      2171       724  TIP3      H1            -18.6419103985        5.4220842534      -27.9519446635  WZ1       2081            0.0000000000
      2172       724  TIP3      H2            -17.9803503985        6.6716142534      -28.4931446635  WZ1       2081            0.0000000000
      2173       725  TIP3      OH2            -7.3456003985        9.3725842534      -31.9666646635  WZ1       2082            0.0000000000
      2174       725  TIP3      H1             -7.7863303985        8.6521842534      -31.5161046635  WZ1       2082            0.0000000000
      2175       725  TIP3      H2             -7.3586303985       10.0933042534      -31.3368946635  WZ1       2082            0.0000000000
      2176       726  TIP3      OH2           -17.7598103985       10.4976442534      -30.1402746635  WZ1       2083            0.0000000000
      2177       726  TIP3      H1            -18.1292903985        9.6956942534      -30.5098446635  WZ1       2083            0.0000000000
      2178       726  TIP3      H2            -16.8187003985       10.3291342534      -30.0939346635  WZ1       2083            0.0000000000
      2179       727  TIP3      OH2           -20.4391503985        6.3198642534      -32.6215946635  WZ1       2085            0.0000000000
      2180       727  TIP3      H1            -20.2258003985        5.5500242534      -32.0942946635  WZ1       2085            0.0000000000
      2181       727  TIP3      H2            -19.7013903985        6.4095342534      -33.2248346635  WZ1       2085            0.0000000000
      2182       728  TIP3      OH2           -10.2340503985       14.4767542534      -31.7546246635  WZ1       2086            0.0000000000
      2183       728  TIP3      H1             -9.6144103985       13.8002242534      -32.0277046635  WZ1       2086            0.0000000000
      2184       728  TIP3      H2            -10.4423103985       14.2588342534      -30.8461346635  WZ1       2086            0.0000000000
      2185       729  TIP3      OH2           -12.6621803985        8.8656842534      -29.8620746635  WZ1       2087            0.0000000000
      2186       729  TIP3      H1            -12.3583903985        8.1798242534      -30.4566646635  WZ1       2087            0.0000000000
      2187       729  TIP3      H2            -11.9407803985        8.9845542534      -29.2442746635  WZ1       2087            0.0000000000
      2188       730  TIP3      OH2            -3.9992003985        0.4672142534      -29.0014546635  WZ1       2088            0.0000000000
      2189       730  TIP3      H1             -3.9499803985        1.0773342534      -28.2655446635  WZ1       2088            0.0000000000
      2190       730  TIP3      H2             -3.5736903985        0.9283042534      -29.7243446635  WZ1       2088            0.0000000000
      2191       731  TIP3      OH2            -9.5214803985        3.2599242534      -29.5345946635  WZ1       2089            0.0000000000
      2192       731  TIP3      H1             -9.3788903985        2.3136242534      -29.5144346635  WZ1       2089            0.0000000000
      2193       731  TIP3      H2             -9.6275803985        3.4669042534      -30.4631046635  WZ1       2089            0.0000000000
      2194       732  TIP3      OH2           -16.3666503985        1.3615642534      -32.2621146635  WZ1       2090            0.0000000000
      2195       732  TIP3      H1            -16.3235403985        2.2214142534      -32.6804846635  WZ1       2090            0.0000000000
      2196       732  TIP3      H2            -16.8242403985        0.8090342534      -32.8957946635  WZ1       2090            0.0000000000
      2197       733  TIP3      OH2            -8.6443803985        1.4921242534      -33.8612846635  WZ1       2091            0.0000000000
      2198       733  TIP3      H1             -7.9979503985        1.1634442534      -33.2365246635  WZ1       2091            0.0000000000
      2199       733  TIP3      H2             -8.1344403985        2.0100242534      -34.4841446635  WZ1       2091            0.0000000000
      2200       734  TIP3      OH2           -19.7465003985        3.7581442534      -31.4999746635  WZ1       2092            0.0000000000
      2201       734  TIP3      H1            -19.0928403985        3.2083142534      -31.0679646635  WZ1       2092            0.0000000000
      2202       734  TIP3      H2            -19.7225703985        3.4840442534      -32.4167746635  WZ1       2092            0.0000000000
      2203       735  TIP3      OH2           -14.5900503985        5.3082742534      -32.2848246635  WZ1       2093            0.0000000000
      2204       735  TIP3      H1            -13.9739503985        4.7818142534      -31.7754246635  WZ1       2093            0.0000000000
      2205       735  TIP3      H2            -15.1761703985        4.6681442534      -32.6884646635  WZ1       2093            0.0000000000
      2206       736  TIP3      OH2            -3.6077403985        1.9451342534      -26.7654746635  WZ1       2094            0.0000000000
      2207       736  TIP3      H1             -4.2962803985        2.6032042534      -26.8608146635  WZ1       2094            0.0000000000
      2208       736  TIP3      H2             -3.5922803985        1.7479242534      -25.8289346635  WZ1       2094            0.0000000000
      2209       737  TIP3      OH2           -17.5564603985        0.2794042534      -28.1880346635  WZ1       2095            0.0000000000
      2210       737  TIP3      H1            -17.7752903985        0.8094642534      -28.9544346635  WZ1       2095            0.0000000000
      2211       737  TIP3      H2            -18.2243703985        0.5059542534      -27.5408946635  WZ1       2095            0.0000000000
      2212       738  TIP3      OH2           -10.1874803985        9.7795142534      -34.6441246635  WZ1       2096            0.0000000000
      2213       738  TIP3      H1            -10.4829703985        9.4567442534      -35.4954346635  WZ1       2096            0.0000000000
      2214       738  TIP3      H2            -10.5117003985       10.6791842534      -34.6028646635  WZ1       2096            0.0000000000
      2215       739  TIP3      OH2           -14.9873203985        7.9549742534      -27.9006646635  WZ1       2097            0.0000000000
      2216       739  TIP3      H1            -15.7274103985        8.5531242534      -27.7971446635  WZ1       2097            0.0000000000
      2217       739  TIP3      H2            -14.2733703985        8.5089342534      -28.2163046635  WZ1       2097            0.0000000000
      2218       740  TIP3      OH2            -6.8805403985        0.7830542534      -31.8806946635  WZ1       2098            0.0000000000
      2219       740  TIP3      H1             -7.0957403985        0.0173942534      -31.3480946635  WZ1       2098            0.0000000000
      2220       740  TIP3      H2             -6.2248003985        1.2555142534      -31.3678446635  WZ1       2098            0.0000000000
      2221       741  TIP3      OH2           -17.9627303985        2.1715842534      -30.2358146635  WZ1       2099            0.0000000000
      2222       741  TIP3      H1            -17.3491003985        2.8043442534      -29.8625746635  WZ1       2099            0.0000000000
      2223       741  TIP3      H2            -17.4506603985        1.6990842534      -30.8921246635  WZ1       2099            0.0000000000
      2224       742  TIP3      OH2           -16.5798903985        9.9192742534      -27.1135146635  WZ1       2100            0.0000000000
      2225       742  TIP3      H1            -16.5851303985       10.7986242534      -27.4915846635  WZ1       2100            0.0000000000
      2226       742  TIP3      H2            -17.4334803985        9.8356842534      -26.6885246635  WZ1       2100            0.0000000000
      2227       743  TIP3      OH2           -20.4588003985        9.5900642534      -36.3315846635  WZ1       2101            0.0000000000
      2228       743  TIP3      H1            -20.7307103985        9.8191642534      -37.2202946635  WZ1       2101            0.0000000000
      2229       743  TIP3      H2            -20.4132303985       10.4279442534      -35.8710546635  WZ1       2101            0.0000000000
      2230       744  TIP3      OH2            -6.8338303985       11.2116542534      -29.6187346635  WZ1       2102            0.0000000000
      2231       744  TIP3      H1             -7.7754603985       11.2700442534      -29.4570446635  WZ1       2102            0.0000000000
      2232       744  TIP3      H2             -6.5572203985       12.1177042534      -29.7557646635  WZ1       2102            0.0000000000
      2233       745  TIP3      OH2            -6.5331303985       -0.5018157466      -28.2013446635  WZ1       2103            0.0000000000
      2234       745  TIP3      H1             -7.2692103985        0.1088942534      -28.2392146635  WZ1       2103            0.0000000000
      2235       745  TIP3      H2             -5.8497303985       -0.0869157466      -28.7277046635  WZ1       2103            0.0000000000
      2236       746  TIP3      OH2           -13.5299903985       -2.4150857466      -30.7355446635  WZ1       2104            0.0000000000
      2237       746  TIP3      H1            -13.6475703985       -3.3634857466      -30.7897146635  WZ1       2104            0.0000000000
      2238       746  TIP3      H2            -14.3849803985       -2.0824757466      -30.4624346635  WZ1       2104            0.0000000000
      2239       747  TIP3      OH2            -8.5817103985       12.9930042534      -32.9935746635  WZ1       2105            0.0000000000
      2240       747  TIP3      H1             -8.1564803985       12.2857942534      -33.4786146635  WZ1       2105            0.0000000000
      2241       747  TIP3      H2             -8.2647103985       13.7942742534      -33.4103546635  WZ1       2105            0.0000000000
      2242       748  TIP3      OH2            -7.4220603985       10.8938542534      -34.4849146635  WZ1       2106            0.0000000000
      2243       748  TIP3      H1             -7.6795803985       10.2038642534      -35.0963246635  WZ1       2106            0.0000000000
      2244       748  TIP3      H2             -7.3509803985       10.4509742534      -33.6393246635  WZ1       2106            0.0000000000
      2245       749  TIP3      OH2            -5.7360403985        9.4605242534      -26.0075646635  WZ1       2107            0.0000000000
      2246       749  TIP3      H1             -5.5964103985        8.8687742534      -26.7468646635  WZ1       2107            0.0000000000
      2247       749  TIP3      H2             -5.5687603985       10.3331142534      -26.3636846635  WZ1       2107            0.0000000000
      2248       750  TIP3      OH2           -11.2635003985        6.4224742534      -36.2349646635  WZ1       2108            0.0000000000
      2249       750  TIP3      H1            -11.9749503985        6.9574442534      -36.5869146635  WZ1       2108            0.0000000000
      2250       750  TIP3      H2            -10.5725403985        6.4776842534      -36.8950746635  WZ1       2108            0.0000000000
      2251       751  TIP3      OH2           -11.2095803985        4.8799042534      -39.1964646635  WZ1       2109            0.0000000000
      2252       751  TIP3      H1            -10.5085903985        4.9025942534      -38.5450646635  WZ1       2109            0.0000000000
      2253       751  TIP3      H2            -10.9072903985        4.2518742534      -39.8525346635  WZ1       2109            0.0000000000
      2254       752  TIP3      OH2            -3.8941103985        5.8003242534      -27.9415246635  WZ1       2110            0.0000000000
      2255       752  TIP3      H1             -4.5467003985        6.4948842534      -27.8524346635  WZ1       2110            0.0000000000
      2256       752  TIP3      H2             -3.4290803985        6.0104142534      -28.7513646635  WZ1       2110            0.0000000000
      2257       753  TIP3      OH2            -7.8577303985        6.6318042534      -35.2833746635  WZ1       2111            0.0000000000
      2258       753  TIP3      H1             -8.5896303985        6.8601742534      -34.7103146635  WZ1       2111            0.0000000000
      2259       753  TIP3      H2             -7.4105103985        5.9180742534      -34.8286246635  WZ1       2111            0.0000000000
      2260       754  TIP3      OH2            -7.9603803985        4.8060642534      -26.2156746635  WZ1       2112            0.0000000000
      2261       754  TIP3      H1             -7.8804703985        5.5695042534      -25.6438246635  WZ1       2112            0.0000000000
      2262       754  TIP3      H2             -8.5616103985        5.0853042534      -26.9061646635  WZ1       2112            0.0000000000
      2263       755  TIP3      OH2           -16.2123603985        7.2624242534      -33.4008746635  WZ1       2113            0.0000000000
      2264       755  TIP3      H1            -16.5428403985        6.8917642534      -34.2191746635  WZ1       2113            0.0000000000
      2265       755  TIP3      H2            -15.6239503985        6.5918242534      -33.0540446635  WZ1       2113            0.0000000000
      2266       756  TIP3      OH2           -14.8456103985       10.6904842534      -30.7196546635  WZ1       2114            0.0000000000
      2267       756  TIP3      H1            -14.9404803985       10.1117942534      -31.4761946635  WZ1       2114            0.0000000000
      2268       756  TIP3      H2            -14.1162503985       10.3190542534      -30.2233746635  WZ1       2114            0.0000000000
      2269       757  TIP3      OH2           -15.8458103985        6.0309842534      -29.7673746635  WZ1       2115            0.0000000000
      2270       757  TIP3      H1            -15.2805603985        6.1524042534      -30.5302546635  WZ1       2115            0.0000000000
      2271       757  TIP3      H2            -15.5269203985        6.6684842534      -29.1285246635  WZ1       2115            0.0000000000
      2272       758  TIP3      OH2            -9.5365903985       11.5341742534      -29.0333246635  WZ1       2116            0.0000000000
      2273       758  TIP3      H1             -9.7769303985       12.1964842534      -28.3854046635  WZ1       2116            0.0000000000
      2274       758  TIP3      H2             -9.7347703985       10.6996942534      -28.6083646635  WZ1       2116            0.0000000000
      2275       759  TIP3      OH2           -14.9657403985       10.4302542534      -25.0501846635  WZ1       2117            0.0000000000
      2276       759  TIP3      H1            -15.2769903985       11.2125742534      -24.5948646635  WZ1       2117            0.0000000000
      2277       759  TIP3      H2            -15.6157203985       10.2771642534      -25.7359846635  WZ1       2117            0.0000000000
      2278       760  TIP3      OH2            -8.9867803985        5.7940942534      -37.5982546635  WZ1       2118            0.0000000000
      2279       760  TIP3      H1             -8.4072303985        5.9441242534      -36.8513646635  WZ1       2118            0.0000000000
      2280       760  TIP3      H2             -8.5727803985        6.2648342534      -38.3216146635  WZ1       2118            0.0000000000
      2281       761  TIP3      OH2           -18.0457503985        6.6283642534      -25.8216146635  WZ1       2119            0.0000000000
      2282       761  TIP3      H1            -17.9754303985        7.2790442534      -25.1231146635  WZ1       2119            0.0000000000
      2283       761  TIP3      H2            -18.9365303985        6.7311142534      -26.1565246635  WZ1       2119            0.0000000000
      2284       762  TIP3      OH2           -11.2602903985       12.5309442534      -34.1629446635  WZ1       2120            0.0000000000
      2285       762  TIP3      H1            -10.7865303985       12.8265742534      -33.3855246635  WZ1       2120            0.0000000000
      2286       762  TIP3      H2            -11.8233603985       13.2691042534      -34.3959846635  WZ1       2120            0.0000000000
      2287       763  TIP3      OH2           -16.7261503985       12.5017542534      -24.2868046635  WZ1       2121            0.0000000000
      2288       763  TIP3      H1            -16.7186203985       12.3657242534      -25.2342546635  WZ1       2121            0.0000000000
      2289       763  TIP3      H2            -17.6421103985       12.3845642534      -24.0348046635  WZ1       2121            0.0000000000
      2290       764  TIP3      OH2            -5.2879403985       -2.4558657466      -37.7852846635  WZ1       2122            0.0000000000
      2291       764  TIP3      H1             -6.1878703985       -2.3169657466      -37.4902246635  WZ1       2122            0.0000000000
      2292       764  TIP3      H2             -5.0361003985       -1.6244057466      -38.1871146635  WZ1       2122            0.0000000000
      2293       765  TIP3      OH2           -17.2220903985        6.3318542534      -35.8115946635  WZ1       2123            0.0000000000
      2294       765  TIP3      H1            -17.5139603985        7.1000242534      -36.3024646635  WZ1       2123            0.0000000000
      2295       765  TIP3      H2            -17.8965703985        5.6724742534      -35.9744546635  WZ1       2123            0.0000000000
      2296       766  TIP3      OH2            -4.0988003985       11.9103742534      -39.4088946635  WZ1       2124            0.0000000000
      2297       766  TIP3      H1             -4.0254503985       12.8493942534      -39.2383646635  WZ1       2124            0.0000000000
      2298       766  TIP3      H2             -3.1932903985       11.6052342534      -39.4651646635  WZ1       2124            0.0000000000
      2299       767  TIP3      OH2           -21.1290803985        8.6947742534      -26.9966146635  WZ1       2125            0.0000000000
      2300       767  TIP3      H1            -21.6302403985        8.6667142534      -27.8116446635  WZ1       2125            0.0000000000
      2301       767  TIP3      H2            -21.1237103985        7.7890942534      -26.6868846635  WZ1       2125            0.0000000000
      2302       768  TIP3      OH2           -21.3788103985       11.4751542534      -30.1125946635  WZ1       2126            0.0000000000
      2303       768  TIP3      H1            -20.4327503985       11.3308542534      -30.1316446635  WZ1       2126            0.0000000000
      2304       768  TIP3      H2            -21.4911803985       12.2594342534      -29.5754746635  WZ1       2126            0.0000000000
      2305       769  TIP3      OH2            -3.1809603985       12.1411242534      -24.4302246635  WZ1       2127            0.0000000000
      2306       769  TIP3      H1             -3.2302803985       11.1859342534      -24.4674646635  WZ1       2127            0.0000000000
      2307       769  TIP3      H2             -4.0077303985       12.4086542534      -24.0288446635  WZ1       2127            0.0000000000
      2308       770  TIP3      OH2           -12.2025603985       11.7150442534      -25.5540846635  WZ1       2128            0.0000000000
      2309       770  TIP3      H1            -12.1151003985       12.5415042534      -25.0791746635  WZ1       2128            0.0000000000
      2310       770  TIP3      H2            -13.0660503985       11.3854242534      -25.3051546635  WZ1       2128            0.0000000000
      2311       771  TIP3      OH2           -11.7879803985       15.4874142534      -35.7480246635  WZ1       2129            0.0000000000
      2312       771  TIP3      H1            -11.8633803985       15.3661342534      -36.6945046635  WZ1       2129            0.0000000000
      2313       771  TIP3      H2            -11.7551103985       16.4366842534      -35.6295646635  WZ1       2129            0.0000000000
      2314       772  TIP3      OH2           -18.1346003985       14.2761142534      -33.9671246635  WZ1       2130            0.0000000000
      2315       772  TIP3      H1            -17.9825603985       13.9281542534      -33.0884746635  WZ1       2130            0.0000000000
      2316       772  TIP3      H2            -18.9855603985       13.9198442534      -34.2224046635  WZ1       2130            0.0000000000
      2317       773  TIP3      OH2            -8.6863803985       14.6414342534      -38.7457846635  WZ1       2131            0.0000000000
      2318       773  TIP3      H1             -8.3115403985       13.8970442534      -39.2165246635  WZ1       2131            0.0000000000
      2319       773  TIP3      H2             -8.6820103985       14.3714942534      -37.8274546635  WZ1       2131            0.0000000000
      2320       774  TIP3      OH2            -9.0175703985       14.5671442534      -35.9965646635  WZ1       2132            0.0000000000
      2321       774  TIP3      H1             -9.9525903985       14.6673342534      -35.8178646635  WZ1       2132            0.0000000000
      2322       774  TIP3      H2             -8.7373803985       13.8577442534      -35.4182446635  WZ1       2132            0.0000000000
      2323       775  TIP3      OH2            -6.0289803985        3.6343742534      -23.9500046635  WZ1       2133            0.0000000000
      2324       775  TIP3      H1             -6.4363003985        4.1149342534      -24.6706746635  WZ1       2133            0.0000000000
      2325       775  TIP3      H2             -5.9884103985        2.7289742534      -24.2579246635  WZ1       2133            0.0000000000
      2326       776  TIP3      OH2           -18.8800303985       10.0183142534      -25.9533346635  WZ1       2134            0.0000000000
      2327       776  TIP3      H1            -18.6639003985        9.6568742534      -25.0937546635  WZ1       2134            0.0000000000
      2328       776  TIP3      H2            -19.7355603985        9.6436942534      -26.1629846635  WZ1       2134            0.0000000000
      2329       777  TIP3      OH2           -16.2612303985       -1.5116357466      -29.9579146635  WZ1       2135            0.0000000000
      2330       777  TIP3      H1            -17.1228603985       -1.5988157466      -30.3656246635  WZ1       2135            0.0000000000
      2331       777  TIP3      H2            -16.2836603985       -0.6556257466      -29.5301546635  WZ1       2135            0.0000000000
      2332       778  TIP3      OH2           -11.5984503985       -1.7895957466      -26.5832146635  WZ1       2136            0.0000000000
      2333       778  TIP3      H1            -11.1781403985       -2.2048857466      -25.8301546635  WZ1       2136            0.0000000000
      2334       778  TIP3      H2            -12.5314903985       -1.9682657466      -26.4660146635  WZ1       2136            0.0000000000
      2335       779  TIP3      OH2            -8.2719603985        1.9659242534      -25.7297646635  WZ1       2137            0.0000000000
      2336       779  TIP3      H1             -8.7860103985        1.8401442534      -24.9321646635  WZ1       2137            0.0000000000
      2337       779  TIP3      H2             -8.4274903985        2.8782342534      -25.9741446635  WZ1       2137            0.0000000000
      2338       780  TIP3      OH2            -7.5094703985        6.8269242534      -39.9684646635  WZ1       2138            0.0000000000
      2339       780  TIP3      H1             -7.4673903985        6.6043142534      -40.8984646635  WZ1       2138            0.0000000000
      2340       780  TIP3      H2             -6.6602603985        7.2256342534      -39.7784746635  WZ1       2138            0.0000000000
      2341       781  TIP3      OH2           -16.1702203985        3.4538142534      -28.8628946635  WZ1       2140            0.0000000000
      2342       781  TIP3      H1            -16.8120103985        3.4135442534      -28.1538846635  WZ1       2140            0.0000000000
      2343       781  TIP3      H2            -16.1330203985        4.3802842534      -29.1005946635  WZ1       2140            0.0000000000
      2344       782  TIP3      OH2           -16.1733103985        3.6748242534      -33.9508946635  WZ1       2141            0.0000000000
      2345       782  TIP3      H1            -17.0660203985        3.3344342534      -34.0095146635  WZ1       2141            0.0000000000
      2346       782  TIP3      H2            -15.7226503985        3.2979142534      -34.7065746635  WZ1       2141            0.0000000000
      2347       783  TIP3      OH2           -10.6377603985        4.0908542534      -35.1338146635  WZ1       2142            0.0000000000
      2348       783  TIP3      H1            -11.0467303985        4.9057142534      -35.4253346635  WZ1       2142            0.0000000000
      2349       783  TIP3      H2             -9.9171403985        3.9508642534      -35.7481046635  WZ1       2142            0.0000000000
      2350       784  TIP3      OH2           -11.5356003985        4.2664942534      -23.6457446635  WZ1       2143            0.0000000000
      2351       784  TIP3      H1            -12.0982203985        3.5616542534      -23.3249646635  WZ1       2143            0.0000000000
      2352       784  TIP3      H2            -10.7092603985        4.1456842534      -23.1779846635  WZ1       2143            0.0000000000
      2353       785  TIP3      OH2            -9.6329903985        3.5368942534      -32.3198446635  WZ1       2144            0.0000000000
      2354       785  TIP3      H1             -9.8285403985        4.1425742534      -33.0347846635  WZ1       2144            0.0000000000
      2355       785  TIP3      H2             -9.4517303985        2.7034142534      -32.7542146635  WZ1       2144            0.0000000000
      2356       786  TIP3      OH2           -18.4201703985        3.7741642534      -26.9956946635  WZ1       2145            0.0000000000
      2357       786  TIP3      H1            -18.4582303985        4.1743242534      -26.1269846635  WZ1       2145            0.0000000000
      2358       786  TIP3      H2            -18.9110603985        2.9574042534      -26.9054046635  WZ1       2145            0.0000000000
      2359       787  TIP3      OH2           -21.8120903985        0.8903442534      -33.1452246635  WZ1       2147            0.0000000000
      2360       787  TIP3      H1            -21.1813203985        0.8615542534      -32.4258346635  WZ1       2147            0.0000000000
      2361       787  TIP3      H2            -21.3626603985        0.4652142534      -33.8756346635  WZ1       2147            0.0000000000
      2362       788  TIP3      OH2           -10.3690703985        5.1750242534      -27.6486046635  WZ1       2149            0.0000000000
      2363       788  TIP3      H1            -10.0455903985        4.5439942534      -28.2915546635  WZ1       2149            0.0000000000
      2364       788  TIP3      H2            -10.8091403985        4.6402442534      -26.9878646635  WZ1       2149            0.0000000000
      2365       789  TIP3      OH2           -13.5917803985        1.1025742534      -32.8644846635  WZ1       2150            0.0000000000
      2366       789  TIP3      H1            -14.5026703985        1.1592542534      -32.5758846635  WZ1       2150            0.0000000000
      2367       789  TIP3      H2            -13.0864903985        1.0421242534      -32.0537646635  WZ1       2150            0.0000000000
      2368       790  TIP3      OH2           -18.7634403985        2.7312042534      -34.0377246635  WZ1       2151            0.0000000000
      2369       790  TIP3      H1            -19.6526403985        2.8307542534      -34.3777646635  WZ1       2151            0.0000000000
      2370       790  TIP3      H2            -18.4669503985        1.8895042534      -34.3839346635  WZ1       2151            0.0000000000
      2371       791  TIP3      OH2           -15.1102603985        2.7314642534      -36.3812646635  WZ1       2152            0.0000000000
      2372       791  TIP3      H1            -14.1787103985        2.8604642534      -36.2029546635  WZ1       2152            0.0000000000
      2373       791  TIP3      H2            -15.3252303985        3.4008942534      -37.0307946635  WZ1       2152            0.0000000000
      2374       792  TIP3      OH2            -9.1865903985        0.3372042534      -29.6003046635  WZ1       2153            0.0000000000
      2375       792  TIP3      H1             -9.8634303985        0.4685142534      -28.9363346635  WZ1       2153            0.0000000000
      2376       792  TIP3      H2             -9.6721003985        0.1821542534      -30.4105346635  WZ1       2153            0.0000000000
      2377       793  TIP3      OH2            -5.8990803985       16.0087442534      -23.3235446635  WZ1       2155            0.0000000000
      2378       793  TIP3      H1             -5.6992103985       16.4329342534      -24.1580146635  WZ1       2155            0.0000000000
      2379       793  TIP3      H2             -5.2437103985       16.3525642534      -22.7165046635  WZ1       2155            0.0000000000
      2380       794  TIP3      OH2           -18.3011003985        8.4828742534      -23.7154946635  WZ1       2156            0.0000000000
      2381       794  TIP3      H1            -17.5688603985        8.7374642534      -23.1540446635  WZ1       2156            0.0000000000
      2382       794  TIP3      H2            -19.0812303985        8.6874142534      -23.1999546635  WZ1       2156            0.0000000000
      2383       795  TIP3      OH2           -12.2718103985        3.8898742534      -30.9775246635  WZ1       2157            0.0000000000
      2384       795  TIP3      H1            -11.7074703985        3.3435342534      -31.5245646635  WZ1       2157            0.0000000000
      2385       795  TIP3      H2            -12.4194703985        3.3680642534      -30.1887646635  WZ1       2157            0.0000000000
      2386       796  TIP3      OH2           -17.2698403985        0.0264842534      -34.5590446635  WZ1       2158            0.0000000000
      2387       796  TIP3      H1            -17.5868903985       -0.8759857466      -34.5945046635  WZ1       2158            0.0000000000
      2388       796  TIP3      H2            -16.4884303985        0.0282242534      -35.1118846635  WZ1       2158            0.0000000000
      2389       797  TIP3      OH2           -13.6452203985        2.2784842534      -28.5634846635  WZ1       2159            0.0000000000
      2390       797  TIP3      H1            -14.4806903985        2.7324342534      -28.4532446635  WZ1       2159            0.0000000000
      2391       797  TIP3      H2            -13.1211603985        2.5543342534      -27.8114946635  WZ1       2159            0.0000000000
      2392       798  TIP3      OH2           -13.1009603985        8.4912542534      -36.8788446635  WZ1       2160            0.0000000000
      2393       798  TIP3      H1            -13.8458603985        7.9837842534      -37.2010546635  WZ1       2160            0.0000000000
      2394       798  TIP3      H2            -13.2352403985        8.5400542534      -35.9323646635  WZ1       2160            0.0000000000
      2395       799  TIP3      OH2            -5.9510703985        7.6240742534      -28.0920846635  WZ1       2161            0.0000000000
      2396       799  TIP3      H1             -5.3091903985        8.0807042534      -28.6358646635  WZ1       2161            0.0000000000
      2397       799  TIP3      H2             -6.7813803985        7.7373142534      -28.5546746635  WZ1       2161            0.0000000000
      2398       800  TIP3      OH2            -9.2032803985        1.3052442534      -38.6795846635  WZ1       2162            0.0000000000
      2399       800  TIP3      H1            -10.1418603985        1.4168042534      -38.8307046635  WZ1       2162            0.0000000000
      2400       800  TIP3      H2             -8.9060703985        2.1619342534      -38.3730146635  WZ1       2162            0.0000000000
      2401       801  TIP3      OH2           -11.5817503985        8.6755842534      -25.6419346635  WZ1       2163            0.0000000000
      2402       801  TIP3      H1            -11.9271403985        8.2938242534      -24.8349746635  WZ1       2163            0.0000000000
      2403       801  TIP3      H2            -11.7817403985        9.6089442534      -25.5706446635  WZ1       2163            0.0000000000
      2404       802  TIP3      OH2            -8.4849303985        3.1725142534      -37.0188446635  WZ1       2164            0.0000000000
      2405       802  TIP3      H1             -7.5930303985        3.0350142534      -36.6997246635  WZ1       2164            0.0000000000
      2406       802  TIP3      H2             -8.4285703985        3.9631242534      -37.5554946635  WZ1       2164            0.0000000000
      2407       803  TIP3      OH2           -17.9761303985        7.7862542534      -31.1090546635  WZ1       2165            0.0000000000
      2408       803  TIP3      H1            -17.2314103985        7.7838242534      -31.7104046635  WZ1       2165            0.0000000000
      2409       803  TIP3      H2            -17.8984703985        6.9626342534      -30.6275446635  WZ1       2165            0.0000000000
      2410       804  TIP3      OH2           -10.9755503985        9.9496842534      -37.8533846635  WZ1       2166            0.0000000000
      2411       804  TIP3      H1            -11.2707103985       10.7764742534      -37.4719046635  WZ1       2166            0.0000000000
      2412       804  TIP3      H2            -11.6785503985        9.3303742534      -37.6572446635  WZ1       2166            0.0000000000
      2413       805  TIP3      OH2           -20.9681603985        6.2469442534      -25.7942046635  WZ1       2167            0.0000000000
      2414       805  TIP3      H1            -20.7453003985        5.8289042534      -24.9624546635  WZ1       2167            0.0000000000
      2415       805  TIP3      H2            -21.5701503985        5.6344442534      -26.2169246635  WZ1       2167            0.0000000000
      2416       806  TIP3      OH2           -13.9516703985        5.7639342534      -23.5812346635  WZ1       2168            0.0000000000
      2417       806  TIP3      H1            -14.2475903985        5.5982342534      -24.4763246635  WZ1       2168            0.0000000000
      2418       806  TIP3      H2            -13.0201503985        5.5439642534      -23.5918446635  WZ1       2168            0.0000000000
      2419       807  TIP3      OH2            -9.3313903985       11.1371342534      -25.6914346635  WZ1       2169            0.0000000000
      2420       807  TIP3      H1            -10.2319603985       11.3203942534      -25.9590446635  WZ1       2169            0.0000000000
      2421       807  TIP3      H2             -9.2972803985       11.3960642534      -24.7705546635  WZ1       2169            0.0000000000
      2422       808  TIP3      OH2            -3.6000603985        3.3819242534      -37.3241746635  WZ1       2170            0.0000000000
      2423       808  TIP3      H1             -4.1544303985        2.9857242534      -37.9964246635  WZ1       2170            0.0000000000
      2424       808  TIP3      H2             -3.4997003985        4.2924442534      -37.6018446635  WZ1       2170            0.0000000000
      2425       809  TIP3      OH2            -3.6368603985        9.1820942534      -24.4870246635  WZ1       2171            0.0000000000
      2426       809  TIP3      H1             -4.4880103985        9.4204742534      -24.8543846635  WZ1       2171            0.0000000000
      2427       809  TIP3      H2             -3.0465203985        9.1654142534      -25.2403146635  WZ1       2171            0.0000000000
      2428       810  TIP3      OH2            -5.3048903985       12.1679642534      -36.8589646635  WZ1       2172            0.0000000000
      2429       810  TIP3      H1             -5.6777803985       11.3423442534      -36.5499046635  WZ1       2172            0.0000000000
      2430       810  TIP3      H2             -5.0275403985       11.9849042534      -37.7566246635  WZ1       2172            0.0000000000
      2431       811  TIP3      OH2            -8.1445003985        6.9759142534      -29.8377746635  WZ1       2173            0.0000000000
      2432       811  TIP3      H1             -9.0728103985        6.7441042534      -29.8648446635  WZ1       2173            0.0000000000
      2433       811  TIP3      H2             -7.6933903985        6.1988942534      -30.1678946635  WZ1       2173            0.0000000000
      2434       812  TIP3      OH2           -15.6011903985       11.3040742534      -33.7049046635  WZ1       2174            0.0000000000
      2435       812  TIP3      H1            -15.0739703985       12.0775142534      -33.9050246635  WZ1       2174            0.0000000000
      2436       812  TIP3      H2            -16.4813403985       11.5289942534      -34.0065046635  WZ1       2174            0.0000000000
      2437       813  TIP3      OH2           -14.1739603985        8.9670642534      -34.1284746635  WZ1       2176            0.0000000000
      2438       813  TIP3      H1            -14.4149603985        9.8925042534      -34.0869446635  WZ1       2176            0.0000000000
      2439       813  TIP3      H2            -14.9146003985        8.5081942534      -33.7320846635  WZ1       2176            0.0000000000
      2440       814  TIP3      OH2           -13.6593003985       13.1164242534      -27.8133646635  WZ1       2177            0.0000000000
      2441       814  TIP3      H1            -13.2968303985       13.9709842534      -28.0469246635  WZ1       2177            0.0000000000
      2442       814  TIP3      H2            -13.1277803985       12.8245842534      -27.0727346635  WZ1       2177            0.0000000000
      2443       815  TIP3      OH2           -15.4908803985       13.9888242534      -34.5832546635  WZ1       2178            0.0000000000
      2444       815  TIP3      H1            -16.4408303985       14.0945642534      -34.5319246635  WZ1       2178            0.0000000000
      2445       815  TIP3      H2            -15.1390703985       14.8095642534      -34.2385046635  WZ1       2178            0.0000000000
      2446       816  TIP3      OH2           -10.1152203985        9.2154942534      -28.1128046635  WZ1       2179            0.0000000000
      2447       816  TIP3      H1            -10.5410903985        8.9876642534      -27.2864046635  WZ1       2179            0.0000000000
      2448       816  TIP3      H2             -9.5346403985        8.4766742534      -28.2952746635  WZ1       2179            0.0000000000
      2449       817  TIP3      OH2            -7.9123303985       10.1445442534      -39.0389046635  WZ1       2180            0.0000000000
      2450       817  TIP3      H1             -7.5590203985        9.7645242534      -38.2345546635  WZ1       2180            0.0000000000
      2451       817  TIP3      H2             -8.8609803985       10.0510242534      -38.9519746635  WZ1       2180            0.0000000000
      2452       818  TIP3      OH2            -7.4568003985       13.7674442534      -25.6433246635  WZ1       2181            0.0000000000
      2453       818  TIP3      H1             -8.0584803985       13.2117342534      -26.1386946635  WZ1       2181            0.0000000000
      2454       818  TIP3      H2             -7.1754303985       14.4344242534      -26.2695846635  WZ1       2181            0.0000000000
      2455       819  TIP3      OH2            -3.4088903985       14.6237942534      -38.8378846635  WZ1       2182            0.0000000000
      2456       819  TIP3      H1             -2.6651003985       15.2098442534      -38.9777246635  WZ1       2182            0.0000000000
      2457       819  TIP3      H2             -4.1030803985       15.1923742534      -38.5046446635  WZ1       2182            0.0000000000
      2458       820  TIP3      OH2           -19.3342103985        1.0002142534      -26.2360646635  WZ1       2183            0.0000000000
      2459       820  TIP3      H1            -20.2269803985        1.3387542534      -26.3036646635  WZ1       2183            0.0000000000
      2460       820  TIP3      H2            -19.4329303985        0.1448242534      -25.8179846635  WZ1       2183            0.0000000000
      2461       821  TIP3      OH2            -7.0464003985        8.8167442534      -36.8121146635  WZ1       2184            0.0000000000
      2462       821  TIP3      H1             -7.3236403985        8.0886742534      -36.2560046635  WZ1       2184            0.0000000000
      2463       821  TIP3      H2             -6.1191003985        8.9359442534      -36.6068546635  WZ1       2184            0.0000000000
      2464       822  TIP3      OH2           -19.6830103985       12.8046542534      -27.8011246635  WZ1       2185            0.0000000000
      2465       822  TIP3      H1            -19.4659803985       11.8728942534      -27.8321546635  WZ1       2185            0.0000000000
      2466       822  TIP3      H2            -19.4366603985       13.0791542534      -26.9178446635  WZ1       2185            0.0000000000
      2467       823  TIP3      OH2           -13.8215503985       11.2561542534      -40.5919046635  WZ1       2186            0.0000000000
      2468       823  TIP3      H1            -13.5825703985       10.5079642534      -41.1390146635  WZ1       2186            0.0000000000
      2469       823  TIP3      H2            -14.0904203985       10.8683242534      -39.7591246635  WZ1       2186            0.0000000000
      2470       824  TIP3      OH2           -14.8844903985       10.8265342534      -38.1356446635  WZ1       2187            0.0000000000
      2471       824  TIP3      H1            -14.7376903985       10.3065142534      -37.3455546635  WZ1       2187            0.0000000000
      2472       824  TIP3      H2            -14.8873203985       11.7332942534      -37.8290546635  WZ1       2187            0.0000000000
      2473       825  TIP3      OH2           -18.4313803985        8.0788642534      -37.6251046635  WZ1       2188            0.0000000000
      2474       825  TIP3      H1            -19.1174503985        8.4311142534      -37.0581346635  WZ1       2188            0.0000000000
      2475       825  TIP3      H2            -17.9085903985        8.8418242534      -37.8716746635  WZ1       2188            0.0000000000
      2476       826  TIP3      OH2           -10.5998703985        0.7412442534      -27.3462046635  WZ1       2189            0.0000000000
      2477       826  TIP3      H1             -9.9010803985        0.8151142534      -26.6962346635  WZ1       2189            0.0000000000
      2478       826  TIP3      H2            -10.9807303985       -0.1232557466      -27.1919146635  WZ1       2189            0.0000000000
      2479       827  TIP3      OH2            -9.8153803985        0.3934142534      -36.2489746635  WZ1       2190            0.0000000000
      2480       827  TIP3      H1             -9.5955503985        0.8649542534      -37.0524346635  WZ1       2190            0.0000000000
      2481       827  TIP3      H2             -9.2569803985        0.7876742534      -35.5789146635  WZ1       2190            0.0000000000
      2482       828  TIP3      OH2           -12.1467703985       12.5238942534      -37.3862246635  WZ1       2191            0.0000000000
      2483       828  TIP3      H1            -12.9631603985       13.0208642534      -37.3337946635  WZ1       2191            0.0000000000
      2484       828  TIP3      H2            -11.6171403985       12.9992442534      -38.0263446635  WZ1       2191            0.0000000000
      2485       829  TIP3      OH2           -12.6153903985        2.1212942534      -35.4141346635  WZ1       2192            0.0000000000
      2486       829  TIP3      H1            -11.8031303985        2.6256142534      -35.3679646635  WZ1       2192            0.0000000000
      2487       829  TIP3      H2            -12.8600903985        1.9762642534      -34.5001746635  WZ1       2192            0.0000000000
      2488       830  TIP3      OH2           -12.0797503985        3.1075642534      -26.2294746635  WZ1       2193            0.0000000000
      2489       830  TIP3      H1            -11.9607203985        3.6811042534      -25.4724346635  WZ1       2193            0.0000000000
      2490       830  TIP3      H2            -11.4242903985        2.4195042534      -26.1146946635  WZ1       2193            0.0000000000
      2491       831  TIP3      OH2           -11.7317203985       -0.7974057466      -34.4760246635  WZ1       2194            0.0000000000
      2492       831  TIP3      H1            -12.0783703985       -0.1803457466      -33.8315946635  WZ1       2194            0.0000000000
      2493       831  TIP3      H2            -11.0730303985       -0.2968357466      -34.9574746635  WZ1       2194            0.0000000000
      2494       832  TIP3      OH2           -14.8084603985       13.5676142534      -37.4045346635  WZ1       2195            0.0000000000
      2495       832  TIP3      H1            -14.6475903985       14.3673642534      -37.9052746635  WZ1       2195            0.0000000000
      2496       832  TIP3      H2            -15.0056803985       13.8742142534      -36.5194746635  WZ1       2195            0.0000000000
      2497       833  TIP3      OH2            -5.8751703985        1.0145942534      -25.3945046635  WZ1       2197            0.0000000000
      2498       833  TIP3      H1             -6.7915903985        1.2767642534      -25.4821346635  WZ1       2197            0.0000000000
      2499       833  TIP3      H2             -5.5396703985        1.0114942534      -26.2909746635  WZ1       2197            0.0000000000
      2500       834  TIP3      OH2            -7.2730703985        4.7646942534      -31.2987746635  WZ1       2198            0.0000000000
      2501       834  TIP3      H1             -8.0706303985        4.3497142534      -31.6272746635  WZ1       2198            0.0000000000
      2502       834  TIP3      H2             -6.8279603985        4.0740642534      -30.8077246635  WZ1       2198            0.0000000000
      2503       835  TIP3      OH2           -17.8154903985       10.6927542534      -38.7283246635  WZ1       2199            0.0000000000
      2504       835  TIP3      H1            -17.2233403985       11.3922342534      -38.4520846635  WZ1       2199            0.0000000000
      2505       835  TIP3      H2            -17.3561903985       10.2597042534      -39.4478646635  WZ1       2199            0.0000000000
      2506       836  TIP3      OH2            -6.1866103985       14.0209442534      -29.6764246635  WZ1       2201            0.0000000000
      2507       836  TIP3      H1             -6.3421803985       14.6993842534      -30.3334946635  WZ1       2201            0.0000000000
      2508       836  TIP3      H2             -5.2539703985       14.0928742534      -29.4733646635  WZ1       2201            0.0000000000
      2509       837  TIP3      OH2           -18.6913703985       -1.8612857466      -30.9392846635  WZ1       2202            0.0000000000
      2510       837  TIP3      H1            -18.9203903985       -1.8020357466      -31.8667846635  WZ1       2202            0.0000000000
      2511       837  TIP3      H2            -19.1340303985       -2.6527357466      -30.6328746635  WZ1       2202            0.0000000000
      2512       838  TIP3      OH2           -19.7610403985       12.0794242534      -34.7787046635  WZ1       2203            0.0000000000
      2513       838  TIP3      H1            -20.5931803985       12.5516942534      -34.7515646635  WZ1       2203            0.0000000000
      2514       838  TIP3      H2            -19.2152103985       12.5891842534      -35.3773946635  WZ1       2203            0.0000000000
      2515       839  TIP3      OH2           -20.4726703985       14.6917942534      -23.4489046635  WZ1       2204            0.0000000000
      2516       839  TIP3      H1            -19.9324503985       14.4751942534      -22.6889846635  WZ1       2204            0.0000000000
      2517       839  TIP3      H2            -20.9538703985       13.8863942534      -23.6386546635  WZ1       2204            0.0000000000
      2518       840  TIP3      OH2           -15.8753303985       13.6112342534      -21.8284846635  WZ1       2205            0.0000000000
      2519       840  TIP3      H1            -15.1076103985       13.1523142534      -21.4875646635  WZ1       2205            0.0000000000
      2520       840  TIP3      H2            -15.8967103985       13.3852142534      -22.7583646635  WZ1       2205            0.0000000000
      2521       841  TIP3      OH2           -11.7833703985       13.1192942534      -40.4533046635  WZ1       2206            0.0000000000
      2522       841  TIP3      H1            -12.4272703985       12.4881542534      -40.1319346635  WZ1       2206            0.0000000000
      2523       841  TIP3      H2            -11.0215403985       12.5880942534      -40.6849546635  WZ1       2206            0.0000000000
      2524       842  TIP3      OH2            -9.2984603985       11.9913442534      -23.0993346635  WZ1       2207            0.0000000000
      2525       842  TIP3      H1             -9.6495103985       11.1346442534      -22.8562946635  WZ1       2207            0.0000000000
      2526       842  TIP3      H2             -8.5721403985       12.1340142534      -22.4924346635  WZ1       2207            0.0000000000
      2527       843  TIP3      OH2            -7.1790803985       12.9362842534      -40.2195046635  WZ1       2208            0.0000000000
      2528       843  TIP3      H1             -6.8960403985       12.1418042534      -39.7668146635  WZ1       2208            0.0000000000
      2529       843  TIP3      H2             -6.4392903985       13.1693842534      -40.7803946635  WZ1       2208            0.0000000000
      2530       844  TIP3      OH2           -20.5657203985        8.5022042534      -22.4944746635  WZ1       2209            0.0000000000
      2531       844  TIP3      H1            -20.4216703985        7.6002742534      -22.7808046635  WZ1       2209            0.0000000000
      2532       844  TIP3      H2            -21.3379803985        8.7884142534      -22.9822446635  WZ1       2209            0.0000000000
      2533       845  TIP3      OH2           -13.9101103985        8.4720142534      -23.0618346635  WZ1       2211            0.0000000000
      2534       845  TIP3      H1            -14.2387303985        8.7428242534      -23.9190946635  WZ1       2211            0.0000000000
      2535       845  TIP3      H2            -13.7582903985        7.5309942534      -23.1493346635  WZ1       2211            0.0000000000
      2536       846  TIP3      OH2           -10.8720103985        9.8929442534      -40.6262146635  WZ1       2212            0.0000000000
      2537       846  TIP3      H1            -11.1406003985       10.0731542534      -39.7253246635  WZ1       2212            0.0000000000
      2538       846  TIP3      H2            -11.0784503985        8.9675642534      -40.7576346635  WZ1       2212            0.0000000000
      2539       847  TIP3      OH2            -8.1755903985        8.3877442534      -25.6786046635  WZ1       2213            0.0000000000
      2540       847  TIP3      H1             -7.4301103985        8.9761142534      -25.7982046635  WZ1       2213            0.0000000000
      2541       847  TIP3      H2             -8.9329103985        8.9697142534      -25.6152946635  WZ1       2213            0.0000000000
      2542       848  TIP3      OH2           -19.7330703985        5.7025342534      -23.0745446635  WZ1       2214            0.0000000000
      2543       848  TIP3      H1            -19.3249503985        4.8451942534      -23.1954846635  WZ1       2214            0.0000000000
      2544       848  TIP3      H2            -19.9933103985        5.7166642534      -22.1535146635  WZ1       2214            0.0000000000
      2545       849  TIP3      OH2           -15.0749703985        6.8183942534      -38.0562146635  WZ1       2215            0.0000000000
      2546       849  TIP3      H1            -15.5347703985        6.3342242534      -37.3703646635  WZ1       2215            0.0000000000
      2547       849  TIP3      H2            -14.8201003985        6.1499342534      -38.6921646635  WZ1       2215            0.0000000000
      2548       850  TIP3      OH2           -15.7860403985        4.7111042534      -25.7002546635  WZ1       2216            0.0000000000
      2549       850  TIP3      H1            -16.4044303985        5.3857642534      -25.4197846635  WZ1       2216            0.0000000000
      2550       850  TIP3      H2            -15.4419203985        5.0324942534      -26.5336346635  WZ1       2216            0.0000000000
      2551       851  TIP3      OH2           -10.7662203985        7.1826342534      -22.4227746635  WZ1       2218            0.0000000000
      2552       851  TIP3      H1             -9.8131003985        7.2665442534      -22.4501746635  WZ1       2218            0.0000000000
      2553       851  TIP3      H2            -10.9267603985        6.4708142534      -21.8032846635  WZ1       2218            0.0000000000
      2554       852  TIP3      OH2            -4.6141003985        7.4159942534      -40.3480846635  WZ1       2219            0.0000000000
      2555       852  TIP3      H1             -4.8876203985        6.9915442534      -41.1612546635  WZ1       2219            0.0000000000
      2556       852  TIP3      H2             -4.5746903985        8.3474442534      -40.5650446635  WZ1       2219            0.0000000000
      2557       853  TIP3      OH2           -15.4466703985        2.0661842534      -24.6179446635  WZ1       2220            0.0000000000
      2558       853  TIP3      H1            -15.2965803985        1.3373142534      -25.2199746635  WZ1       2220            0.0000000000
      2559       853  TIP3      H2            -15.4444303985        2.8433542534      -25.1767246635  WZ1       2220            0.0000000000
      2560       854  TIP3      OH2           -15.0341003985        0.4357642534      -27.1252046635  WZ1       2221            0.0000000000
      2561       854  TIP3      H1            -14.4983503985        0.8874342534      -27.7772746635  WZ1       2221            0.0000000000
      2562       854  TIP3      H2            -15.8861403985        0.3277442534      -27.5477946635  WZ1       2221            0.0000000000
      2563       855  TIP3      OH2           -13.4522603985        5.8753842534      -26.8856846635  WZ1       2222            0.0000000000
      2564       855  TIP3      H1            -12.7017803985        5.7191342534      -27.4589046635  WZ1       2222            0.0000000000
      2565       855  TIP3      H2            -13.7914303985        6.7270442534      -27.1611346635  WZ1       2222            0.0000000000
      2566       856  TIP3      OH2            -9.0366403985        3.6905642534      -21.8571546635  WZ1       2223            0.0000000000
      2567       856  TIP3      H1             -8.8445103985        2.7595042534      -21.9687046635  WZ1       2223            0.0000000000
      2568       856  TIP3      H2             -8.1790103985        4.1155142534      -21.8676146635  WZ1       2223            0.0000000000
      2569       857  TIP3      OH2            -7.7199203985        6.4790842534      -23.7798846635  WZ1       2224            0.0000000000
      2570       857  TIP3      H1             -8.0014203985        7.1885442534      -24.3575046635  WZ1       2224            0.0000000000
      2571       857  TIP3      H2             -6.7774903985        6.4063842534      -23.9307646635  WZ1       2224            0.0000000000
      2572       858  TIP3      OH2           -16.9680403985        3.2645342534      -22.7063846635  WZ1       2225            0.0000000000
      2573       858  TIP3      H1            -17.7351403985        2.7320142534      -22.9166246635  WZ1       2225            0.0000000000
      2574       858  TIP3      H2            -16.2891403985        2.9545742534      -23.3057546635  WZ1       2225            0.0000000000
      2575       859  TIP3      OH2           -14.2285503985       -2.1076657466      -26.6938446635  WZ1       2226            0.0000000000
      2576       859  TIP3      H1            -14.3265903985       -1.1613457466      -26.7992246635  WZ1       2226            0.0000000000
      2577       859  TIP3      H2            -14.9709303985       -2.4802857466      -27.1694946635  WZ1       2226            0.0000000000
      2578       860  TIP3      OH2           -12.9645003985        2.2138742534      -23.1300046635  WZ1       2227            0.0000000000
      2579       860  TIP3      H1            -13.1999603985        1.9945442534      -22.2285146635  WZ1       2227            0.0000000000
      2580       860  TIP3      H2            -13.7478103985        2.0069942534      -23.6397546635  WZ1       2227            0.0000000000
      2581       861  TIP3      OH2           -10.2488403985        1.3412242534      -24.0546546635  WZ1       2228            0.0000000000
      2582       861  TIP3      H1            -11.1963003985        1.3731942534      -23.9223246635  WZ1       2228            0.0000000000
      2583       861  TIP3      H2             -9.9361703985        0.7159342534      -23.4008346635  WZ1       2228            0.0000000000
      2584       862  TIP3      OH2            -8.6146903985       -0.0246657466      -22.0494646635  WZ1       2229            0.0000000000
      2585       862  TIP3      H1             -8.7115103985       -0.9769357466      -22.0552746635  WZ1       2229            0.0000000000
      2586       862  TIP3      H2             -8.9363803985        0.2440142534      -21.1889146635  WZ1       2229            0.0000000000
      2587       863  TIP3      OH2           -18.7877603985        1.1849142534      -23.0019146635  WZ1       2230            0.0000000000
      2588       863  TIP3      H1            -18.5760203985        0.4785242534      -23.6121646635  WZ1       2230            0.0000000000
      2589       863  TIP3      H2            -18.8990103985        0.7475142534      -22.1577946635  WZ1       2230            0.0000000000
      2590       864  TIP3      OH2           -14.0067403985       -2.8139257466      -24.0225646635  WZ1       2231            0.0000000000
      2591       864  TIP3      H1            -13.2949003985       -3.4537057466      -24.0366546635  WZ1       2231            0.0000000000
      2592       864  TIP3      H2            -14.1077003985       -2.5470957466      -24.9362546635  WZ1       2231            0.0000000000
      2593       865  TIP3      OH2           -13.6529903985       -1.1310857466      -21.9689346635  WZ1       2232            0.0000000000
      2594       865  TIP3      H1            -13.7847703985       -1.6067057466      -22.7890846635  WZ1       2232            0.0000000000
      2595       865  TIP3      H2            -14.2522503985       -0.3867257466      -22.0242246635  WZ1       2232            0.0000000000
      2596       866  TIP3      OH2           -14.1067603985       15.7519442534      -38.7925346635  WZ1       2233            0.0000000000
      2597       866  TIP3      H1            -13.1736903985       15.9098142534      -38.6486946635  WZ1       2233            0.0000000000
      2598       866  TIP3      H2            -14.3708803985       16.4272442534      -39.4173846635  WZ1       2233            0.0000000000
      2599       867  TIP3      OH2           -21.8892103985       15.7811742534      -34.2323346635  WZ1       2235            0.0000000000
      2600       867  TIP3      H1            -22.5365003985       15.3193442534      -34.7652146635  WZ1       2235            0.0000000000
      2601       867  TIP3      H2            -21.5347503985       15.1095042534      -33.6497146635  WZ1       2235            0.0000000000
      2602       868  TIP3      OH2           -21.0192903985       13.8618742534      -32.4277146635  WZ1       2236            0.0000000000
      2603       868  TIP3      H1            -21.3536103985       12.9816042534      -32.2556946635  WZ1       2236            0.0000000000
      2604       868  TIP3      H2            -20.7970503985       14.2073742534      -31.5631546635  WZ1       2236            0.0000000000
      2605       869  TIP3      OH2            -3.4708103985       14.6715142534      -29.4472346635  WZ1       2237            0.0000000000
      2606       869  TIP3      H1             -3.4921403985       14.8563542534      -28.5082946635  WZ1       2237            0.0000000000
      2607       869  TIP3      H2             -2.7801903985       15.2399142534      -29.7880946635  WZ1       2237            0.0000000000
      2608       870  TIP3      OH2            -3.9075203985       14.2386242534      -26.5253246635  WZ1       2238            0.0000000000
      2609       870  TIP3      H1             -4.3946503985       13.5030342534      -26.8965846635  WZ1       2238            0.0000000000
      2610       870  TIP3      H2             -3.3582503985       13.8450142534      -25.8473846635  WZ1       2238            0.0000000000
      2611       871  TIP3      OH2            -5.4567903985       10.0284342534      -21.8872946635  WZ1       2239            0.0000000000
      2612       871  TIP3      H1             -6.3226803985        9.9234042534      -21.4930646635  WZ1       2239            0.0000000000
      2613       871  TIP3      H2             -5.0802003985       10.7867642534      -21.4408246635  WZ1       2239            0.0000000000
      2614       872  TIP3      OH2            -4.1558203985        8.2848042534      -36.3730446635  WZ1       2240            0.0000000000
      2615       872  TIP3      H1             -3.3056803985        8.7058942534      -36.2458846635  WZ1       2240            0.0000000000
      2616       872  TIP3      H2             -4.1503103985        7.5448142534      -35.7659046635  WZ1       2240            0.0000000000
      2617       873  TIP3      OH2            -3.7612603985        6.3385442534      -34.5494746635  WZ1       2241            0.0000000000
      2618       873  TIP3      H1             -4.4878003985        5.8588042534      -34.1517146635  WZ1       2241            0.0000000000
      2619       873  TIP3      H2             -3.1799303985        6.5440142534      -33.8173146635  WZ1       2241            0.0000000000
      2620       874  TIP3      OH2            -4.0021403985        9.1232942534      -29.6017146635  WZ1       2242            0.0000000000
      2621       874  TIP3      H1             -3.1687203985        8.7452942534      -29.8823546635  WZ1       2242            0.0000000000
      2622       874  TIP3      H2             -3.8901103985       10.0664142534      -29.7208046635  WZ1       2242            0.0000000000
      2623       875  TIP3      OH2            -5.5159103985       12.0010442534      -27.2948746635  WZ1       2243            0.0000000000
      2624       875  TIP3      H1             -6.1633803985       12.3261942534      -26.6693546635  WZ1       2243            0.0000000000
      2625       875  TIP3      H2             -6.0335103985       11.5608142534      -27.9690446635  WZ1       2243            0.0000000000
      2626       876  TIP3      OH2            -3.4929503985        6.2393942534      -38.1583446635  WZ1       2244            0.0000000000
      2627       876  TIP3      H1             -4.0148403985        6.5958042534      -38.8772546635  WZ1       2244            0.0000000000
      2628       876  TIP3      H2             -3.5260303985        6.9141742534      -37.4802546635  WZ1       2244            0.0000000000
      2629       877  TIP3      OH2            -5.1440503985        3.4789542534      -39.6076346635  WZ1       2245            0.0000000000
      2630       877  TIP3      H1             -5.0476103985        4.1456542534      -40.2876646635  WZ1       2245            0.0000000000
      2631       877  TIP3      H2             -5.2840903985        2.6635842534      -40.0890846635  WZ1       2245            0.0000000000
      2632       878  TIP3      OH2            -5.9745803985        4.8591942534      -33.9866046635  WZ1       2246            0.0000000000
      2633       878  TIP3      H1             -6.1247003985        3.9140542534      -34.0068246635  WZ1       2246            0.0000000000
      2634       878  TIP3      H2             -6.3281303985        5.1403342534      -33.1426946635  WZ1       2246            0.0000000000
      2635       879  TIP3      OH2           -20.9393403985        6.9374142534      -29.9762246635  WZ1       2247            0.0000000000
      2636       879  TIP3      H1            -20.7550503985        6.8555842534      -30.9119346635  WZ1       2247            0.0000000000
      2637       879  TIP3      H2            -20.0900503985        6.8131142534      -29.5525846635  WZ1       2247            0.0000000000
      2638       880  TIP3      OH2            -5.1182903985        6.8295242534      -24.3477746635  WZ1       2248            0.0000000000
      2639       880  TIP3      H1             -4.5355603985        6.0947542534      -24.1560546635  WZ1       2248            0.0000000000
      2640       880  TIP3      H2             -4.5543603985        7.6015542534      -24.3011946635  WZ1       2248            0.0000000000
      2641       881  TIP3      OH2            -3.6215803985        4.7321042534      -23.6632346635  WZ1       2249            0.0000000000
      2642       881  TIP3      H1             -4.4849103985        4.3533142534      -23.8287646635  WZ1       2249            0.0000000000
      2643       881  TIP3      H2             -3.0172103985        3.9935842534      -23.7376546635  WZ1       2249            0.0000000000
      2644       882  TIP3      OH2            -5.8966703985        0.8869342534      -40.4900846635  WZ1       2250            0.0000000000
      2645       882  TIP3      H1             -5.2860903985        0.5156142534      -39.8532646635  WZ1       2250            0.0000000000
      2646       882  TIP3      H2             -6.7335203985        0.4656242534      -40.2940846635  WZ1       2250            0.0000000000
      2647       883  TIP3      OH2            -6.2641003985        2.4417742534      -35.5240946635  WZ1       2251            0.0000000000
      2648       883  TIP3      H1             -5.9843903985        1.5348142534      -35.3999246635  WZ1       2251            0.0000000000
      2649       883  TIP3      H2             -5.5049303985        2.8759242534      -35.9131746635  WZ1       2251            0.0000000000
      2650       884  TIP3      OH2            -5.6522703985        3.0235142534      -30.0882046635  WZ1       2252            0.0000000000
      2651       884  TIP3      H1             -4.7194703985        3.2355042534      -30.1226046635  WZ1       2252            0.0000000000
      2652       884  TIP3      H2             -5.8875203985        3.1247242534      -29.1659046635  WZ1       2252            0.0000000000
      2653       885  TIP3      OH2            -5.6230803985        3.7600442534      -27.3122646635  WZ1       2253            0.0000000000
      2654       885  TIP3      H1             -6.4659503985        4.0280842534      -26.9462846635  WZ1       2253            0.0000000000
      2655       885  TIP3      H2             -5.1806503985        4.5822342534      -27.5231546635  WZ1       2253            0.0000000000
      2656       886  TIP3      OH2           -21.3418603985        2.2079142534      -23.8353446635  WZ1       2254            0.0000000000
      2657       886  TIP3      H1            -20.4223703985        2.0857442534      -23.5990346635  WZ1       2254            0.0000000000
      2658       886  TIP3      H2            -21.7914103985        1.4578842534      -23.4459946635  WZ1       2254            0.0000000000
      2659       887  TIP3      OH2            -3.3399203985       -2.2599357466      -21.9587646635  WZ1       2255            0.0000000000
      2660       887  TIP3      H1             -2.9902203985       -2.9135857466      -22.5642946635  WZ1       2255            0.0000000000
      2661       887  TIP3      H2             -3.1929703985       -1.4225257466      -22.3985046635  WZ1       2255            0.0000000000
      2662       888  TIP3      OH2            -5.6506203985       -0.2952957466      -35.4758946635  WZ1       2256            0.0000000000
      2663       888  TIP3      H1             -5.4681203985       -0.7441457466      -34.6503946635  WZ1       2256            0.0000000000
      2664       888  TIP3      H2             -6.2503303985       -0.8798557466      -35.9394346635  WZ1       2256            0.0000000000
      2665       889  TIP3      OH2           -20.1206103985        0.5200742534      -30.9440546635  WZ1       2257            0.0000000000
      2666       889  TIP3      H1            -19.6754503985       -0.2716757466      -30.6420846635  WZ1       2257            0.0000000000
      2667       889  TIP3      H2            -19.6543103985        1.2365942534      -30.5134946635  WZ1       2257            0.0000000000
      2668       890  TIP3      OH2           -21.8165803985        3.5193742534      -29.8750346635  WZ1       2258            0.0000000000
      2669       890  TIP3      H1            -21.3246003985        3.2984242534      -30.6658346635  WZ1       2258            0.0000000000
      2670       890  TIP3      H2            -21.4544903985        4.3597142534      -29.5940846635  WZ1       2258            0.0000000000
      2671       891  TIP3      OH2            -3.8202003985       -0.1504757466      -23.6096346635  WZ1       2259            0.0000000000
      2672       891  TIP3      H1             -4.7376303985        0.1202342534      -23.6452846635  WZ1       2259            0.0000000000
      2673       891  TIP3      H2             -3.6972603985       -0.6856357466      -24.3936646635  WZ1       2259            0.0000000000
      2674       892  TIP3      OH2            -3.7840003985       -0.2274857466      -38.9478646635  WZ1       2260            0.0000000000
      2675       892  TIP3      H1             -3.3717403985       -0.9489157466      -39.4230646635  WZ1       2260            0.0000000000
      2676       892  TIP3      H2             -3.1023503985        0.4419742534      -38.8894346635  WZ1       2260            0.0000000000
      2677       893  TIP3      OH2            -6.7322103985       14.7614542534      -33.8750546635  WZ1       2262            0.0000000000
      2678       893  TIP3      H1             -6.0799203985       14.4136642534      -34.4831446635  WZ1       2262            0.0000000000
      2679       893  TIP3      H2             -6.2218303985       15.2497742534      -33.2290846635  WZ1       2262            0.0000000000
      2680       894  TIP3      OH2           -21.5393903985       -1.4848157466      -27.4765446635  WZ1       2263            0.0000000000
      2681       894  TIP3      H1            -22.2043403985       -1.7307857466      -26.8334546635  WZ1       2263            0.0000000000
      2682       894  TIP3      H2            -21.9822603985       -0.8627757466      -28.0537446635  WZ1       2263            0.0000000000
      2683       895  TIP3      OH2           -19.3474603985       11.6905942534      -23.3319646635  WZ1       2264            0.0000000000
      2684       895  TIP3      H1            -20.1682103985       11.8652442534      -23.7924946635  WZ1       2264            0.0000000000
      2685       895  TIP3      H2            -19.5996803985       11.6170642534      -22.4115246635  WZ1       2264            0.0000000000
      2686       896  TIP3      OH2           -16.3931703985       12.6647142534      -27.0735646635  WZ1       2265            0.0000000000
      2687       896  TIP3      H1            -16.8180603985       13.4745642534      -27.3561046635  WZ1       2265            0.0000000000
      2688       896  TIP3      H2            -15.4888903985       12.7501242534      -27.3755846635  WZ1       2265            0.0000000000
      2689       897  TIP3      OH2           -12.0820303985       14.0637142534      -24.1141946635  WZ1       2266            0.0000000000
      2690       897  TIP3      H1            -11.8972803985       13.7303242534      -23.2361646635  WZ1       2266            0.0000000000
      2691       897  TIP3      H2            -11.2355803985       14.3735742534      -24.4362746635  WZ1       2266            0.0000000000
      2692       898  TIP3      OH2            -9.7369903985       15.3496042534      -24.8700546635  WZ1       2267            0.0000000000
      2693       898  TIP3      H1             -9.0601003985       14.7168342534      -25.1101346635  WZ1       2267            0.0000000000
      2694       898  TIP3      H2             -9.4151103985       15.7506542534      -24.0627246635  WZ1       2267            0.0000000000
      2695       899  TIP3      OH2            -4.8196103985       -2.0608457466      -25.7905546635  WZ1       2268            0.0000000000
      2696       899  TIP3      H1             -5.6322603985       -1.7358157466      -26.1780846635  WZ1       2268            0.0000000000
      2697       899  TIP3      H2             -4.5867603985       -2.8209957466      -26.3236446635  WZ1       2268            0.0000000000
      2698       900  TIP3      OH2           -18.9915003985       15.9211042534      -27.0260346635  WZ1       2269            0.0000000000
      2699       900  TIP3      H1            -19.7118603985       16.3612042534      -27.4772646635  WZ1       2269            0.0000000000
      2700       900  TIP3      H2            -19.3571003985       15.6705742534      -26.1776346635  WZ1       2269            0.0000000000
      2701       901  TIP3      OH2           -16.5242403985       15.5214942534      -27.9963146635  WZ1       2270            0.0000000000
      2702       901  TIP3      H1            -17.3890203985       15.5933442534      -27.5923046635  WZ1       2270            0.0000000000
      2703       901  TIP3      H2            -16.5793403985       16.0682242534      -28.7800646635  WZ1       2270            0.0000000000
      2704       902  TIP3      OH2           -11.8136803985       15.4093842534      -28.8207146635  WZ1       2271            0.0000000000
      2705       902  TIP3      H1            -12.2702803985       15.9383542534      -29.4748746635  WZ1       2271            0.0000000000
      2706       902  TIP3      H2            -11.6508803985       16.0125242534      -28.0954846635  WZ1       2271            0.0000000000
      2707       903  TIP3      OH2            -9.4860503985       14.2873442534      -27.8756846635  WZ1       2272            0.0000000000
      2708       903  TIP3      H1            -10.3906803985       14.4523642534      -28.1414746635  WZ1       2272            0.0000000000
      2709       903  TIP3      H2             -9.0571903985       15.1405642534      -27.9413446635  WZ1       2272            0.0000000000
      2710       904  TIP3      OH2            -6.8818603985       15.8572542534      -27.5809046635  WZ1       2273            0.0000000000
      2711       904  TIP3      H1             -7.0636603985       16.7731442534      -27.7914146635  WZ1       2273            0.0000000000
      2712       904  TIP3      H2             -6.7050803985       15.4469642534      -28.4274446635  WZ1       2273            0.0000000000
      2713       905  TIP3      OH2           -19.5766903985       14.5443542534      -30.1158546635  WZ1       2274            0.0000000000
      2714       905  TIP3      H1            -19.5950903985       14.1188642534      -29.2586246635  WZ1       2274            0.0000000000
      2715       905  TIP3      H2            -18.7719003985       14.2258542534      -30.5246346635  WZ1       2274            0.0000000000
      2716       906  TIP3      OH2           -17.4353803985       13.2542242534      -31.4608646635  WZ1       2275            0.0000000000
      2717       906  TIP3      H1            -17.6543103985       12.3379642534      -31.2912646635  WZ1       2275            0.0000000000
      2718       906  TIP3      H2            -16.6111603985       13.3942642534      -30.9947246635  WZ1       2275            0.0000000000
      2719       907  TIP3      OH2           -14.8981303985       13.7241542534      -30.6120646635  WZ1       2276            0.0000000000
      2720       907  TIP3      H1            -14.6855603985       12.8360542534      -30.8989746635  WZ1       2276            0.0000000000
      2721       907  TIP3      H2            -14.8336203985       13.6899242534      -29.6576646635  WZ1       2276            0.0000000000
      2722       908  TIP3      OH2           -11.3897603985       -0.6117857466      -31.4677346635  WZ1       2277            0.0000000000
      2723       908  TIP3      H1            -12.0640803985       -1.2412257466      -31.2121546635  WZ1       2277            0.0000000000
      2724       908  TIP3      H2            -10.8258403985       -1.0958957466      -32.0709446635  WZ1       2277            0.0000000000
      2725       909  TIP3      OH2            -6.2470403985       -2.5043857466      -31.3550246635  WZ1       2278            0.0000000000
      2726       909  TIP3      H1             -5.6432803985       -1.9568457466      -31.8569246635  WZ1       2278            0.0000000000
      2727       909  TIP3      H2             -7.1168403985       -2.1853457466      -31.5956146635  WZ1       2278            0.0000000000
      2728       910  TIP3      OH2            -4.5200003985       -1.3655157466      -33.0219346635  WZ1       2279            0.0000000000
      2729       910  TIP3      H1             -3.9082503985       -1.8799457466      -33.5485746635  WZ1       2279            0.0000000000
      2730       910  TIP3      H2             -4.1376603985       -0.4883057466      -32.9984946635  WZ1       2279            0.0000000000
      2731       911  TIP3      OH2           -14.4837503985       -2.0510457466      -33.8324346635  WZ1       2282            0.0000000000
      2732       911  TIP3      H1            -13.6094103985       -1.6626157466      -33.8620046635  WZ1       2282            0.0000000000
      2733       911  TIP3      H2            -14.6196703985       -2.2662657466      -32.9097146635  WZ1       2282            0.0000000000
      2734       912  TIP3      OH2            -8.9269103985       -2.0210657466      -32.1832646635  WZ1       2283            0.0000000000
      2735       912  TIP3      H1             -8.8507503985       -1.9259057466      -33.1326646635  WZ1       2283            0.0000000000
      2736       912  TIP3      H2             -9.2019903985       -2.9287757466      -32.0543546635  WZ1       2283            0.0000000000
      2737       913  TIP3      OH2            -7.5736503985       -1.9952857466      -36.4907646635  WZ1       2284            0.0000000000
      2738       913  TIP3      H1             -8.2765403985       -1.3803657466      -36.7006246635  WZ1       2284            0.0000000000
      2739       913  TIP3      H2             -8.0185103985       -2.8326157466      -36.3596746635  WZ1       2284            0.0000000000
      2740       914  TIP3      OH2           -13.3397503985        0.0293542534      -36.9426746635  WZ1       2287            0.0000000000
      2741       914  TIP3      H1            -13.1616203985       -0.6173257466      -36.2598146635  WZ1       2287            0.0000000000
      2742       914  TIP3      H2            -13.3931303985        0.8631242534      -36.4755646635  WZ1       2287            0.0000000000
      2743       915  TIP3      OH2           -11.4613703985       14.9777642534      -38.5470046635  WZ1       2288            0.0000000000
      2744       915  TIP3      H1            -10.5953503985       15.3445042534      -38.7251846635  WZ1       2288            0.0000000000
      2745       915  TIP3      H2            -11.7080903985       14.5385642534      -39.3609246635  WZ1       2288            0.0000000000
      2746       916  TIP3      OH2            -4.7524103985       14.5407942534      -35.8678946635  WZ1       2289            0.0000000000
      2747       916  TIP3      H1             -4.9467003985       13.7930042534      -36.4329346635  WZ1       2289            0.0000000000
      2748       916  TIP3      H2             -4.7914003985       15.2988042534      -36.4511046635  WZ1       2289            0.0000000000
      2749       917  TIP3      OH2           -19.1052103985       -1.4635657466      -24.1281246635  WZ1       2290            0.0000000000
      2750       917  TIP3      H1            -19.4713903985       -2.2293057466      -23.6856546635  WZ1       2290            0.0000000000
      2751       917  TIP3      H2            -18.1923603985       -1.4345457466      -23.8416146635  WZ1       2290            0.0000000000
      2752       918  TIP3      OH2           -17.1321303985       -2.1131257466      -22.5924146635  WZ1       2291            0.0000000000
      2753       918  TIP3      H1            -16.2337703985       -2.3871057466      -22.7770746635  WZ1       2291            0.0000000000
      2754       918  TIP3      H2            -17.5188203985       -2.8555257466      -22.1281546635  WZ1       2291            0.0000000000
      2755       919  TIP3      OH2            -8.7109003985       -2.7805957466      -22.4101346635  WZ1       2293            0.0000000000
      2756       919  TIP3      H1             -8.6341803985       -3.2065257466      -21.5563646635  WZ1       2293            0.0000000000
      2757       919  TIP3      H2             -7.8172403985       -2.7671257466      -22.7527846635  WZ1       2293            0.0000000000
      2758       920  TIP3      OH2            -5.5347903985       13.2920342534      -23.7177146635  WZ1       2294            0.0000000000
      2759       920  TIP3      H1             -6.3166003985       13.1058342534      -24.2376546635  WZ1       2294            0.0000000000
      2760       920  TIP3      H2             -5.6068003985       14.2214642534      -23.5004646635  WZ1       2294            0.0000000000
      2761       921  TIP3      OH2             8.8712496015        7.1784742534      -33.6869946635  WZ1       2295            0.0000000000
      2762       921  TIP3      H1              8.9603596015        8.1222942534      -33.8192846635  WZ1       2295            0.0000000000
      2763       921  TIP3      H2              8.2330096015        6.9031142534      -34.3450546635  WZ1       2295            0.0000000000
      2764       922  TIP3      OH2             7.8043796015        6.4335442534      -30.2681746635  WZ1       2296            0.0000000000
      2765       922  TIP3      H1              7.7661296015        5.7871742534      -29.5632146635  WZ1       2296            0.0000000000
      2766       922  TIP3      H2              7.4820296015        5.9669842534      -31.0393046635  WZ1       2296            0.0000000000
      2767       923  TIP3      OH2             0.1728796015        6.0477542534      -28.6751846635  WZ1       2297            0.0000000000
      2768       923  TIP3      H1              0.2140896015        5.4220842534      -27.9519446635  WZ1       2297            0.0000000000
      2769       923  TIP3      H2              0.8756496015        6.6716142534      -28.4931446635  WZ1       2297            0.0000000000
      2770       924  TIP3      OH2            11.5103996015        9.3725842534      -31.9666646635  WZ1       2298            0.0000000000
      2771       924  TIP3      H1             11.0696696015        8.6521842534      -31.5161046635  WZ1       2298            0.0000000000
      2772       924  TIP3      H2             11.4973696015       10.0933042534      -31.3368946635  WZ1       2298            0.0000000000
      2773       925  TIP3      OH2             1.0961896015       10.4976442534      -30.1402746635  WZ1       2299            0.0000000000
      2774       925  TIP3      H1              0.7267096015        9.6956942534      -30.5098446635  WZ1       2299            0.0000000000
      2775       925  TIP3      H2              2.0372996015       10.3291342534      -30.0939346635  WZ1       2299            0.0000000000
      2776       926  TIP3      OH2            -2.2937603985        4.1579042534      -34.7473946635  WZ1       2300            0.0000000000
      2777       926  TIP3      H1             -2.7414203985        5.0037742534      -34.7657446635  WZ1       2300            0.0000000000
      2778       926  TIP3      H2             -2.8546403985        3.5783242534      -35.2628846635  WZ1       2300            0.0000000000
      2779       927  TIP3      OH2            -1.5831503985        6.3198642534      -32.6215946635  WZ1       2301            0.0000000000
      2780       927  TIP3      H1             -1.3698003985        5.5500242534      -32.0942946635  WZ1       2301            0.0000000000
      2781       927  TIP3      H2             -0.8453903985        6.4095342534      -33.2248346635  WZ1       2301            0.0000000000
      2782       928  TIP3      OH2             8.6219496015       14.4767542534      -31.7546246635  WZ1       2302            0.0000000000
      2783       928  TIP3      H1              9.2415896015       13.8002242534      -32.0277046635  WZ1       2302            0.0000000000
      2784       928  TIP3      H2              8.4136896015       14.2588342534      -30.8461346635  WZ1       2302            0.0000000000
      2785       929  TIP3      OH2             6.1938196015        8.8656842534      -29.8620746635  WZ1       2303            0.0000000000
      2786       929  TIP3      H1              6.4976096015        8.1798242534      -30.4566646635  WZ1       2303            0.0000000000
      2787       929  TIP3      H2              6.9152196015        8.9845542534      -29.2442746635  WZ1       2303            0.0000000000
      2788       930  TIP3      OH2            14.8567996015        0.4672142534      -29.0014546635  WZ1       2304            0.0000000000
      2789       930  TIP3      H1             14.9060196015        1.0773342534      -28.2655446635  WZ1       2304            0.0000000000
      2790       930  TIP3      H2             15.2823096015        0.9283042534      -29.7243446635  WZ1       2304            0.0000000000
      2791       931  TIP3      OH2             9.3345196015        3.2599242534      -29.5345946635  WZ1       2305            0.0000000000
      2792       931  TIP3      H1              9.4771096015        2.3136242534      -29.5144346635  WZ1       2305            0.0000000000
      2793       931  TIP3      H2              9.2284196015        3.4669042534      -30.4631046635  WZ1       2305            0.0000000000
      2794       932  TIP3      OH2             2.4893496015        1.3615642534      -32.2621146635  WZ1       2306            0.0000000000
      2795       932  TIP3      H1              2.5324596015        2.2214142534      -32.6804846635  WZ1       2306            0.0000000000
      2796       932  TIP3      H2              2.0317596015        0.8090342534      -32.8957946635  WZ1       2306            0.0000000000
      2797       933  TIP3      OH2            10.2116196015        1.4921242534      -33.8612846635  WZ1       2307            0.0000000000
      2798       933  TIP3      H1             10.8580496015        1.1634442534      -33.2365246635  WZ1       2307            0.0000000000
      2799       933  TIP3      H2             10.7215596015        2.0100242534      -34.4841446635  WZ1       2307            0.0000000000
      2800       934  TIP3      OH2            -0.8905003985        3.7581442534      -31.4999746635  WZ1       2308            0.0000000000
      2801       934  TIP3      H1             -0.2368403985        3.2083142534      -31.0679646635  WZ1       2308            0.0000000000
      2802       934  TIP3      H2             -0.8665703985        3.4840442534      -32.4167746635  WZ1       2308            0.0000000000
      2803       935  TIP3      OH2             4.2659496015        5.3082742534      -32.2848246635  WZ1       2309            0.0000000000
      2804       935  TIP3      H1              4.8820496015        4.7818142534      -31.7754246635  WZ1       2309            0.0000000000
      2805       935  TIP3      H2              3.6798296015        4.6681442534      -32.6884646635  WZ1       2309            0.0000000000
      2806       936  TIP3      OH2            15.2482596015        1.9451342534      -26.7654746635  WZ1       2310            0.0000000000
      2807       936  TIP3      H1             14.5597196015        2.6032042534      -26.8608146635  WZ1       2310            0.0000000000
      2808       936  TIP3      H2             15.2637196015        1.7479242534      -25.8289346635  WZ1       2310            0.0000000000
      2809       937  TIP3      OH2             1.2995396015        0.2794042534      -28.1880346635  WZ1       2311            0.0000000000
      2810       937  TIP3      H1              1.0807096015        0.8094642534      -28.9544346635  WZ1       2311            0.0000000000
      2811       937  TIP3      H2              0.6316296015        0.5059542534      -27.5408946635  WZ1       2311            0.0000000000
      2812       938  TIP3      OH2             8.6685196015        9.7795142534      -34.6441246635  WZ1       2312            0.0000000000
      2813       938  TIP3      H1              8.3730296015        9.4567442534      -35.4954346635  WZ1       2312            0.0000000000
      2814       938  TIP3      H2              8.3442996015       10.6791842534      -34.6028646635  WZ1       2312            0.0000000000
      2815       939  TIP3      OH2             3.8686796015        7.9549742534      -27.9006646635  WZ1       2313            0.0000000000
      2816       939  TIP3      H1              3.1285896015        8.5531242534      -27.7971446635  WZ1       2313            0.0000000000
      2817       939  TIP3      H2              4.5826296015        8.5089342534      -28.2163046635  WZ1       2313            0.0000000000
      2818       940  TIP3      OH2            11.9754596015        0.7830542534      -31.8806946635  WZ1       2314            0.0000000000
      2819       940  TIP3      H1             11.7602596015        0.0173942534      -31.3480946635  WZ1       2314            0.0000000000
      2820       940  TIP3      H2             12.6311996015        1.2555142534      -31.3678446635  WZ1       2314            0.0000000000
      2821       941  TIP3      OH2             0.8932696015        2.1715842534      -30.2358146635  WZ1       2315            0.0000000000
      2822       941  TIP3      H1              1.5068996015        2.8043442534      -29.8625746635  WZ1       2315            0.0000000000
      2823       941  TIP3      H2              1.4053396015        1.6990842534      -30.8921246635  WZ1       2315            0.0000000000
      2824       942  TIP3      OH2             2.2761096015        9.9192742534      -27.1135146635  WZ1       2316            0.0000000000
      2825       942  TIP3      H1              2.2708696015       10.7986242534      -27.4915846635  WZ1       2316            0.0000000000
      2826       942  TIP3      H2              1.4225196015        9.8356842534      -26.6885246635  WZ1       2316            0.0000000000
      2827       943  TIP3      OH2            -1.6028003985        9.5900642534      -36.3315846635  WZ1       2317            0.0000000000
      2828       943  TIP3      H1             -1.8747103985        9.8191642534      -37.2202946635  WZ1       2317            0.0000000000
      2829       943  TIP3      H2             -1.5572303985       10.4279442534      -35.8710546635  WZ1       2317            0.0000000000
      2830       944  TIP3      OH2            12.0221696015       11.2116542534      -29.6187346635  WZ1       2318            0.0000000000
      2831       944  TIP3      H1             11.0805396015       11.2700442534      -29.4570446635  WZ1       2318            0.0000000000
      2832       944  TIP3      H2             12.2987796015       12.1177042534      -29.7557646635  WZ1       2318            0.0000000000
      2833       945  TIP3      OH2            12.3228696015       -0.5018157466      -28.2013446635  WZ1       2319            0.0000000000
      2834       945  TIP3      H1             11.5867896015        0.1088942534      -28.2392146635  WZ1       2319            0.0000000000
      2835       945  TIP3      H2             13.0062696015       -0.0869157466      -28.7277046635  WZ1       2319            0.0000000000
      2836       946  TIP3      OH2             5.3260096015       -2.4150857466      -30.7355446635  WZ1       2320            0.0000000000
      2837       946  TIP3      H1              5.2084296015       -3.3634857466      -30.7897146635  WZ1       2320            0.0000000000
      2838       946  TIP3      H2              4.4710196015       -2.0824757466      -30.4624346635  WZ1       2320            0.0000000000
      2839       947  TIP3      OH2            10.2742896015       12.9930042534      -32.9935746635  WZ1       2321            0.0000000000
      2840       947  TIP3      H1             10.6995196015       12.2857942534      -33.4786146635  WZ1       2321            0.0000000000
      2841       947  TIP3      H2             10.5912896015       13.7942742534      -33.4103546635  WZ1       2321            0.0000000000
      2842       948  TIP3      OH2            11.4339396015       10.8938542534      -34.4849146635  WZ1       2322            0.0000000000
      2843       948  TIP3      H1             11.1764196015       10.2038642534      -35.0963246635  WZ1       2322            0.0000000000
      2844       948  TIP3      H2             11.5050196015       10.4509742534      -33.6393246635  WZ1       2322            0.0000000000
      2845       949  TIP3      OH2            13.1199596015        9.4605242534      -26.0075646635  WZ1       2323            0.0000000000
      2846       949  TIP3      H1             13.2595896015        8.8687742534      -26.7468646635  WZ1       2323            0.0000000000
      2847       949  TIP3      H2             13.2872396015       10.3331142534      -26.3636846635  WZ1       2323            0.0000000000
      2848       950  TIP3      OH2             7.5924996015        6.4224742534      -36.2349646635  WZ1       2324            0.0000000000
      2849       950  TIP3      H1              6.8810496015        6.9574442534      -36.5869146635  WZ1       2324            0.0000000000
      2850       950  TIP3      H2              8.2834596015        6.4776842534      -36.8950746635  WZ1       2324            0.0000000000
      2851       951  TIP3      OH2            14.9618896015        5.8003242534      -27.9415246635  WZ1       2326            0.0000000000
      2852       951  TIP3      H1             14.3092996015        6.4948842534      -27.8524346635  WZ1       2326            0.0000000000
      2853       951  TIP3      H2             15.4269196015        6.0104142534      -28.7513646635  WZ1       2326            0.0000000000
      2854       952  TIP3      OH2            10.9982696015        6.6318042534      -35.2833746635  WZ1       2327            0.0000000000
      2855       952  TIP3      H1             10.2663696015        6.8601742534      -34.7103146635  WZ1       2327            0.0000000000
      2856       952  TIP3      H2             11.4454896015        5.9180742534      -34.8286246635  WZ1       2327            0.0000000000
      2857       953  TIP3      OH2            10.8956196015        4.8060642534      -26.2156746635  WZ1       2328            0.0000000000
      2858       953  TIP3      H1             10.9755296015        5.5695042534      -25.6438246635  WZ1       2328            0.0000000000
      2859       953  TIP3      H2             10.2943896015        5.0853042534      -26.9061646635  WZ1       2328            0.0000000000
      2860       954  TIP3      OH2             2.6436396015        7.2624242534      -33.4008746635  WZ1       2329            0.0000000000
      2861       954  TIP3      H1              2.3131596015        6.8917642534      -34.2191746635  WZ1       2329            0.0000000000
      2862       954  TIP3      H2              3.2320496015        6.5918242534      -33.0540446635  WZ1       2329            0.0000000000
      2863       955  TIP3      OH2             4.0103896015       10.6904842534      -30.7196546635  WZ1       2330            0.0000000000
      2864       955  TIP3      H1              3.9155196015       10.1117942534      -31.4761946635  WZ1       2330            0.0000000000
      2865       955  TIP3      H2              4.7397496015       10.3190542534      -30.2233746635  WZ1       2330            0.0000000000
      2866       956  TIP3      OH2             3.0101896015        6.0309842534      -29.7673746635  WZ1       2331            0.0000000000
      2867       956  TIP3      H1              3.5754396015        6.1524042534      -30.5302546635  WZ1       2331            0.0000000000
      2868       956  TIP3      H2              3.3290796015        6.6684842534      -29.1285246635  WZ1       2331            0.0000000000
      2869       957  TIP3      OH2             9.3194096015       11.5341742534      -29.0333246635  WZ1       2332            0.0000000000
      2870       957  TIP3      H1              9.0790696015       12.1964842534      -28.3854046635  WZ1       2332            0.0000000000
      2871       957  TIP3      H2              9.1212296015       10.6996942534      -28.6083646635  WZ1       2332            0.0000000000
      2872       958  TIP3      OH2             3.8902596015       10.4302542534      -25.0501846635  WZ1       2333            0.0000000000
      2873       958  TIP3      H1              3.5790096015       11.2125742534      -24.5948646635  WZ1       2333            0.0000000000
      2874       958  TIP3      H2              3.2402796015       10.2771642534      -25.7359846635  WZ1       2333            0.0000000000
      2875       959  TIP3      OH2             0.8102496015        6.6283642534      -25.8216146635  WZ1       2335            0.0000000000
      2876       959  TIP3      H1              0.8805696015        7.2790442534      -25.1231146635  WZ1       2335            0.0000000000
      2877       959  TIP3      H2             -0.0805303985        6.7311142534      -26.1565246635  WZ1       2335            0.0000000000
      2878       960  TIP3      OH2             7.5957096015       12.5309442534      -34.1629446635  WZ1       2336            0.0000000000
      2879       960  TIP3      H1              8.0694696015       12.8265742534      -33.3855246635  WZ1       2336            0.0000000000
      2880       960  TIP3      H2              7.0326396015       13.2691042534      -34.3959846635  WZ1       2336            0.0000000000
      2881       961  TIP3      OH2             2.1298496015       12.5017542534      -24.2868046635  WZ1       2337            0.0000000000
      2882       961  TIP3      H1              2.1373796015       12.3657242534      -25.2342546635  WZ1       2337            0.0000000000
      2883       961  TIP3      H2              1.2138896015       12.3845642534      -24.0348046635  WZ1       2337            0.0000000000
      2884       962  TIP3      OH2            13.5680596015       -2.4558657466      -37.7852846635  WZ1       2338            0.0000000000
      2885       962  TIP3      H1             12.6681296015       -2.3169657466      -37.4902246635  WZ1       2338            0.0000000000
      2886       962  TIP3      H2             13.8198996015       -1.6244057466      -38.1871146635  WZ1       2338            0.0000000000
      2887       963  TIP3      OH2             1.6339096015        6.3318542534      -35.8115946635  WZ1       2339            0.0000000000
      2888       963  TIP3      H1              1.3420396015        7.1000242534      -36.3024646635  WZ1       2339            0.0000000000
      2889       963  TIP3      H2              0.9594296015        5.6724742534      -35.9744546635  WZ1       2339            0.0000000000
      2890       964  TIP3      OH2            -2.2730803985        8.6947742534      -26.9966146635  WZ1       2341            0.0000000000
      2891       964  TIP3      H1             -2.7742403985        8.6667142534      -27.8116446635  WZ1       2341            0.0000000000
      2892       964  TIP3      H2             -2.2677103985        7.7890942534      -26.6868846635  WZ1       2341            0.0000000000
      2893       965  TIP3      OH2            -2.5228103985       11.4751542534      -30.1125946635  WZ1       2342            0.0000000000
      2894       965  TIP3      H1             -1.5767503985       11.3308542534      -30.1316446635  WZ1       2342            0.0000000000
      2895       965  TIP3      H2             -2.6351803985       12.2594342534      -29.5754746635  WZ1       2342            0.0000000000
      2896       966  TIP3      OH2            15.6750396015       12.1411242534      -24.4302246635  WZ1       2343            0.0000000000
      2897       966  TIP3      H1             15.6257196015       11.1859342534      -24.4674646635  WZ1       2343            0.0000000000
      2898       966  TIP3      H2             14.8482696015       12.4086542534      -24.0288446635  WZ1       2343            0.0000000000
      2899       967  TIP3      OH2             6.6534396015       11.7150442534      -25.5540846635  WZ1       2344            0.0000000000
      2900       967  TIP3      H1              6.7408996015       12.5415042534      -25.0791746635  WZ1       2344            0.0000000000
      2901       967  TIP3      H2              5.7899496015       11.3854242534      -25.3051546635  WZ1       2344            0.0000000000
      2902       968  TIP3      OH2             0.7213996015       14.2761142534      -33.9671246635  WZ1       2346            0.0000000000
      2903       968  TIP3      H1              0.8734396015       13.9281542534      -33.0884746635  WZ1       2346            0.0000000000
      2904       968  TIP3      H2             -0.1295603985       13.9198442534      -34.2224046635  WZ1       2346            0.0000000000
      2905       969  TIP3      OH2            12.8270196015        3.6343742534      -23.9500046635  WZ1       2349            0.0000000000
      2906       969  TIP3      H1             12.4196996015        4.1149342534      -24.6706746635  WZ1       2349            0.0000000000
      2907       969  TIP3      H2             12.8675896015        2.7289742534      -24.2579246635  WZ1       2349            0.0000000000
      2908       970  TIP3      OH2            -0.0240303985       10.0183142534      -25.9533346635  WZ1       2350            0.0000000000
      2909       970  TIP3      H1              0.1920996015        9.6568742534      -25.0937546635  WZ1       2350            0.0000000000
      2910       970  TIP3      H2             -0.8795603985        9.6436942534      -26.1629846635  WZ1       2350            0.0000000000
      2911       971  TIP3      OH2             2.5947696015       -1.5116357466      -29.9579146635  WZ1       2351            0.0000000000
      2912       971  TIP3      H1              1.7331396015       -1.5988157466      -30.3656246635  WZ1       2351            0.0000000000
      2913       971  TIP3      H2              2.5723396015       -0.6556257466      -29.5301546635  WZ1       2351            0.0000000000
      2914       972  TIP3      OH2             7.2575496015       -1.7895957466      -26.5832146635  WZ1       2352            0.0000000000
      2915       972  TIP3      H1              7.6778596015       -2.2048857466      -25.8301546635  WZ1       2352            0.0000000000
      2916       972  TIP3      H2              6.3245096015       -1.9682657466      -26.4660146635  WZ1       2352            0.0000000000
      2917       973  TIP3      OH2            10.5840396015        1.9659242534      -25.7297646635  WZ1       2353            0.0000000000
      2918       973  TIP3      H1             10.0699896015        1.8401442534      -24.9321646635  WZ1       2353            0.0000000000
      2919       973  TIP3      H2             10.4285096015        2.8782342534      -25.9741446635  WZ1       2353            0.0000000000
      2920       974  TIP3      OH2             6.9192796015        0.7027442534      -39.2981346635  WZ1       2355            0.0000000000
      2921       974  TIP3      H1              6.6657596015        0.7219042534      -38.3753246635  WZ1       2355            0.0000000000
      2922       974  TIP3      H2              6.6624896015       -0.1687157466      -39.5995146635  WZ1       2355            0.0000000000
      2923       975  TIP3      OH2             2.6857796015        3.4538142534      -28.8628946635  WZ1       2356            0.0000000000
      2924       975  TIP3      H1              2.0439896015        3.4135442534      -28.1538846635  WZ1       2356            0.0000000000
      2925       975  TIP3      H2              2.7229796015        4.3802842534      -29.1005946635  WZ1       2356            0.0000000000
      2926       976  TIP3      OH2             2.6826896015        3.6748242534      -33.9508946635  WZ1       2357            0.0000000000
      2927       976  TIP3      H1              1.7899796015        3.3344342534      -34.0095146635  WZ1       2357            0.0000000000
      2928       976  TIP3      H2              3.1333496015        3.2979142534      -34.7065746635  WZ1       2357            0.0000000000
      2929       977  TIP3      OH2             8.2182396015        4.0908542534      -35.1338146635  WZ1       2358            0.0000000000
      2930       977  TIP3      H1              7.8092696015        4.9057142534      -35.4253346635  WZ1       2358            0.0000000000
      2931       977  TIP3      H2              8.9388596015        3.9508642534      -35.7481046635  WZ1       2358            0.0000000000
      2932       978  TIP3      OH2             7.3203996015        4.2664942534      -23.6457446635  WZ1       2359            0.0000000000
      2933       978  TIP3      H1              6.7577796015        3.5616542534      -23.3249646635  WZ1       2359            0.0000000000
      2934       978  TIP3      H2              8.1467396015        4.1456842534      -23.1779846635  WZ1       2359            0.0000000000
      2935       979  TIP3      OH2             9.2230096015        3.5368942534      -32.3198446635  WZ1       2360            0.0000000000
      2936       979  TIP3      H1              9.0274596015        4.1425742534      -33.0347846635  WZ1       2360            0.0000000000
      2937       979  TIP3      H2              9.4042696015        2.7034142534      -32.7542146635  WZ1       2360            0.0000000000
      2938       980  TIP3      OH2             0.4358296015        3.7741642534      -26.9956946635  WZ1       2361            0.0000000000
      2939       980  TIP3      H1              0.3977696015        4.1743242534      -26.1269846635  WZ1       2361            0.0000000000
      2940       980  TIP3      H2             -0.0550603985        2.9574042534      -26.9054046635  WZ1       2361            0.0000000000
      2941       981  TIP3      OH2             3.8015696015        1.1483942534      -40.1970946635  WZ1       2362            0.0000000000
      2942       981  TIP3      H1              3.3706396015        0.7034042534      -39.4673546635  WZ1       2362            0.0000000000
      2943       981  TIP3      H2              3.0834396015        1.5200242534      -40.7093446635  WZ1       2362            0.0000000000
      2944       982  TIP3      OH2            -2.9560903985        0.8903442534      -33.1452246635  WZ1       2363            0.0000000000
      2945       982  TIP3      H1             -2.3253203985        0.8615542534      -32.4258346635  WZ1       2363            0.0000000000
      2946       982  TIP3      H2             -2.5066603985        0.4652142534      -33.8756346635  WZ1       2363            0.0000000000
      2947       983  TIP3      OH2            -1.6818803985        1.6365442534      -37.7211846635  WZ1       2364            0.0000000000
      2948       983  TIP3      H1             -1.2077103985        2.2275342534      -38.3060946635  WZ1       2364            0.0000000000
      2949       983  TIP3      H2             -2.3992403985        2.1668342534      -37.3741746635  WZ1       2364            0.0000000000
      2950       984  TIP3      OH2             8.4869296015        5.1750242534      -27.6486046635  WZ1       2365            0.0000000000
      2951       984  TIP3      H1              8.8104096015        4.5439942534      -28.2915546635  WZ1       2365            0.0000000000
      2952       984  TIP3      H2              8.0468596015        4.6402442534      -26.9878646635  WZ1       2365            0.0000000000
      2953       985  TIP3      OH2             5.2642196015        1.1025742534      -32.8644846635  WZ1       2366            0.0000000000
      2954       985  TIP3      H1              4.3533296015        1.1592542534      -32.5758846635  WZ1       2366            0.0000000000
      2955       985  TIP3      H2              5.7695096015        1.0421242534      -32.0537646635  WZ1       2366            0.0000000000
      2956       986  TIP3      OH2             0.0925596015        2.7312042534      -34.0377246635  WZ1       2367            0.0000000000
      2957       986  TIP3      H1             -0.7966403985        2.8307542534      -34.3777646635  WZ1       2367            0.0000000000
      2958       986  TIP3      H2              0.3890496015        1.8895042534      -34.3839346635  WZ1       2367            0.0000000000
      2959       987  TIP3      OH2             3.7457396015        2.7314642534      -36.3812646635  WZ1       2368            0.0000000000
      2960       987  TIP3      H1              4.6772896015        2.8604642534      -36.2029546635  WZ1       2368            0.0000000000
      2961       987  TIP3      H2              3.5307696015        3.4008942534      -37.0307946635  WZ1       2368            0.0000000000
      2962       988  TIP3      OH2             9.6694096015        0.3372042534      -29.6003046635  WZ1       2369            0.0000000000
      2963       988  TIP3      H1              8.9925696015        0.4685142534      -28.9363346635  WZ1       2369            0.0000000000
      2964       988  TIP3      H2              9.1838996015        0.1821542534      -30.4105346635  WZ1       2369            0.0000000000
      2965       989  TIP3      OH2             2.4197596015        3.9256842534      -38.8146546635  WZ1       2370            0.0000000000
      2966       989  TIP3      H1              1.8772696015        3.5460642534      -39.5058946635  WZ1       2370            0.0000000000
      2967       989  TIP3      H2              3.2532496015        4.1201542534      -39.2432446635  WZ1       2370            0.0000000000
      2968       990  TIP3      OH2            12.9569196015       16.0087442534      -23.3235446635  WZ1       2371            0.0000000000
      2969       990  TIP3      H1             13.1567896015       16.4329342534      -24.1580146635  WZ1       2371            0.0000000000
      2970       990  TIP3      H2             13.6122896015       16.3525642534      -22.7165046635  WZ1       2371            0.0000000000
      2971       991  TIP3      OH2             0.5548996015        8.4828742534      -23.7154946635  WZ1       2372            0.0000000000
      2972       991  TIP3      H1              1.2871396015        8.7374642534      -23.1540446635  WZ1       2372            0.0000000000
      2973       991  TIP3      H2             -0.2252303985        8.6874142534      -23.1999546635  WZ1       2372            0.0000000000
      2974       992  TIP3      OH2             6.5841896015        3.8898742534      -30.9775246635  WZ1       2373            0.0000000000
      2975       992  TIP3      H1              7.1485296015        3.3435342534      -31.5245646635  WZ1       2373            0.0000000000
      2976       992  TIP3      H2              6.4365296015        3.3680642534      -30.1887646635  WZ1       2373            0.0000000000
      2977       993  TIP3      OH2             1.5861596015        0.0264842534      -34.5590446635  WZ1       2374            0.0000000000
      2978       993  TIP3      H1              1.2691096015       -0.8759857466      -34.5945046635  WZ1       2374            0.0000000000
      2979       993  TIP3      H2              2.3675696015        0.0282242534      -35.1118846635  WZ1       2374            0.0000000000
      2980       994  TIP3      OH2             5.2107796015        2.2784842534      -28.5634846635  WZ1       2375            0.0000000000
      2981       994  TIP3      H1              4.3753096015        2.7324342534      -28.4532446635  WZ1       2375            0.0000000000
      2982       994  TIP3      H2              5.7348396015        2.5543342534      -27.8114946635  WZ1       2375            0.0000000000
      2983       995  TIP3      OH2             5.7550396015        8.4912542534      -36.8788446635  WZ1       2376            0.0000000000
      2984       995  TIP3      H1              5.0101396015        7.9837842534      -37.2010546635  WZ1       2376            0.0000000000
      2985       995  TIP3      H2              5.6207596015        8.5400542534      -35.9323646635  WZ1       2376            0.0000000000
      2986       996  TIP3      OH2            12.9049296015        7.6240742534      -28.0920846635  WZ1       2377            0.0000000000
      2987       996  TIP3      H1             13.5468096015        8.0807042534      -28.6358646635  WZ1       2377            0.0000000000
      2988       996  TIP3      H2             12.0746196015        7.7373142534      -28.5546746635  WZ1       2377            0.0000000000
      2989       997  TIP3      OH2             9.6527196015        1.3052442534      -38.6795846635  WZ1       2378            0.0000000000
      2990       997  TIP3      H1              8.7141396015        1.4168042534      -38.8307046635  WZ1       2378            0.0000000000
      2991       997  TIP3      H2              9.9499296015        2.1619342534      -38.3730146635  WZ1       2378            0.0000000000
      2992       998  TIP3      OH2             7.2742496015        8.6755842534      -25.6419346635  WZ1       2379            0.0000000000
      2993       998  TIP3      H1              6.9288596015        8.2938242534      -24.8349746635  WZ1       2379            0.0000000000
      2994       998  TIP3      H2              7.0742596015        9.6089442534      -25.5706446635  WZ1       2379            0.0000000000
      2995       999  TIP3      OH2            10.3710696015        3.1725142534      -37.0188446635  WZ1       2380            0.0000000000
      2996       999  TIP3      H1             11.2629696015        3.0350142534      -36.6997246635  WZ1       2380            0.0000000000
      2997       999  TIP3      H2             10.4274296015        3.9631242534      -37.5554946635  WZ1       2380            0.0000000000
      2998      1000  TIP3      OH2             0.8798696015        7.7862542534      -31.1090546635  WZ1       2381            0.0000000000
      2999      1000  TIP3      H1              1.6245896015        7.7838242534      -31.7104046635  WZ1       2381            0.0000000000
      3000      1000  TIP3      H2              0.9575296015        6.9626342534      -30.6275446635  WZ1       2381            0.0000000000
      3001      1001  TIP3      OH2            -2.1121603985        6.2469442534      -25.7942046635  WZ1       2383            0.0000000000
      3002      1001  TIP3      H1             -1.8893003985        5.8289042534      -24.9624546635  WZ1       2383            0.0000000000
      3003      1001  TIP3      H2             -2.7141503985        5.6344442534      -26.2169246635  WZ1       2383            0.0000000000
      3004      1002  TIP3      OH2             4.9043296015        5.7639342534      -23.5812346635  WZ1       2384            0.0000000000
      3005      1002  TIP3      H1              4.6084096015        5.5982342534      -24.4763246635  WZ1       2384            0.0000000000
      3006      1002  TIP3      H2              5.8358496015        5.5439642534      -23.5918446635  WZ1       2384            0.0000000000
      3007      1003  TIP3      OH2             9.5246096015       11.1371342534      -25.6914346635  WZ1       2385            0.0000000000
      3008      1003  TIP3      H1              8.6240396015       11.3203942534      -25.9590446635  WZ1       2385            0.0000000000
      3009      1003  TIP3      H2              9.5587196015       11.3960642534      -24.7705546635  WZ1       2385            0.0000000000
      3010      1004  TIP3      OH2            15.2191396015        9.1820942534      -24.4870246635  WZ1       2387            0.0000000000
      3011      1004  TIP3      H1             14.3679896015        9.4204742534      -24.8543846635  WZ1       2387            0.0000000000
      3012      1004  TIP3      H2             15.8094796015        9.1654142534      -25.2403146635  WZ1       2387            0.0000000000
      3013      1005  TIP3      OH2            10.7114996015        6.9759142534      -29.8377746635  WZ1       2389            0.0000000000
      3014      1005  TIP3      H1              9.7831896015        6.7441042534      -29.8648446635  WZ1       2389            0.0000000000
      3015      1005  TIP3      H2             11.1626096015        6.1988942534      -30.1678946635  WZ1       2389            0.0000000000
      3016      1006  TIP3      OH2             3.2548096015       11.3040742534      -33.7049046635  WZ1       2390            0.0000000000
      3017      1006  TIP3      H1              3.7820296015       12.0775142534      -33.9050246635  WZ1       2390            0.0000000000
      3018      1006  TIP3      H2              2.3746596015       11.5289942534      -34.0065046635  WZ1       2390            0.0000000000
      3019      1007  TIP3      OH2            -0.9904203985        6.1664842534      -39.1176646635  WZ1       2391            0.0000000000
      3020      1007  TIP3      H1             -0.3744303985        6.7932042534      -38.7381846635  WZ1       2391            0.0000000000
      3021      1007  TIP3      H2             -1.8521603985        6.4824642534      -38.8460146635  WZ1       2391            0.0000000000
      3022      1008  TIP3      OH2             4.6820396015        8.9670642534      -34.1284746635  WZ1       2392            0.0000000000
      3023      1008  TIP3      H1              4.4410396015        9.8925042534      -34.0869446635  WZ1       2392            0.0000000000
      3024      1008  TIP3      H2              3.9413996015        8.5081942534      -33.7320846635  WZ1       2392            0.0000000000
      3025      1009  TIP3      OH2             5.1966996015       13.1164242534      -27.8133646635  WZ1       2393            0.0000000000
      3026      1009  TIP3      H1              5.5591696015       13.9709842534      -28.0469246635  WZ1       2393            0.0000000000
      3027      1009  TIP3      H2              5.7282196015       12.8245842534      -27.0727346635  WZ1       2393            0.0000000000
      3028      1010  TIP3      OH2             3.3651196015       13.9888242534      -34.5832546635  WZ1       2394            0.0000000000
      3029      1010  TIP3      H1              2.4151696015       14.0945642534      -34.5319246635  WZ1       2394            0.0000000000
      3030      1010  TIP3      H2              3.7169296015       14.8095642534      -34.2385046635  WZ1       2394            0.0000000000
      3031      1011  TIP3      OH2             8.7407796015        9.2154942534      -28.1128046635  WZ1       2395            0.0000000000
      3032      1011  TIP3      H1              8.3149096015        8.9876642534      -27.2864046635  WZ1       2395            0.0000000000
      3033      1011  TIP3      H2              9.3213596015        8.4766742534      -28.2952746635  WZ1       2395            0.0000000000
      3034      1012  TIP3      OH2            11.3991996015       13.7674442534      -25.6433246635  WZ1       2397            0.0000000000
      3035      1012  TIP3      H1             10.7975196015       13.2117342534      -26.1386946635  WZ1       2397            0.0000000000
      3036      1012  TIP3      H2             11.6805696015       14.4344242534      -26.2695846635  WZ1       2397            0.0000000000
      3037      1013  TIP3      OH2            -0.4782103985        1.0002142534      -26.2360646635  WZ1       2399            0.0000000000
      3038      1013  TIP3      H1             -1.3709803985        1.3387542534      -26.3036646635  WZ1       2399            0.0000000000
      3039      1013  TIP3      H2             -0.5769303985        0.1448242534      -25.8179846635  WZ1       2399            0.0000000000
      3040      1014  TIP3      OH2            -0.8270103985       12.8046542534      -27.8011246635  WZ1       2401            0.0000000000
      3041      1014  TIP3      H1             -0.6099803985       11.8728942534      -27.8321546635  WZ1       2401            0.0000000000
      3042      1014  TIP3      H2             -0.5806603985       13.0791542534      -26.9178446635  WZ1       2401            0.0000000000
      3043      1015  TIP3      OH2             3.9715096015       10.8265342534      -38.1356446635  WZ1       2403            0.0000000000
      3044      1015  TIP3      H1              4.1183096015       10.3065142534      -37.3455546635  WZ1       2403            0.0000000000
      3045      1015  TIP3      H2              3.9686796015       11.7332942534      -37.8290546635  WZ1       2403            0.0000000000
      3046      1016  TIP3      OH2             0.4246196015        8.0788642534      -37.6251046635  WZ1       2404            0.0000000000
      3047      1016  TIP3      H1             -0.2614503985        8.4311142534      -37.0581346635  WZ1       2404            0.0000000000
      3048      1016  TIP3      H2              0.9474096015        8.8418242534      -37.8716746635  WZ1       2404            0.0000000000
      3049      1017  TIP3      OH2             8.2561296015        0.7412442534      -27.3462046635  WZ1       2405            0.0000000000
      3050      1017  TIP3      H1              8.9549196015        0.8151142534      -26.6962346635  WZ1       2405            0.0000000000
      3051      1017  TIP3      H2              7.8752696015       -0.1232557466      -27.1919146635  WZ1       2405            0.0000000000
      3052      1018  TIP3      OH2             9.0406196015        0.3934142534      -36.2489746635  WZ1       2406            0.0000000000
      3053      1018  TIP3      H1              9.2604496015        0.8649542534      -37.0524346635  WZ1       2406            0.0000000000
      3054      1018  TIP3      H2              9.5990196015        0.7876742534      -35.5789146635  WZ1       2406            0.0000000000
      3055      1019  TIP3      OH2             6.2406096015        2.1212942534      -35.4141346635  WZ1       2408            0.0000000000
      3056      1019  TIP3      H1              7.0528696015        2.6256142534      -35.3679646635  WZ1       2408            0.0000000000
      3057      1019  TIP3      H2              5.9959096015        1.9762642534      -34.5001746635  WZ1       2408            0.0000000000
      3058      1020  TIP3      OH2             6.7762496015        3.1075642534      -26.2294746635  WZ1       2409            0.0000000000
      3059      1020  TIP3      H1              6.8952796015        3.6811042534      -25.4724346635  WZ1       2409            0.0000000000
      3060      1020  TIP3      H2              7.4317096015        2.4195042534      -26.1146946635  WZ1       2409            0.0000000000
      3061      1021  TIP3      OH2             7.1242796015       -0.7974057466      -34.4760246635  WZ1       2410            0.0000000000
      3062      1021  TIP3      H1              6.7776296015       -0.1803457466      -33.8315946635  WZ1       2410            0.0000000000
      3063      1021  TIP3      H2              7.7829696015       -0.2968357466      -34.9574746635  WZ1       2410            0.0000000000
      3064      1022  TIP3      OH2             4.0475396015       13.5676142534      -37.4045346635  WZ1       2411            0.0000000000
      3065      1022  TIP3      H1              4.2084096015       14.3673642534      -37.9052746635  WZ1       2411            0.0000000000
      3066      1022  TIP3      H2              3.8503196015       13.8742142534      -36.5194746635  WZ1       2411            0.0000000000
      3067      1023  TIP3      OH2             2.7819796015        0.2655342534      -37.7887746635  WZ1       2412            0.0000000000
      3068      1023  TIP3      H1              2.6984596015        1.1538442534      -37.4421346635  WZ1       2412            0.0000000000
      3069      1023  TIP3      H2              3.6720096015        0.0002042534      -37.5570946635  WZ1       2412            0.0000000000
      3070      1024  TIP3      OH2            12.9808296015        1.0145942534      -25.3945046635  WZ1       2413            0.0000000000
      3071      1024  TIP3      H1             12.0644096015        1.2767642534      -25.4821346635  WZ1       2413            0.0000000000
      3072      1024  TIP3      H2             13.3163296015        1.0114942534      -26.2909746635  WZ1       2413            0.0000000000
      3073      1025  TIP3      OH2            11.5829296015        4.7646942534      -31.2987746635  WZ1       2414            0.0000000000
      3074      1025  TIP3      H1             10.7853696015        4.3497142534      -31.6272746635  WZ1       2414            0.0000000000
      3075      1025  TIP3      H2             12.0280396015        4.0740642534      -30.8077246635  WZ1       2414            0.0000000000
      3076      1026  TIP3      OH2             1.0405096015       10.6927542534      -38.7283246635  WZ1       2415            0.0000000000
      3077      1026  TIP3      H1              1.6326596015       11.3922342534      -38.4520846635  WZ1       2415            0.0000000000
      3078      1026  TIP3      H2              1.4998096015       10.2597042534      -39.4478646635  WZ1       2415            0.0000000000
      3079      1027  TIP3      OH2            -0.6435703985        3.3570542534      -39.6123846635  WZ1       2416            0.0000000000
      3080      1027  TIP3      H1             -0.6883103985        4.2963642534      -39.4336846635  WZ1       2416            0.0000000000
      3081      1027  TIP3      H2             -1.5312503985        3.1215442534      -39.8821746635  WZ1       2416            0.0000000000
      3082      1028  TIP3      OH2            12.6693896015       14.0209442534      -29.6764246635  WZ1       2417            0.0000000000
      3083      1028  TIP3      H1             12.5138196015       14.6993842534      -30.3334946635  WZ1       2417            0.0000000000
      3084      1028  TIP3      H2             13.6020296015       14.0928742534      -29.4733646635  WZ1       2417            0.0000000000
      3085      1029  TIP3      OH2             0.1646296015       -1.8612857466      -30.9392846635  WZ1       2418            0.0000000000
      3086      1029  TIP3      H1             -0.0643903985       -1.8020357466      -31.8667846635  WZ1       2418            0.0000000000
      3087      1029  TIP3      H2             -0.2780303985       -2.6527357466      -30.6328746635  WZ1       2418            0.0000000000
      3088      1030  TIP3      OH2            -0.9050403985       12.0794242534      -34.7787046635  WZ1       2419            0.0000000000
      3089      1030  TIP3      H1             -1.7371803985       12.5516942534      -34.7515646635  WZ1       2419            0.0000000000
      3090      1030  TIP3      H2             -0.3592103985       12.5891842534      -35.3773946635  WZ1       2419            0.0000000000
      3091      1031  TIP3      OH2            -1.6166703985       14.6917942534      -23.4489046635  WZ1       2420            0.0000000000
      3092      1031  TIP3      H1             -1.0764503985       14.4751942534      -22.6889846635  WZ1       2420            0.0000000000
      3093      1031  TIP3      H2             -2.0978703985       13.8863942534      -23.6386546635  WZ1       2420            0.0000000000
      3094      1032  TIP3      OH2             2.9806696015       13.6112342534      -21.8284846635  WZ1       2421            0.0000000000
      3095      1032  TIP3      H1              3.7483896015       13.1523142534      -21.4875646635  WZ1       2421            0.0000000000
      3096      1032  TIP3      H2              2.9592896015       13.3852142534      -22.7583646635  WZ1       2421            0.0000000000
      3097      1033  TIP3      OH2             9.5575396015       11.9913442534      -23.0993346635  WZ1       2423            0.0000000000
      3098      1033  TIP3      H1              9.2064896015       11.1346442534      -22.8562946635  WZ1       2423            0.0000000000
      3099      1033  TIP3      H2             10.2838596015       12.1340142534      -22.4924346635  WZ1       2423            0.0000000000
      3100      1034  TIP3      OH2            -1.7097203985        8.5022042534      -22.4944746635  WZ1       2425            0.0000000000
      3101      1034  TIP3      H1             -1.5656703985        7.6002742534      -22.7808046635  WZ1       2425            0.0000000000
      3102      1034  TIP3      H2             -2.4819803985        8.7884142534      -22.9822446635  WZ1       2425            0.0000000000
      3103      1035  TIP3      OH2             4.9458896015        8.4720142534      -23.0618346635  WZ1       2427            0.0000000000
      3104      1035  TIP3      H1              4.6172696015        8.7428242534      -23.9190946635  WZ1       2427            0.0000000000
      3105      1035  TIP3      H2              5.0977096015        7.5309942534      -23.1493346635  WZ1       2427            0.0000000000
      3106      1036  TIP3      OH2            10.6804096015        8.3877442534      -25.6786046635  WZ1       2429            0.0000000000
      3107      1036  TIP3      H1             11.4258896015        8.9761142534      -25.7982046635  WZ1       2429            0.0000000000
      3108      1036  TIP3      H2              9.9230896015        8.9697142534      -25.6152946635  WZ1       2429            0.0000000000
      3109      1037  TIP3      OH2            -0.8770703985        5.7025342534      -23.0745446635  WZ1       2430            0.0000000000
      3110      1037  TIP3      H1             -0.4689503985        4.8451942534      -23.1954846635  WZ1       2430            0.0000000000
      3111      1037  TIP3      H2             -1.1373103985        5.7166642534      -22.1535146635  WZ1       2430            0.0000000000
      3112      1038  TIP3      OH2             3.7810296015        6.8183942534      -38.0562146635  WZ1       2431            0.0000000000
      3113      1038  TIP3      H1              3.3212296015        6.3342242534      -37.3703646635  WZ1       2431            0.0000000000
      3114      1038  TIP3      H2              4.0358996015        6.1499342534      -38.6921646635  WZ1       2431            0.0000000000
      3115      1039  TIP3      OH2             3.0699596015        4.7111042534      -25.7002546635  WZ1       2432            0.0000000000
      3116      1039  TIP3      H1              2.4515696015        5.3857642534      -25.4197846635  WZ1       2432            0.0000000000
      3117      1039  TIP3      H2              3.4140796015        5.0324942534      -26.5336346635  WZ1       2432            0.0000000000
      3118      1040  TIP3      OH2             4.8520696015        5.0615742534      -39.7938946635  WZ1       2433            0.0000000000
      3119      1040  TIP3      H1              4.6715696015        4.9066942534      -40.7210646635  WZ1       2433            0.0000000000
      3120      1040  TIP3      H2              5.8021196015        5.1694442534      -39.7491046635  WZ1       2433            0.0000000000
      3121      1041  TIP3      OH2             8.0897796015        7.1826342534      -22.4227746635  WZ1       2434            0.0000000000
      3122      1041  TIP3      H1              9.0428996015        7.2665442534      -22.4501746635  WZ1       2434            0.0000000000
      3123      1041  TIP3      H2              7.9292396015        6.4708142534      -21.8032846635  WZ1       2434            0.0000000000
      3124      1042  TIP3      OH2             3.4093296015        2.0661842534      -24.6179446635  WZ1       2436            0.0000000000
      3125      1042  TIP3      H1              3.5594196015        1.3373142534      -25.2199746635  WZ1       2436            0.0000000000
      3126      1042  TIP3      H2              3.4115696015        2.8433542534      -25.1767246635  WZ1       2436            0.0000000000
      3127      1043  TIP3      OH2             3.8218996015        0.4357642534      -27.1252046635  WZ1       2437            0.0000000000
      3128      1043  TIP3      H1              4.3576496015        0.8874342534      -27.7772746635  WZ1       2437            0.0000000000
      3129      1043  TIP3      H2              2.9698596015        0.3277442534      -27.5477946635  WZ1       2437            0.0000000000
      3130      1044  TIP3      OH2             5.4037396015        5.8753842534      -26.8856846635  WZ1       2438            0.0000000000
      3131      1044  TIP3      H1              6.1542196015        5.7191342534      -27.4589046635  WZ1       2438            0.0000000000
      3132      1044  TIP3      H2              5.0645696015        6.7270442534      -27.1611346635  WZ1       2438            0.0000000000
      3133      1045  TIP3      OH2             9.8193596015        3.6905642534      -21.8571546635  WZ1       2439            0.0000000000
      3134      1045  TIP3      H1             10.0114896015        2.7595042534      -21.9687046635  WZ1       2439            0.0000000000
      3135      1045  TIP3      H2             10.6769896015        4.1155142534      -21.8676146635  WZ1       2439            0.0000000000
      3136      1046  TIP3      OH2            11.1360796015        6.4790842534      -23.7798846635  WZ1       2440            0.0000000000
      3137      1046  TIP3      H1             10.8545796015        7.1885442534      -24.3575046635  WZ1       2440            0.0000000000
      3138      1046  TIP3      H2             12.0785096015        6.4063842534      -23.9307646635  WZ1       2440            0.0000000000
      3139      1047  TIP3      OH2             1.8879596015        3.2645342534      -22.7063846635  WZ1       2441            0.0000000000
      3140      1047  TIP3      H1              1.1208596015        2.7320142534      -22.9166246635  WZ1       2441            0.0000000000
      3141      1047  TIP3      H2              2.5668596015        2.9545742534      -23.3057546635  WZ1       2441            0.0000000000
      3142      1048  TIP3      OH2             4.6274496015       -2.1076657466      -26.6938446635  WZ1       2442            0.0000000000
      3143      1048  TIP3      H1              4.5294096015       -1.1613457466      -26.7992246635  WZ1       2442            0.0000000000
      3144      1048  TIP3      H2              3.8850696015       -2.4802857466      -27.1694946635  WZ1       2442            0.0000000000
      3145      1049  TIP3      OH2             5.8914996015        2.2138742534      -23.1300046635  WZ1       2443            0.0000000000
      3146      1049  TIP3      H1              5.6560396015        1.9945442534      -22.2285146635  WZ1       2443            0.0000000000
      3147      1049  TIP3      H2              5.1081896015        2.0069942534      -23.6397546635  WZ1       2443            0.0000000000
      3148      1050  TIP3      OH2             8.6071596015        1.3412242534      -24.0546546635  WZ1       2444            0.0000000000
      3149      1050  TIP3      H1              7.6596996015        1.3731942534      -23.9223246635  WZ1       2444            0.0000000000
      3150      1050  TIP3      H2              8.9198296015        0.7159342534      -23.4008346635  WZ1       2444            0.0000000000
      3151      1051  TIP3      OH2            10.2413096015       -0.0246657466      -22.0494646635  WZ1       2445            0.0000000000
      3152      1051  TIP3      H1             10.1444896015       -0.9769357466      -22.0552746635  WZ1       2445            0.0000000000
      3153      1051  TIP3      H2              9.9196196015        0.2440142534      -21.1889146635  WZ1       2445            0.0000000000
      3154      1052  TIP3      OH2             0.0682396015        1.1849142534      -23.0019146635  WZ1       2446            0.0000000000
      3155      1052  TIP3      H1              0.2799796015        0.4785242534      -23.6121646635  WZ1       2446            0.0000000000
      3156      1052  TIP3      H2             -0.0430103985        0.7475142534      -22.1577946635  WZ1       2446            0.0000000000
      3157      1053  TIP3      OH2             4.8492596015       -2.8139257466      -24.0225646635  WZ1       2447            0.0000000000
      3158      1053  TIP3      H1              5.5610996015       -3.4537057466      -24.0366546635  WZ1       2447            0.0000000000
      3159      1053  TIP3      H2              4.7482996015       -2.5470957466      -24.9362546635  WZ1       2447            0.0000000000
      3160      1054  TIP3      OH2             5.2030096015       -1.1310857466      -21.9689346635  WZ1       2448            0.0000000000
      3161      1054  TIP3      H1              5.0712296015       -1.6067057466      -22.7890846635  WZ1       2448            0.0000000000
      3162      1054  TIP3      H2              4.6037496015       -0.3867257466      -22.0242246635  WZ1       2448            0.0000000000
      3163      1055  TIP3      OH2            -1.6822703985       10.3883242534      -39.3097246635  WZ1       2450            0.0000000000
      3164      1055  TIP3      H1             -0.7683503985       10.4672142534      -39.0363346635  WZ1       2450            0.0000000000
      3165      1055  TIP3      H2             -1.6749603985        9.7012842534      -39.9761646635  WZ1       2450            0.0000000000
      3166      1056  TIP3      OH2            -3.0332103985       15.7811742534      -34.2323346635  WZ1       2451            0.0000000000
      3167      1056  TIP3      H1             -3.6805003985       15.3193442534      -34.7652146635  WZ1       2451            0.0000000000
      3168      1056  TIP3      H2             -2.6787503985       15.1095042534      -33.6497146635  WZ1       2451            0.0000000000
      3169      1057  TIP3      OH2            -2.1632903985       13.8618742534      -32.4277146635  WZ1       2452            0.0000000000
      3170      1057  TIP3      H1             -2.4976103985       12.9816042534      -32.2556946635  WZ1       2452            0.0000000000
      3171      1057  TIP3      H2             -1.9410503985       14.2073742534      -31.5631546635  WZ1       2452            0.0000000000
      3172      1058  TIP3      OH2            15.3851896015       14.6715142534      -29.4472346635  WZ1       2453            0.0000000000
      3173      1058  TIP3      H1             15.3638596015       14.8563542534      -28.5082946635  WZ1       2453            0.0000000000
      3174      1058  TIP3      H2             16.0758096015       15.2399142534      -29.7880946635  WZ1       2453            0.0000000000
      3175      1059  TIP3      OH2            14.9484796015       14.2386242534      -26.5253246635  WZ1       2454            0.0000000000
      3176      1059  TIP3      H1             14.4613496015       13.5030342534      -26.8965846635  WZ1       2454            0.0000000000
      3177      1059  TIP3      H2             15.4977496015       13.8450142534      -25.8473846635  WZ1       2454            0.0000000000
      3178      1060  TIP3      OH2            13.3992096015       10.0284342534      -21.8872946635  WZ1       2455            0.0000000000
      3179      1060  TIP3      H1             12.5333196015        9.9234042534      -21.4930646635  WZ1       2455            0.0000000000
      3180      1060  TIP3      H2             13.7757996015       10.7867642534      -21.4408246635  WZ1       2455            0.0000000000
      3181      1061  TIP3      OH2            14.8538596015        9.1232942534      -29.6017146635  WZ1       2458            0.0000000000
      3182      1061  TIP3      H1             15.6872796015        8.7452942534      -29.8823546635  WZ1       2458            0.0000000000
      3183      1061  TIP3      H2             14.9658896015       10.0664142534      -29.7208046635  WZ1       2458            0.0000000000
      3184      1062  TIP3      OH2            13.3400896015       12.0010442534      -27.2948746635  WZ1       2459            0.0000000000
      3185      1062  TIP3      H1             12.6926196015       12.3261942534      -26.6693546635  WZ1       2459            0.0000000000
      3186      1062  TIP3      H2             12.8224896015       11.5608142534      -27.9690446635  WZ1       2459            0.0000000000
      3187      1063  TIP3      OH2            12.8814196015        4.8591942534      -33.9866046635  WZ1       2462            0.0000000000
      3188      1063  TIP3      H1             12.7312996015        3.9140542534      -34.0068246635  WZ1       2462            0.0000000000
      3189      1063  TIP3      H2             12.5278696015        5.1403342534      -33.1426946635  WZ1       2462            0.0000000000
      3190      1064  TIP3      OH2            -2.0833403985        6.9374142534      -29.9762246635  WZ1       2463            0.0000000000
      3191      1064  TIP3      H1             -1.8990503985        6.8555842534      -30.9119346635  WZ1       2463            0.0000000000
      3192      1064  TIP3      H2             -1.2340503985        6.8131142534      -29.5525846635  WZ1       2463            0.0000000000
      3193      1065  TIP3      OH2            13.7377096015        6.8295242534      -24.3477746635  WZ1       2464            0.0000000000
      3194      1065  TIP3      H1             14.3204396015        6.0947542534      -24.1560546635  WZ1       2464            0.0000000000
      3195      1065  TIP3      H2             14.3016396015        7.6015542534      -24.3011946635  WZ1       2464            0.0000000000
      3196      1066  TIP3      OH2            15.2344196015        4.7321042534      -23.6632346635  WZ1       2465            0.0000000000
      3197      1066  TIP3      H1             14.3710896015        4.3533142534      -23.8287646635  WZ1       2465            0.0000000000
      3198      1066  TIP3      H2             15.8387896015        3.9935842534      -23.7376546635  WZ1       2465            0.0000000000
      3199      1067  TIP3      OH2            12.5918996015        2.4417742534      -35.5240946635  WZ1       2467            0.0000000000
      3200      1067  TIP3      H1             12.8716096015        1.5348142534      -35.3999246635  WZ1       2467            0.0000000000
      3201      1067  TIP3      H2             13.3510696015        2.8759242534      -35.9131746635  WZ1       2467            0.0000000000
      3202      1068  TIP3      OH2            13.2037296015        3.0235142534      -30.0882046635  WZ1       2468            0.0000000000
      3203      1068  TIP3      H1             14.1365296015        3.2355042534      -30.1226046635  WZ1       2468            0.0000000000
      3204      1068  TIP3      H2             12.9684796015        3.1247242534      -29.1659046635  WZ1       2468            0.0000000000
      3205      1069  TIP3      OH2            13.2329196015        3.7600442534      -27.3122646635  WZ1       2469            0.0000000000
      3206      1069  TIP3      H1             12.3900496015        4.0280842534      -26.9462846635  WZ1       2469            0.0000000000
      3207      1069  TIP3      H2             13.6753496015        4.5822342534      -27.5231546635  WZ1       2469            0.0000000000
      3208      1070  TIP3      OH2            -2.4858603985        2.2079142534      -23.8353446635  WZ1       2470            0.0000000000
      3209      1070  TIP3      H1             -1.5663703985        2.0857442534      -23.5990346635  WZ1       2470            0.0000000000
      3210      1070  TIP3      H2             -2.9354103985        1.4578842534      -23.4459946635  WZ1       2470            0.0000000000
      3211      1071  TIP3      OH2            15.5160796015       -2.2599357466      -21.9587646635  WZ1       2471            0.0000000000
      3212      1071  TIP3      H1             15.8657796015       -2.9135857466      -22.5642946635  WZ1       2471            0.0000000000
      3213      1071  TIP3      H2             15.6630296015       -1.4225257466      -22.3985046635  WZ1       2471            0.0000000000
      3214      1072  TIP3      OH2            13.2053796015       -0.2952957466      -35.4758946635  WZ1       2472            0.0000000000
      3215      1072  TIP3      H1             13.3878796015       -0.7441457466      -34.6503946635  WZ1       2472            0.0000000000
      3216      1072  TIP3      H2             12.6056696015       -0.8798557466      -35.9394346635  WZ1       2472            0.0000000000
      3217      1073  TIP3      OH2            -1.2646103985        0.5200742534      -30.9440546635  WZ1       2473            0.0000000000
      3218      1073  TIP3      H1             -0.8194503985       -0.2716757466      -30.6420846635  WZ1       2473            0.0000000000
      3219      1073  TIP3      H2             -0.7983103985        1.2365942534      -30.5134946635  WZ1       2473            0.0000000000
      3220      1074  TIP3      OH2            -2.9605803985        3.5193742534      -29.8750346635  WZ1       2474            0.0000000000
      3221      1074  TIP3      H1             -2.4686003985        3.2984242534      -30.6658346635  WZ1       2474            0.0000000000
      3222      1074  TIP3      H2             -2.5984903985        4.3597142534      -29.5940846635  WZ1       2474            0.0000000000
      3223      1075  TIP3      OH2            15.0357996015       -0.1504757466      -23.6096346635  WZ1       2475            0.0000000000
      3224      1075  TIP3      H1             14.1183696015        0.1202342534      -23.6452846635  WZ1       2475            0.0000000000
      3225      1075  TIP3      H2             15.1587396015       -0.6856357466      -24.3936646635  WZ1       2475            0.0000000000
      3226      1076  TIP3      OH2            -2.6469303985       -0.2227157466      -35.8207946635  WZ1       2477            0.0000000000
      3227      1076  TIP3      H1             -3.5720903985       -0.0140557466      -35.9502446635  WZ1       2477            0.0000000000
      3228      1076  TIP3      H2             -2.1929403985        0.2613642534      -36.5105646635  WZ1       2477            0.0000000000
      3229      1077  TIP3      OH2            -2.6833903985       -1.4848157466      -27.4765446635  WZ1       2479            0.0000000000
      3230      1077  TIP3      H1             -3.3483403985       -1.7307857466      -26.8334546635  WZ1       2479            0.0000000000
      3231      1077  TIP3      H2             -3.1262603985       -0.8627757466      -28.0537446635  WZ1       2479            0.0000000000
      3232      1078  TIP3      OH2            -0.4914603985       11.6905942534      -23.3319646635  WZ1       2480            0.0000000000
      3233      1078  TIP3      H1             -1.3122103985       11.8652442534      -23.7924946635  WZ1       2480            0.0000000000
      3234      1078  TIP3      H2             -0.7436803985       11.6170642534      -22.4115246635  WZ1       2480            0.0000000000
      3235      1079  TIP3      OH2             2.4628296015       12.6647142534      -27.0735646635  WZ1       2481            0.0000000000
      3236      1079  TIP3      H1              2.0379396015       13.4745642534      -27.3561046635  WZ1       2481            0.0000000000
      3237      1079  TIP3      H2              3.3671096015       12.7501242534      -27.3755846635  WZ1       2481            0.0000000000
      3238      1080  TIP3      OH2             6.7739696015       14.0637142534      -24.1141946635  WZ1       2482            0.0000000000
      3239      1080  TIP3      H1              6.9587196015       13.7303242534      -23.2361646635  WZ1       2482            0.0000000000
      3240      1080  TIP3      H2              7.6204196015       14.3735742534      -24.4362746635  WZ1       2482            0.0000000000
      3241      1081  TIP3      OH2             9.1190096015       15.3496042534      -24.8700546635  WZ1       2483            0.0000000000
      3242      1081  TIP3      H1              9.7958996015       14.7168342534      -25.1101346635  WZ1       2483            0.0000000000
      3243      1081  TIP3      H2              9.4408896015       15.7506542534      -24.0627246635  WZ1       2483            0.0000000000
      3244      1082  TIP3      OH2            14.0363896015       -2.0608457466      -25.7905546635  WZ1       2484            0.0000000000
      3245      1082  TIP3      H1             13.2237396015       -1.7358157466      -26.1780846635  WZ1       2484            0.0000000000
      3246      1082  TIP3      H2             14.2692396015       -2.8209957466      -26.3236446635  WZ1       2484            0.0000000000
      3247      1083  TIP3      OH2            -0.1355003985       15.9211042534      -27.0260346635  WZ1       2485            0.0000000000
      3248      1083  TIP3      H1             -0.8558603985       16.3612042534      -27.4772646635  WZ1       2485            0.0000000000
      3249      1083  TIP3      H2             -0.5011003985       15.6705742534      -26.1776346635  WZ1       2485            0.0000000000
      3250      1084  TIP3      OH2             2.3317596015       15.5214942534      -27.9963146635  WZ1       2486            0.0000000000
      3251      1084  TIP3      H1              1.4669796015       15.5933442534      -27.5923046635  WZ1       2486            0.0000000000
      3252      1084  TIP3      H2              2.2766596015       16.0682242534      -28.7800646635  WZ1       2486            0.0000000000
      3253      1085  TIP3      OH2             7.0423196015       15.4093842534      -28.8207146635  WZ1       2487            0.0000000000
      3254      1085  TIP3      H1              6.5857196015       15.9383542534      -29.4748746635  WZ1       2487            0.0000000000
      3255      1085  TIP3      H2              7.2051196015       16.0125242534      -28.0954846635  WZ1       2487            0.0000000000
      3256      1086  TIP3      OH2             9.3699496015       14.2873442534      -27.8756846635  WZ1       2488            0.0000000000
      3257      1086  TIP3      H1              8.4653196015       14.4523642534      -28.1414746635  WZ1       2488            0.0000000000
      3258      1086  TIP3      H2              9.7988096015       15.1405642534      -27.9413446635  WZ1       2488            0.0000000000
      3259      1087  TIP3      OH2            11.9741396015       15.8572542534      -27.5809046635  WZ1       2489            0.0000000000
      3260      1087  TIP3      H1             11.7923396015       16.7731442534      -27.7914146635  WZ1       2489            0.0000000000
      3261      1087  TIP3      H2             12.1509196015       15.4469642534      -28.4274446635  WZ1       2489            0.0000000000
      3262      1088  TIP3      OH2            -0.7206903985       14.5443542534      -30.1158546635  WZ1       2490            0.0000000000
      3263      1088  TIP3      H1             -0.7390903985       14.1188642534      -29.2586246635  WZ1       2490            0.0000000000
      3264      1088  TIP3      H2              0.0840996015       14.2258542534      -30.5246346635  WZ1       2490            0.0000000000
      3265      1089  TIP3      OH2             1.4206196015       13.2542242534      -31.4608646635  WZ1       2491            0.0000000000
      3266      1089  TIP3      H1              1.2016896015       12.3379642534      -31.2912646635  WZ1       2491            0.0000000000
      3267      1089  TIP3      H2              2.2448396015       13.3942642534      -30.9947246635  WZ1       2491            0.0000000000
      3268      1090  TIP3      OH2             3.9578696015       13.7241542534      -30.6120646635  WZ1       2492            0.0000000000
      3269      1090  TIP3      H1              4.1704396015       12.8360542534      -30.8989746635  WZ1       2492            0.0000000000
      3270      1090  TIP3      H2              4.0223796015       13.6899242534      -29.6576646635  WZ1       2492            0.0000000000
      3271      1091  TIP3      OH2             7.4662396015       -0.6117857466      -31.4677346635  WZ1       2493            0.0000000000
      3272      1091  TIP3      H1              6.7919196015       -1.2412257466      -31.2121546635  WZ1       2493            0.0000000000
      3273      1091  TIP3      H2              8.0301596015       -1.0958957466      -32.0709446635  WZ1       2493            0.0000000000
      3274      1092  TIP3      OH2            12.6089596015       -2.5043857466      -31.3550246635  WZ1       2494            0.0000000000
      3275      1092  TIP3      H1             13.2127196015       -1.9568457466      -31.8569246635  WZ1       2494            0.0000000000
      3276      1092  TIP3      H2             11.7391596015       -2.1853457466      -31.5956146635  WZ1       2494            0.0000000000
      3277      1093  TIP3      OH2            14.3359996015       -1.3655157466      -33.0219346635  WZ1       2495            0.0000000000
      3278      1093  TIP3      H1             14.9477496015       -1.8799457466      -33.5485746635  WZ1       2495            0.0000000000
      3279      1093  TIP3      H2             14.7183396015       -0.4883057466      -32.9984946635  WZ1       2495            0.0000000000
      3280      1094  TIP3      OH2            -0.2070103985       -1.9777557466      -33.6457446635  WZ1       2496            0.0000000000
      3281      1094  TIP3      H1             -0.9840303985       -2.2122657466      -34.1531546635  WZ1       2496            0.0000000000
      3282      1094  TIP3      H2              0.3233496015       -2.7745457466      -33.6369446635  WZ1       2496            0.0000000000
      3283      1095  TIP3      OH2            -1.3706703985       -2.1799457466      -37.8421346635  WZ1       2497            0.0000000000
      3284      1095  TIP3      H1             -0.9316003985       -1.5688957466      -38.4337846635  WZ1       2497            0.0000000000
      3285      1095  TIP3      H2             -2.0044303985       -1.6415357466      -37.3681346635  WZ1       2497            0.0000000000
      3286      1096  TIP3      OH2             4.3722496015       -2.0510457466      -33.8324346635  WZ1       2498            0.0000000000
      3287      1096  TIP3      H1              5.2465896015       -1.6626157466      -33.8620046635  WZ1       2498            0.0000000000
      3288      1096  TIP3      H2              4.2363296015       -2.2662657466      -32.9097146635  WZ1       2498            0.0000000000
      3289      1097  TIP3      OH2             9.9290896015       -2.0210657466      -32.1832646635  WZ1       2499            0.0000000000
      3290      1097  TIP3      H1             10.0052496015       -1.9259057466      -33.1326646635  WZ1       2499            0.0000000000
      3291      1097  TIP3      H2              9.6540096015       -2.9287757466      -32.0543546635  WZ1       2499            0.0000000000
      3292      1098  TIP3      OH2            11.2823496015       -1.9952857466      -36.4907646635  WZ1       2500            0.0000000000
      3293      1098  TIP3      H1             10.5794596015       -1.3803657466      -36.7006246635  WZ1       2500            0.0000000000
      3294      1098  TIP3      H2             10.8374896015       -2.8326157466      -36.3596746635  WZ1       2500            0.0000000000
      3295      1099  TIP3      OH2            -1.4697203985       13.7682742534      -36.9446246635  WZ1       2501            0.0000000000
      3296      1099  TIP3      H1             -2.1547303985       13.7301642534      -37.6121146635  WZ1       2501            0.0000000000
      3297      1099  TIP3      H2             -1.4660003985       14.6810342534      -36.6564146635  WZ1       2501            0.0000000000
      3298      1100  TIP3      OH2             0.4902396015       -0.2637957466      -39.3997246635  WZ1       2502            0.0000000000
      3299      1100  TIP3      H1              0.9815796015       -0.8935557466      -39.9271746635  WZ1       2502            0.0000000000
      3300      1100  TIP3      H2              1.1138696015        0.0321442534      -38.7366046635  WZ1       2502            0.0000000000
      3301      1101  TIP3      OH2             5.5162496015        0.0293542534      -36.9426746635  WZ1       2503            0.0000000000
      3302      1101  TIP3      H1              5.6943796015       -0.6173257466      -36.2598146635  WZ1       2503            0.0000000000
      3303      1101  TIP3      H2              5.4628696015        0.8631242534      -36.4755646635  WZ1       2503            0.0000000000
      3304      1102  TIP3      OH2            -0.2492103985       -1.4635657466      -24.1281246635  WZ1       2506            0.0000000000
      3305      1102  TIP3      H1             -0.6153903985       -2.2293057466      -23.6856546635  WZ1       2506            0.0000000000
      3306      1102  TIP3      H2              0.6636396015       -1.4345457466      -23.8416146635  WZ1       2506            0.0000000000
      3307      1103  TIP3      OH2             1.7238696015       -2.1131257466      -22.5924146635  WZ1       2507            0.0000000000
      3308      1103  TIP3      H1              2.6222296015       -2.3871057466      -22.7770746635  WZ1       2507            0.0000000000
      3309      1103  TIP3      H2              1.3371796015       -2.8555257466      -22.1281546635  WZ1       2507            0.0000000000
      3310      1104  TIP3      OH2            10.1450996015       -2.7805957466      -22.4101346635  WZ1       2509            0.0000000000
      3311      1104  TIP3      H1             10.2218196015       -3.2065257466      -21.5563646635  WZ1       2509            0.0000000000
      3312      1104  TIP3      H2             11.0387596015       -2.7671257466      -22.7527846635  WZ1       2509            0.0000000000
      3313      1105  TIP3      OH2            13.3212096015       13.2920342534      -23.7177146635  WZ1       2510            0.0000000000
      3314      1105  TIP3      H1             12.5393996015       13.1058342534      -24.2376546635  WZ1       2510            0.0000000000
      3315      1105  TIP3      H2             13.2491996015       14.2214642534      -23.5004646635  WZ1       2510            0.0000000000
      3316      1106  TIP3      OH2            19.0288796015        6.0477542534      -28.6751846635  WZ1       2513            0.0000000000
      3317      1106  TIP3      H1             19.0700896015        5.4220842534      -27.9519446635  WZ1       2513            0.0000000000
      3318      1106  TIP3      H2             19.7316496015        6.6716142534      -28.4931446635  WZ1       2513            0.0000000000
      3319      1107  TIP3      OH2            17.2728496015        6.3198642534      -32.6215946635  WZ1       2517            0.0000000000
      3320      1107  TIP3      H1             17.4861996015        5.5500242534      -32.0942946635  WZ1       2517            0.0000000000
      3321      1107  TIP3      H2             18.0106096015        6.4095342534      -33.2248346635  WZ1       2517            0.0000000000
      3322      1108  TIP3      OH2            17.9654996015        3.7581442534      -31.4999746635  WZ1       2524            0.0000000000
      3323      1108  TIP3      H1             18.6191596015        3.2083142534      -31.0679646635  WZ1       2524            0.0000000000
      3324      1108  TIP3      H2             17.9894296015        3.4840442534      -32.4167746635  WZ1       2524            0.0000000000
      3325      1109  TIP3      OH2            20.1555396015        0.2794042534      -28.1880346635  WZ1       2527            0.0000000000
      3326      1109  TIP3      H1             19.9367096015        0.8094642534      -28.9544346635  WZ1       2527            0.0000000000
      3327      1109  TIP3      H2             19.4876296015        0.5059542534      -27.5408946635  WZ1       2527            0.0000000000
      3328      1110  TIP3      OH2            22.7246796015        7.9549742534      -27.9006646635  WZ1       2529            0.0000000000
      3329      1110  TIP3      H1             21.9845896015        8.5531242534      -27.7971446635  WZ1       2529            0.0000000000
      3330      1110  TIP3      H2             23.4386296015        8.5089342534      -28.2163046635  WZ1       2529            0.0000000000
      3331      1111  TIP3      OH2            19.7492696015        2.1715842534      -30.2358146635  WZ1       2531            0.0000000000
      3332      1111  TIP3      H1             20.3628996015        2.8043442534      -29.8625746635  WZ1       2531            0.0000000000
      3333      1111  TIP3      H2             20.2613396015        1.6990842534      -30.8921246635  WZ1       2531            0.0000000000
      3334      1112  TIP3      OH2            21.1321096015        9.9192742534      -27.1135146635  WZ1       2532            0.0000000000
      3335      1112  TIP3      H1             21.1268696015       10.7986242534      -27.4915846635  WZ1       2532            0.0000000000
      3336      1112  TIP3      H2             20.2785196015        9.8356842534      -26.6885246635  WZ1       2532            0.0000000000
      3337      1113  TIP3      OH2            24.1820096015       -2.4150857466      -30.7355446635  WZ1       2536            0.0000000000
      3338      1113  TIP3      H1             24.0644296015       -3.3634857466      -30.7897146635  WZ1       2536            0.0000000000
      3339      1113  TIP3      H2             23.3270196015       -2.0824757466      -30.4624346635  WZ1       2536            0.0000000000
      3340      1114  TIP3      OH2            21.8661896015        6.0309842534      -29.7673746635  WZ1       2547            0.0000000000
      3341      1114  TIP3      H1             22.4314396015        6.1524042534      -30.5302546635  WZ1       2547            0.0000000000
      3342      1114  TIP3      H2             22.1850796015        6.6684842534      -29.1285246635  WZ1       2547            0.0000000000
      3343      1115  TIP3      OH2            22.7462596015       10.4302542534      -25.0501846635  WZ1       2549            0.0000000000
      3344      1115  TIP3      H1             22.4350096015       11.2125742534      -24.5948646635  WZ1       2549            0.0000000000
      3345      1115  TIP3      H2             22.0962796015       10.2771642534      -25.7359846635  WZ1       2549            0.0000000000
      3346      1116  TIP3      OH2            19.6662496015        6.6283642534      -25.8216146635  WZ1       2551            0.0000000000
      3347      1116  TIP3      H1             19.7365696015        7.2790442534      -25.1231146635  WZ1       2551            0.0000000000
      3348      1116  TIP3      H2             18.7754696015        6.7311142534      -26.1565246635  WZ1       2551            0.0000000000
      3349      1117  TIP3      OH2            20.9858496015       12.5017542534      -24.2868046635  WZ1       2553            0.0000000000
      3350      1117  TIP3      H1             20.9933796015       12.3657242534      -25.2342546635  WZ1       2553            0.0000000000
      3351      1117  TIP3      H2             20.0698896015       12.3845642534      -24.0348046635  WZ1       2553            0.0000000000
      3352      1118  TIP3      OH2            16.5829196015        8.6947742534      -26.9966146635  WZ1       2557            0.0000000000
      3353      1118  TIP3      H1             16.0817596015        8.6667142534      -27.8116446635  WZ1       2557            0.0000000000
      3354      1118  TIP3      H2             16.5882896015        7.7890942534      -26.6868846635  WZ1       2557            0.0000000000
      3355      1119  TIP3      OH2            16.3331896015       11.4751542534      -30.1125946635  WZ1       2558            0.0000000000
      3356      1119  TIP3      H1             17.2792496015       11.3308542534      -30.1316446635  WZ1       2558            0.0000000000
      3357      1119  TIP3      H2             16.2208196015       12.2594342534      -29.5754746635  WZ1       2558            0.0000000000
      3358      1120  TIP3      OH2            25.5094396015       11.7150442534      -25.5540846635  WZ1       2560            0.0000000000
      3359      1120  TIP3      H1             25.5968996015       12.5415042534      -25.0791746635  WZ1       2560            0.0000000000
      3360      1120  TIP3      H2             24.6459496015       11.3854242534      -25.3051546635  WZ1       2560            0.0000000000
      3361      1121  TIP3      OH2            31.6830196015        3.6343742534      -23.9500046635  WZ1       2565            0.0000000000
      3362      1121  TIP3      H1             31.2756996015        4.1149342534      -24.6706746635  WZ1       2565            0.0000000000
      3363      1121  TIP3      H2             31.7235896015        2.7289742534      -24.2579246635  WZ1       2565            0.0000000000
      3364      1122  TIP3      OH2            18.8319696015       10.0183142534      -25.9533346635  WZ1       2566            0.0000000000
      3365      1122  TIP3      H1             19.0480996015        9.6568742534      -25.0937546635  WZ1       2566            0.0000000000
      3366      1122  TIP3      H2             17.9764396015        9.6436942534      -26.1629846635  WZ1       2566            0.0000000000
      3367      1123  TIP3      OH2            21.4507696015       -1.5116357466      -29.9579146635  WZ1       2567            0.0000000000
      3368      1123  TIP3      H1             20.5891396015       -1.5988157466      -30.3656246635  WZ1       2567            0.0000000000
      3369      1123  TIP3      H2             21.4283396015       -0.6556257466      -29.5301546635  WZ1       2567            0.0000000000
      3370      1124  TIP3      OH2            26.1135496015       -1.7895957466      -26.5832146635  WZ1       2568            0.0000000000
      3371      1124  TIP3      H1             26.5338596015       -2.2048857466      -25.8301546635  WZ1       2568            0.0000000000
      3372      1124  TIP3      H2             25.1805096015       -1.9682657466      -26.4660146635  WZ1       2568            0.0000000000
      3373      1125  TIP3      OH2            29.4400396015        1.9659242534      -25.7297646635  WZ1       2569            0.0000000000
      3374      1125  TIP3      H1             28.9259896015        1.8401442534      -24.9321646635  WZ1       2569            0.0000000000
      3375      1125  TIP3      H2             29.2845096015        2.8782342534      -25.9741446635  WZ1       2569            0.0000000000
      3376      1126  TIP3      OH2            21.5417796015        3.4538142534      -28.8628946635  WZ1       2572            0.0000000000
      3377      1126  TIP3      H1             20.8999896015        3.4135442534      -28.1538846635  WZ1       2572            0.0000000000
      3378      1126  TIP3      H2             21.5789796015        4.3802842534      -29.1005946635  WZ1       2572            0.0000000000
      3379      1127  TIP3      OH2            26.1763996015        4.2664942534      -23.6457446635  WZ1       2575            0.0000000000
      3380      1127  TIP3      H1             25.6137796015        3.5616542534      -23.3249646635  WZ1       2575            0.0000000000
      3381      1127  TIP3      H2             27.0027396015        4.1456842534      -23.1779846635  WZ1       2575            0.0000000000
      3382      1128  TIP3      OH2            19.2918296015        3.7741642534      -26.9956946635  WZ1       2577            0.0000000000
      3383      1128  TIP3      H1             19.2537696015        4.1743242534      -26.1269846635  WZ1       2577            0.0000000000
      3384      1128  TIP3      H2             18.8009396015        2.9574042534      -26.9054046635  WZ1       2577            0.0000000000
      3385      1129  TIP3      OH2            15.8999096015        0.8903442534      -33.1452246635  WZ1       2579            0.0000000000
      3386      1129  TIP3      H1             16.5306796015        0.8615542534      -32.4258346635  WZ1       2579            0.0000000000
      3387      1129  TIP3      H2             16.3493396015        0.4652142534      -33.8756346635  WZ1       2579            0.0000000000
      3388      1130  TIP3      OH2            19.4108996015        8.4828742534      -23.7154946635  WZ1       2588            0.0000000000
      3389      1130  TIP3      H1             20.1431396015        8.7374642534      -23.1540446635  WZ1       2588            0.0000000000
      3390      1130  TIP3      H2             18.6307696015        8.6874142534      -23.1999546635  WZ1       2588            0.0000000000
      3391      1131  TIP3      OH2            24.0667796015        2.2784842534      -28.5634846635  WZ1       2591            0.0000000000
      3392      1131  TIP3      H1             23.2313096015        2.7324342534      -28.4532446635  WZ1       2591            0.0000000000
      3393      1131  TIP3      H2             24.5908396015        2.5543342534      -27.8114946635  WZ1       2591            0.0000000000
      3394      1132  TIP3      OH2            26.1302496015        8.6755842534      -25.6419346635  WZ1       2595            0.0000000000
      3395      1132  TIP3      H1             25.7848596015        8.2938242534      -24.8349746635  WZ1       2595            0.0000000000
      3396      1132  TIP3      H2             25.9302596015        9.6089442534      -25.5706446635  WZ1       2595            0.0000000000
      3397      1133  TIP3      OH2            16.7438396015        6.2469442534      -25.7942046635  WZ1       2599            0.0000000000
      3398      1133  TIP3      H1             16.9666996015        5.8289042534      -24.9624546635  WZ1       2599            0.0000000000
      3399      1133  TIP3      H2             16.1418496015        5.6344442534      -26.2169246635  WZ1       2599            0.0000000000
      3400      1134  TIP3      OH2            23.7603296015        5.7639342534      -23.5812346635  WZ1       2600            0.0000000000
      3401      1134  TIP3      H1             23.4644096015        5.5982342534      -24.4763246635  WZ1       2600            0.0000000000
      3402      1134  TIP3      H2             24.6918496015        5.5439642534      -23.5918446635  WZ1       2600            0.0000000000
      3403      1135  TIP3      OH2            18.3777896015        1.0002142534      -26.2360646635  WZ1       2615            0.0000000000
      3404      1135  TIP3      H1             17.4850196015        1.3387542534      -26.3036646635  WZ1       2615            0.0000000000
      3405      1135  TIP3      H2             18.2790696015        0.1448242534      -25.8179846635  WZ1       2615            0.0000000000
      3406      1136  TIP3      OH2            18.0289896015       12.8046542534      -27.8011246635  WZ1       2617            0.0000000000
      3407      1136  TIP3      H1             18.2460196015       11.8728942534      -27.8321546635  WZ1       2617            0.0000000000
      3408      1136  TIP3      H2             18.2753396015       13.0791542534      -26.9178446635  WZ1       2617            0.0000000000
      3409      1137  TIP3      OH2            27.1121296015        0.7412442534      -27.3462046635  WZ1       2621            0.0000000000
      3410      1137  TIP3      H1             27.8109196015        0.8151142534      -26.6962346635  WZ1       2621            0.0000000000
      3411      1137  TIP3      H2             26.7312696015       -0.1232557466      -27.1919146635  WZ1       2621            0.0000000000
      3412      1138  TIP3      OH2            25.6322496015        3.1075642534      -26.2294746635  WZ1       2625            0.0000000000
      3413      1138  TIP3      H1             25.7512796015        3.6811042534      -25.4724346635  WZ1       2625            0.0000000000
      3414      1138  TIP3      H2             26.2877096015        2.4195042534      -26.1146946635  WZ1       2625            0.0000000000
      3415      1139  TIP3      OH2            31.8368296015        1.0145942534      -25.3945046635  WZ1       2629            0.0000000000
      3416      1139  TIP3      H1             30.9204096015        1.2767642534      -25.4821346635  WZ1       2629            0.0000000000
      3417      1139  TIP3      H2             32.1723296015        1.0114942534      -26.2909746635  WZ1       2629            0.0000000000
      3418      1140  TIP3      OH2            19.0206296015       -1.8612857466      -30.9392846635  WZ1       2634            0.0000000000
      3419      1140  TIP3      H1             18.7916096015       -1.8020357466      -31.8667846635  WZ1       2634            0.0000000000
      3420      1140  TIP3      H2             18.5779696015       -2.6527357466      -30.6328746635  WZ1       2634            0.0000000000
      3421      1141  TIP3      OH2            17.2393296015       14.6917942534      -23.4489046635  WZ1       2636            0.0000000000
      3422      1141  TIP3      H1             17.7795496015       14.4751942534      -22.6889846635  WZ1       2636            0.0000000000
      3423      1141  TIP3      H2             16.7581296015       13.8863942534      -23.6386546635  WZ1       2636            0.0000000000
      3424      1142  TIP3      OH2            21.8366696015       13.6112342534      -21.8284846635  WZ1       2637            0.0000000000
      3425      1142  TIP3      H1             22.6043896015       13.1523142534      -21.4875646635  WZ1       2637            0.0000000000
      3426      1142  TIP3      H2             21.8152896015       13.3852142534      -22.7583646635  WZ1       2637            0.0000000000
      3427      1143  TIP3      OH2            28.4135396015       11.9913442534      -23.0993346635  WZ1       2639            0.0000000000
      3428      1143  TIP3      H1             28.0624896015       11.1346442534      -22.8562946635  WZ1       2639            0.0000000000
      3429      1143  TIP3      H2             29.1398596015       12.1340142534      -22.4924346635  WZ1       2639            0.0000000000
      3430      1144  TIP3      OH2            17.1462796015        8.5022042534      -22.4944746635  WZ1       2641            0.0000000000
      3431      1144  TIP3      H1             17.2903296015        7.6002742534      -22.7808046635  WZ1       2641            0.0000000000
      3432      1144  TIP3      H2             16.3740196015        8.7884142534      -22.9822446635  WZ1       2641            0.0000000000
      3433      1145  TIP3      OH2            23.8018896015        8.4720142534      -23.0618346635  WZ1       2643            0.0000000000
      3434      1145  TIP3      H1             23.4732696015        8.7428242534      -23.9190946635  WZ1       2643            0.0000000000
      3435      1145  TIP3      H2             23.9537096015        7.5309942534      -23.1493346635  WZ1       2643            0.0000000000
      3436      1146  TIP3      OH2            17.9789296015        5.7025342534      -23.0745446635  WZ1       2646            0.0000000000
      3437      1146  TIP3      H1             18.3870496015        4.8451942534      -23.1954846635  WZ1       2646            0.0000000000
      3438      1146  TIP3      H2             17.7186896015        5.7166642534      -22.1535146635  WZ1       2646            0.0000000000
      3439      1147  TIP3      OH2            21.9259596015        4.7111042534      -25.7002546635  WZ1       2648            0.0000000000
      3440      1147  TIP3      H1             21.3075696015        5.3857642534      -25.4197846635  WZ1       2648            0.0000000000
      3441      1147  TIP3      H2             22.2700796015        5.0324942534      -26.5336346635  WZ1       2648            0.0000000000
      3442      1148  TIP3      OH2            26.9457796015        7.1826342534      -22.4227746635  WZ1       2650            0.0000000000
      3443      1148  TIP3      H1             27.8988996015        7.2665442534      -22.4501746635  WZ1       2650            0.0000000000
      3444      1148  TIP3      H2             26.7852396015        6.4708142534      -21.8032846635  WZ1       2650            0.0000000000
      3445      1149  TIP3      OH2            22.2653296015        2.0661842534      -24.6179446635  WZ1       2652            0.0000000000
      3446      1149  TIP3      H1             22.4154196015        1.3373142534      -25.2199746635  WZ1       2652            0.0000000000
      3447      1149  TIP3      H2             22.2675696015        2.8433542534      -25.1767246635  WZ1       2652            0.0000000000
      3448      1150  TIP3      OH2            22.6778996015        0.4357642534      -27.1252046635  WZ1       2653            0.0000000000
      3449      1150  TIP3      H1             23.2136496015        0.8874342534      -27.7772746635  WZ1       2653            0.0000000000
      3450      1150  TIP3      H2             21.8258596015        0.3277442534      -27.5477946635  WZ1       2653            0.0000000000
      3451      1151  TIP3      OH2            24.2597396015        5.8753842534      -26.8856846635  WZ1       2654            0.0000000000
      3452      1151  TIP3      H1             25.0102196015        5.7191342534      -27.4589046635  WZ1       2654            0.0000000000
      3453      1151  TIP3      H2             23.9205696015        6.7270442534      -27.1611346635  WZ1       2654            0.0000000000
      3454      1152  TIP3      OH2            28.6753596015        3.6905642534      -21.8571546635  WZ1       2655            0.0000000000
      3455      1152  TIP3      H1             28.8674896015        2.7595042534      -21.9687046635  WZ1       2655            0.0000000000
      3456      1152  TIP3      H2             29.5329896015        4.1155142534      -21.8676146635  WZ1       2655            0.0000000000
      3457      1153  TIP3      OH2            29.9920796015        6.4790842534      -23.7798846635  WZ1       2656            0.0000000000
      3458      1153  TIP3      H1             29.7105796015        7.1885442534      -24.3575046635  WZ1       2656            0.0000000000
      3459      1153  TIP3      H2             30.9345096015        6.4063842534      -23.9307646635  WZ1       2656            0.0000000000
      3460      1154  TIP3      OH2            20.7439596015        3.2645342534      -22.7063846635  WZ1       2657            0.0000000000
      3461      1154  TIP3      H1             19.9768596015        2.7320142534      -22.9166246635  WZ1       2657            0.0000000000
      3462      1154  TIP3      H2             21.4228596015        2.9545742534      -23.3057546635  WZ1       2657            0.0000000000
      3463      1155  TIP3      OH2            23.4834496015       -2.1076657466      -26.6938446635  WZ1       2658            0.0000000000
      3464      1155  TIP3      H1             23.3854096015       -1.1613457466      -26.7992246635  WZ1       2658            0.0000000000
      3465      1155  TIP3      H2             22.7410696015       -2.4802857466      -27.1694946635  WZ1       2658            0.0000000000
      3466      1156  TIP3      OH2            24.7474996015        2.2138742534      -23.1300046635  WZ1       2659            0.0000000000
      3467      1156  TIP3      H1             24.5120396015        1.9945442534      -22.2285146635  WZ1       2659            0.0000000000
      3468      1156  TIP3      H2             23.9641896015        2.0069942534      -23.6397546635  WZ1       2659            0.0000000000
      3469      1157  TIP3      OH2            27.4631596015        1.3412242534      -24.0546546635  WZ1       2660            0.0000000000
      3470      1157  TIP3      H1             26.5156996015        1.3731942534      -23.9223246635  WZ1       2660            0.0000000000
      3471      1157  TIP3      H2             27.7758296015        0.7159342534      -23.4008346635  WZ1       2660            0.0000000000
      3472      1158  TIP3      OH2            29.0973096015       -0.0246657466      -22.0494646635  WZ1       2661            0.0000000000
      3473      1158  TIP3      H1             29.0004896015       -0.9769357466      -22.0552746635  WZ1       2661            0.0000000000
      3474      1158  TIP3      H2             28.7756196015        0.2440142534      -21.1889146635  WZ1       2661            0.0000000000
      3475      1159  TIP3      OH2            18.9242396015        1.1849142534      -23.0019146635  WZ1       2662            0.0000000000
      3476      1159  TIP3      H1             19.1359796015        0.4785242534      -23.6121646635  WZ1       2662            0.0000000000
      3477      1159  TIP3      H2             18.8129896015        0.7475142534      -22.1577946635  WZ1       2662            0.0000000000
      3478      1160  TIP3      OH2            23.7052596015       -2.8139257466      -24.0225646635  WZ1       2663            0.0000000000
      3479      1160  TIP3      H1             24.4170996015       -3.4537057466      -24.0366546635  WZ1       2663            0.0000000000
      3480      1160  TIP3      H2             23.6042996015       -2.5470957466      -24.9362546635  WZ1       2663            0.0000000000
      3481      1161  TIP3      OH2            24.0590096015       -1.1310857466      -21.9689346635  WZ1       2664            0.0000000000
      3482      1161  TIP3      H1             23.9272296015       -1.6067057466      -22.7890846635  WZ1       2664            0.0000000000
      3483      1161  TIP3      H2             23.4597496015       -0.3867257466      -22.0242246635  WZ1       2664            0.0000000000
      3484      1162  TIP3      OH2            32.2552096015       10.0284342534      -21.8872946635  WZ1       2671            0.0000000000
      3485      1162  TIP3      H1             31.3893196015        9.9234042534      -21.4930646635  WZ1       2671            0.0000000000
      3486      1162  TIP3      H2             32.6317996015       10.7867642534      -21.4408246635  WZ1       2671            0.0000000000
      3487      1163  TIP3      OH2            16.7726596015        6.9374142534      -29.9762246635  WZ1       2679            0.0000000000
      3488      1163  TIP3      H1             16.9569496015        6.8555842534      -30.9119346635  WZ1       2679            0.0000000000
      3489      1163  TIP3      H2             17.6219496015        6.8131142534      -29.5525846635  WZ1       2679            0.0000000000
      3490      1164  TIP3      OH2            34.0904196015        4.7321042534      -23.6632346635  WZ1       2681            0.0000000000
      3491      1164  TIP3      H1             33.2270896015        4.3533142534      -23.8287646635  WZ1       2681            0.0000000000
      3492      1164  TIP3      H2             34.6947896015        3.9935842534      -23.7376546635  WZ1       2681            0.0000000000
      3493      1165  TIP3      OH2            16.3701396015        2.2079142534      -23.8353446635  WZ1       2686            0.0000000000
      3494      1165  TIP3      H1             17.2896296015        2.0857442534      -23.5990346635  WZ1       2686            0.0000000000
      3495      1165  TIP3      H2             15.9205896015        1.4578842534      -23.4459946635  WZ1       2686            0.0000000000
      3496      1166  TIP3      OH2            34.3720796015       -2.2599357466      -21.9587646635  WZ1       2687            0.0000000000
      3497      1166  TIP3      H1             34.7217796015       -2.9135857466      -22.5642946635  WZ1       2687            0.0000000000
      3498      1166  TIP3      H2             34.5190296015       -1.4225257466      -22.3985046635  WZ1       2687            0.0000000000
      3499      1167  TIP3      OH2            17.5913896015        0.5200742534      -30.9440546635  WZ1       2689            0.0000000000
      3500      1167  TIP3      H1             18.0365496015       -0.2716757466      -30.6420846635  WZ1       2689            0.0000000000
      3501      1167  TIP3      H2             18.0576896015        1.2365942534      -30.5134946635  WZ1       2689            0.0000000000
      3502      1168  TIP3      OH2            15.8954196015        3.5193742534      -29.8750346635  WZ1       2690            0.0000000000
      3503      1168  TIP3      H1             16.3873996015        3.2984242534      -30.6658346635  WZ1       2690            0.0000000000
      3504      1168  TIP3      H2             16.2575096015        4.3597142534      -29.5940846635  WZ1       2690            0.0000000000
      3505      1169  TIP3      OH2            33.8917996015       -0.1504757466      -23.6096346635  WZ1       2691            0.0000000000
      3506      1169  TIP3      H1             32.9743696015        0.1202342534      -23.6452846635  WZ1       2691            0.0000000000
      3507      1169  TIP3      H2             34.0147396015       -0.6856357466      -24.3936646635  WZ1       2691            0.0000000000
      3508      1170  TIP3      OH2            16.1726096015       -1.4848157466      -27.4765446635  WZ1       2695            0.0000000000
      3509      1170  TIP3      H1             15.5076596015       -1.7307857466      -26.8334546635  WZ1       2695            0.0000000000
      3510      1170  TIP3      H2             15.7297396015       -0.8627757466      -28.0537446635  WZ1       2695            0.0000000000
      3511      1171  TIP3      OH2            18.3645396015       11.6905942534      -23.3319646635  WZ1       2696            0.0000000000
      3512      1171  TIP3      H1             17.5437896015       11.8652442534      -23.7924946635  WZ1       2696            0.0000000000
      3513      1171  TIP3      H2             18.1123196015       11.6170642534      -22.4115246635  WZ1       2696            0.0000000000
      3514      1172  TIP3      OH2            21.3188296015       12.6647142534      -27.0735646635  WZ1       2697            0.0000000000
      3515      1172  TIP3      H1             20.8939396015       13.4745642534      -27.3561046635  WZ1       2697            0.0000000000
      3516      1172  TIP3      H2             22.2231096015       12.7501242534      -27.3755846635  WZ1       2697            0.0000000000
      3517      1173  TIP3      OH2            25.6299696015       14.0637142534      -24.1141946635  WZ1       2698            0.0000000000
      3518      1173  TIP3      H1             25.8147196015       13.7303242534      -23.2361646635  WZ1       2698            0.0000000000
      3519      1173  TIP3      H2             26.4764196015       14.3735742534      -24.4362746635  WZ1       2698            0.0000000000
      3520      1174  TIP3      OH2            32.8923896015       -2.0608457466      -25.7905546635  WZ1       2700            0.0000000000
      3521      1174  TIP3      H1             32.0797396015       -1.7358157466      -26.1780846635  WZ1       2700            0.0000000000
      3522      1174  TIP3      H2             33.1252396015       -2.8209957466      -26.3236446635  WZ1       2700            0.0000000000
      3523      1175  TIP3      OH2            18.7204996015       15.9211042534      -27.0260346635  WZ1       2701            0.0000000000
      3524      1175  TIP3      H1             18.0001396015       16.3612042534      -27.4772646635  WZ1       2701            0.0000000000
      3525      1175  TIP3      H2             18.3548996015       15.6705742534      -26.1776346635  WZ1       2701            0.0000000000
      3526      1176  TIP3      OH2            18.6489896015       -1.9777557466      -33.6457446635  WZ1       2712            0.0000000000
      3527      1176  TIP3      H1             17.8719696015       -2.2122657466      -34.1531546635  WZ1       2712            0.0000000000
      3528      1176  TIP3      H2             19.1793496015       -2.7745457466      -33.6369446635  WZ1       2712            0.0000000000
      3529      1177  TIP3      OH2            18.6067896015       -1.4635657466      -24.1281246635  WZ1       2722            0.0000000000
      3530      1177  TIP3      H1             18.2406096015       -2.2293057466      -23.6856546635  WZ1       2722            0.0000000000
      3531      1177  TIP3      H2             19.5196396015       -1.4345457466      -23.8416146635  WZ1       2722            0.0000000000
      3532      1178  TIP3      OH2            20.5798696015       -2.1131257466      -22.5924146635  WZ1       2723            0.0000000000
      3533      1178  TIP3      H1             21.4782296015       -2.3871057466      -22.7770746635  WZ1       2723            0.0000000000
      3534      1178  TIP3      H2             20.1931796015       -2.8555257466      -22.1281546635  WZ1       2723            0.0000000000
      3535      1179  TIP3      OH2            29.0010996015       -2.7805957466      -22.4101346635  WZ1       2725            0.0000000000
      3536      1179  TIP3      H1             29.0778196015       -3.2065257466      -21.5563646635  WZ1       2725            0.0000000000
      3537      1179  TIP3      H2             29.8947596015       -2.7671257466      -22.7527846635  WZ1       2725            0.0000000000
      3538      1180  TIP3      OH2            37.7802396015        1.1849142534      -23.0019146635  WZ1       2771            0.0000000000
      3539      1180  TIP3      H1             37.9919796015        0.4785242534      -23.6121646635  WZ1       2771            0.0000000000
      3540      1180  TIP3      H2             37.6689896015        0.7475142534      -22.1577946635  WZ1       2771            0.0000000000
      3541      1181  TIP3      OH2            35.2261396015        2.2079142534      -23.8353446635  WZ1       2776            0.0000000000
      3542      1181  TIP3      H1             36.1456296015        2.0857442534      -23.5990346635  WZ1       2776            0.0000000000
      3543      1181  TIP3      H2             34.7765896015        1.4578842534      -23.4459946635  WZ1       2776            0.0000000000
      3544      1182  TIP3      OH2            37.4627896015       -1.4635657466      -24.1281246635  WZ1       2791            0.0000000000
      3545      1182  TIP3      H1             37.0966096015       -2.2293057466      -23.6856546635  WZ1       2791            0.0000000000
      3546      1182  TIP3      H2             38.3756396015       -1.4345457466      -23.8416146635  WZ1       2791            0.0000000000
      3547      1183  TIP3      OH2           -22.8552003985       19.3232142534      -29.0014546635  WZ1       2803            0.0000000000
      3548      1183  TIP3      H1            -22.8059803985       19.9333342534      -28.2655446635  WZ1       2803            0.0000000000
      3549      1183  TIP3      H2            -22.4296903985       19.7843042534      -29.7243446635  WZ1       2803            0.0000000000
      3550      1184  TIP3      OH2           -22.4637403985       20.8011342534      -26.7654746635  WZ1       2809            0.0000000000
      3551      1184  TIP3      H1            -23.1522803985       21.4592042534      -26.8608146635  WZ1       2809            0.0000000000
      3552      1184  TIP3      H2            -22.4482803985       20.6039242534      -25.8289346635  WZ1       2809            0.0000000000
      3553      1185  TIP3      OH2           -25.3891303985       18.3541842534      -28.2013446635  WZ1       2818            0.0000000000
      3554      1185  TIP3      H1            -26.1252103985       18.9648942534      -28.2392146635  WZ1       2818            0.0000000000
      3555      1185  TIP3      H2            -24.7057303985       18.7690842534      -28.7277046635  WZ1       2818            0.0000000000
      3556      1186  TIP3      OH2           -24.8849803985       22.4903742534      -23.9500046635  WZ1       2848            0.0000000000
      3557      1186  TIP3      H1            -25.2923003985       22.9709342534      -24.6706746635  WZ1       2848            0.0000000000
      3558      1186  TIP3      H2            -24.8444103985       21.5849742534      -24.2579246635  WZ1       2848            0.0000000000
      3559      1187  TIP3      OH2           -30.4544503985       17.0664042534      -26.5832146635  WZ1       2851            0.0000000000
      3560      1187  TIP3      H1            -30.0341403985       16.6511142534      -25.8301546635  WZ1       2851            0.0000000000
      3561      1187  TIP3      H2            -31.3874903985       16.8877342534      -26.4660146635  WZ1       2851            0.0000000000
      3562      1188  TIP3      OH2           -27.1279603985       20.8219242534      -25.7297646635  WZ1       2852            0.0000000000
      3563      1188  TIP3      H1            -27.6420103985       20.6961442534      -24.9321646635  WZ1       2852            0.0000000000
      3564      1188  TIP3      H2            -27.2834903985       21.7342342534      -25.9741446635  WZ1       2852            0.0000000000
      3565      1189  TIP3      OH2           -30.3916003985       23.1224942534      -23.6457446635  WZ1       2858            0.0000000000
      3566      1189  TIP3      H1            -30.9542203985       22.4176542534      -23.3249646635  WZ1       2858            0.0000000000
      3567      1189  TIP3      H2            -29.5652603985       23.0016842534      -23.1779846635  WZ1       2858            0.0000000000
      3568      1190  TIP3      OH2           -29.4558703985       19.5972442534      -27.3462046635  WZ1       2904            0.0000000000
      3569      1190  TIP3      H1            -28.7570803985       19.6711142534      -26.6962346635  WZ1       2904            0.0000000000
      3570      1190  TIP3      H2            -29.8367303985       18.7327442534      -27.1919146635  WZ1       2904            0.0000000000
      3571      1191  TIP3      OH2           -24.7311703985       19.8705942534      -25.3945046635  WZ1       2912            0.0000000000
      3572      1191  TIP3      H1            -25.6475903985       20.1327642534      -25.4821346635  WZ1       2912            0.0000000000
      3573      1191  TIP3      H2            -24.3956703985       19.8674942534      -26.2909746635  WZ1       2912            0.0000000000
      3574      1192  TIP3      OH2           -29.6222203985       26.0386342534      -22.4227746635  WZ1       2933            0.0000000000
      3575      1192  TIP3      H1            -28.6691003985       26.1225442534      -22.4501746635  WZ1       2933            0.0000000000
      3576      1192  TIP3      H2            -29.7827603985       25.3268142534      -21.8032846635  WZ1       2933            0.0000000000
      3577      1193  TIP3      OH2           -27.8926403985       22.5465642534      -21.8571546635  WZ1       2938            0.0000000000
      3578      1193  TIP3      H1            -27.7005103985       21.6155042534      -21.9687046635  WZ1       2938            0.0000000000
      3579      1193  TIP3      H2            -27.0350103985       22.9715142534      -21.8676146635  WZ1       2938            0.0000000000
      3580      1194  TIP3      OH2           -26.5759203985       25.3350842534      -23.7798846635  WZ1       2939            0.0000000000
      3581      1194  TIP3      H1            -26.8574203985       26.0445442534      -24.3575046635  WZ1       2939            0.0000000000
      3582      1194  TIP3      H2            -25.6334903985       25.2623842534      -23.9307646635  WZ1       2939            0.0000000000
      3583      1195  TIP3      OH2           -29.1048403985       20.1972242534      -24.0546546635  WZ1       2943            0.0000000000
      3584      1195  TIP3      H1            -30.0523003985       20.2291942534      -23.9223246635  WZ1       2943            0.0000000000
      3585      1195  TIP3      H2            -28.7921703985       19.5719342534      -23.4008346635  WZ1       2943            0.0000000000
      3586      1196  TIP3      OH2           -27.4706903985       18.8313342534      -22.0494646635  WZ1       2944            0.0000000000
      3587      1196  TIP3      H1            -27.5675103985       17.8790642534      -22.0552746635  WZ1       2944            0.0000000000
      3588      1196  TIP3      H2            -27.7923803985       19.1000142534      -21.1889146635  WZ1       2944            0.0000000000
      3589      1197  TIP3      OH2           -32.8627403985       16.0420742534      -24.0225646635  WZ1       2946            0.0000000000
      3590      1197  TIP3      H1            -32.1509003985       15.4022942534      -24.0366546635  WZ1       2946            0.0000000000
      3591      1197  TIP3      H2            -32.9637003985       16.3089042534      -24.9362546635  WZ1       2946            0.0000000000
      3592      1198  TIP3      OH2           -32.5089903985       17.7249142534      -21.9689346635  WZ1       2947            0.0000000000
      3593      1198  TIP3      H1            -32.6407703985       17.2492942534      -22.7890846635  WZ1       2947            0.0000000000
      3594      1198  TIP3      H2            -33.1082503985       18.4692742534      -22.0242246635  WZ1       2947            0.0000000000
      3595      1199  TIP3      OH2           -24.3127903985       28.8844342534      -21.8872946635  WZ1       2954            0.0000000000
      3596      1199  TIP3      H1            -25.1786803985       28.7794042534      -21.4930646635  WZ1       2954            0.0000000000
      3597      1199  TIP3      H2            -23.9362003985       29.6427642534      -21.4408246635  WZ1       2954            0.0000000000
      3598      1200  TIP3      OH2           -23.9742903985       25.6855242534      -24.3477746635  WZ1       2963            0.0000000000
      3599      1200  TIP3      H1            -23.3915603985       24.9507542534      -24.1560546635  WZ1       2963            0.0000000000
      3600      1200  TIP3      H2            -23.4103603985       26.4575542534      -24.3011946635  WZ1       2963            0.0000000000
      3601      1201  TIP3      OH2           -22.4775803985       23.5881042534      -23.6632346635  WZ1       2964            0.0000000000
      3602      1201  TIP3      H1            -23.3409103985       23.2093142534      -23.8287646635  WZ1       2964            0.0000000000
      3603      1201  TIP3      H2            -21.8732103985       22.8495842534      -23.7376546635  WZ1       2964            0.0000000000
      3604      1202  TIP3      OH2           -24.4790803985       22.6160442534      -27.3122646635  WZ1       2968            0.0000000000
      3605      1202  TIP3      H1            -25.3219503985       22.8840842534      -26.9462846635  WZ1       2968            0.0000000000
      3606      1202  TIP3      H2            -24.0366503985       23.4382342534      -27.5231546635  WZ1       2968            0.0000000000
      3607      1203  TIP3      OH2           -22.1959203985       16.5960642534      -21.9587646635  WZ1       2970            0.0000000000
      3608      1203  TIP3      H1            -21.8462203985       15.9424142534      -22.5642946635  WZ1       2970            0.0000000000
      3609      1203  TIP3      H2            -22.0489703985       17.4334742534      -22.3985046635  WZ1       2970            0.0000000000
      3610      1204  TIP3      OH2           -22.6762003985       18.7055242534      -23.6096346635  WZ1       2974            0.0000000000
      3611      1204  TIP3      H1            -23.5936303985       18.9762342534      -23.6452846635  WZ1       2974            0.0000000000
      3612      1204  TIP3      H2            -22.5532603985       18.1703642534      -24.3936646635  WZ1       2974            0.0000000000
      3613      1205  TIP3      OH2           -23.6756103985       16.7951542534      -25.7905546635  WZ1       2983            0.0000000000
      3614      1205  TIP3      H1            -24.4882603985       17.1201842534      -26.1780846635  WZ1       2983            0.0000000000
      3615      1205  TIP3      H2            -23.4427603985       16.0350042534      -26.3236446635  WZ1       2983            0.0000000000
      3616      1206  TIP3      OH2           -25.1030403985       16.3516142534      -31.3550246635  WZ1       2993            0.0000000000
      3617      1206  TIP3      H1            -24.4992803985       16.8991542534      -31.8569246635  WZ1       2993            0.0000000000
      3618      1206  TIP3      H2            -25.9728403985       16.6706542534      -31.5956146635  WZ1       2993            0.0000000000
      3619      1207  TIP3      OH2           -27.5669003985       16.0754042534      -22.4101346635  WZ1       3008            0.0000000000
      3620      1207  TIP3      H1            -27.4901803985       15.6494742534      -21.5563646635  WZ1       3008            0.0000000000
      3621      1207  TIP3      H2            -26.6732403985       16.0888742534      -22.7527846635  WZ1       3008            0.0000000000
      3622      1208  TIP3      OH2           -11.0516203985       25.2895442534      -30.2681746635  WZ1       3011            0.0000000000
      3623      1208  TIP3      H1            -11.0898703985       24.6431742534      -29.5632146635  WZ1       3011            0.0000000000
      3624      1208  TIP3      H2            -11.3739703985       24.8229842534      -31.0393046635  WZ1       3011            0.0000000000
      3625      1209  TIP3      OH2           -18.6831203985       24.9037542534      -28.6751846635  WZ1       3012            0.0000000000
      3626      1209  TIP3      H1            -18.6419103985       24.2780842534      -27.9519446635  WZ1       3012            0.0000000000
      3627      1209  TIP3      H2            -17.9803503985       25.5276142534      -28.4931446635  WZ1       3012            0.0000000000
      3628      1210  TIP3      OH2            -7.3456003985       28.2285842534      -31.9666646635  WZ1       3013            0.0000000000
      3629      1210  TIP3      H1             -7.7863303985       27.5081842534      -31.5161046635  WZ1       3013            0.0000000000
      3630      1210  TIP3      H2             -7.3586303985       28.9493042534      -31.3368946635  WZ1       3013            0.0000000000
      3631      1211  TIP3      OH2           -12.6621803985       27.7216842534      -29.8620746635  WZ1       3018            0.0000000000
      3632      1211  TIP3      H1            -12.3583903985       27.0358242534      -30.4566646635  WZ1       3018            0.0000000000
      3633      1211  TIP3      H2            -11.9407803985       27.8405542534      -29.2442746635  WZ1       3018            0.0000000000
      3634      1212  TIP3      OH2            -3.9992003985       19.3232142534      -29.0014546635  WZ1       3019            0.0000000000
      3635      1212  TIP3      H1             -3.9499803985       19.9333342534      -28.2655446635  WZ1       3019            0.0000000000
      3636      1212  TIP3      H2             -3.5736903985       19.7843042534      -29.7243446635  WZ1       3019            0.0000000000
      3637      1213  TIP3      OH2            -9.5214803985       22.1159242534      -29.5345946635  WZ1       3020            0.0000000000
      3638      1213  TIP3      H1             -9.3788903985       21.1696242534      -29.5144346635  WZ1       3020            0.0000000000
      3639      1213  TIP3      H2             -9.6275803985       22.3229042534      -30.4631046635  WZ1       3020            0.0000000000
      3640      1214  TIP3      OH2           -16.3666503985       20.2175642534      -32.2621146635  WZ1       3021            0.0000000000
      3641      1214  TIP3      H1            -16.3235403985       21.0774142534      -32.6804846635  WZ1       3021            0.0000000000
      3642      1214  TIP3      H2            -16.8242403985       19.6650342534      -32.8957946635  WZ1       3021            0.0000000000
      3643      1215  TIP3      OH2            -8.6443803985       20.3481242534      -33.8612846635  WZ1       3022            0.0000000000
      3644      1215  TIP3      H1             -7.9979503985       20.0194442534      -33.2365246635  WZ1       3022            0.0000000000
      3645      1215  TIP3      H2             -8.1344403985       20.8660242534      -34.4841446635  WZ1       3022            0.0000000000
      3646      1216  TIP3      OH2           -14.5900503985       24.1642742534      -32.2848246635  WZ1       3024            0.0000000000
      3647      1216  TIP3      H1            -13.9739503985       23.6378142534      -31.7754246635  WZ1       3024            0.0000000000
      3648      1216  TIP3      H2            -15.1761703985       23.5241442534      -32.6884646635  WZ1       3024            0.0000000000
      3649      1217  TIP3      OH2            -3.6077403985       20.8011342534      -26.7654746635  WZ1       3025            0.0000000000
      3650      1217  TIP3      H1             -4.2962803985       21.4592042534      -26.8608146635  WZ1       3025            0.0000000000
      3651      1217  TIP3      H2             -3.5922803985       20.6039242534      -25.8289346635  WZ1       3025            0.0000000000
      3652      1218  TIP3      OH2           -17.5564603985       19.1354042534      -28.1880346635  WZ1       3026            0.0000000000
      3653      1218  TIP3      H1            -17.7752903985       19.6654642534      -28.9544346635  WZ1       3026            0.0000000000
      3654      1218  TIP3      H2            -18.2243703985       19.3619542534      -27.5408946635  WZ1       3026            0.0000000000
      3655      1219  TIP3      OH2           -14.9873203985       26.8109742534      -27.9006646635  WZ1       3028            0.0000000000
      3656      1219  TIP3      H1            -15.7274103985       27.4091242534      -27.7971446635  WZ1       3028            0.0000000000
      3657      1219  TIP3      H2            -14.2733703985       27.3649342534      -28.2163046635  WZ1       3028            0.0000000000
      3658      1220  TIP3      OH2            -6.8805403985       19.6390542534      -31.8806946635  WZ1       3029            0.0000000000
      3659      1220  TIP3      H1             -7.0957403985       18.8733942534      -31.3480946635  WZ1       3029            0.0000000000
      3660      1220  TIP3      H2             -6.2248003985       20.1115142534      -31.3678446635  WZ1       3029            0.0000000000
      3661      1221  TIP3      OH2           -17.9627303985       21.0275842534      -30.2358146635  WZ1       3030            0.0000000000
      3662      1221  TIP3      H1            -17.3491003985       21.6603442534      -29.8625746635  WZ1       3030            0.0000000000
      3663      1221  TIP3      H2            -17.4506603985       20.5550842534      -30.8921246635  WZ1       3030            0.0000000000
      3664      1222  TIP3      OH2            -6.8338303985       30.0676542534      -29.6187346635  WZ1       3033            0.0000000000
      3665      1222  TIP3      H1             -7.7754603985       30.1260442534      -29.4570446635  WZ1       3033            0.0000000000
      3666      1222  TIP3      H2             -6.5572203985       30.9737042534      -29.7557646635  WZ1       3033            0.0000000000
      3667      1223  TIP3      OH2            -6.5331303985       18.3541842534      -28.2013446635  WZ1       3034            0.0000000000
      3668      1223  TIP3      H1             -7.2692103985       18.9648942534      -28.2392146635  WZ1       3034            0.0000000000
      3669      1223  TIP3      H2             -5.8497303985       18.7690842534      -28.7277046635  WZ1       3034            0.0000000000
      3670      1224  TIP3      OH2           -13.5299903985       16.4409142534      -30.7355446635  WZ1       3035            0.0000000000
      3671      1224  TIP3      H1            -13.6475703985       15.4925142534      -30.7897146635  WZ1       3035            0.0000000000
      3672      1224  TIP3      H2            -14.3849803985       16.7735242534      -30.4624346635  WZ1       3035            0.0000000000
      3673      1225  TIP3      OH2            -5.7360403985       28.3165242534      -26.0075646635  WZ1       3038            0.0000000000
      3674      1225  TIP3      H1             -5.5964103985       27.7247742534      -26.7468646635  WZ1       3038            0.0000000000
      3675      1225  TIP3      H2             -5.5687603985       29.1891142534      -26.3636846635  WZ1       3038            0.0000000000
      3676      1226  TIP3      OH2            -3.8941103985       24.6563242534      -27.9415246635  WZ1       3041            0.0000000000
      3677      1226  TIP3      H1             -4.5467003985       25.3508842534      -27.8524346635  WZ1       3041            0.0000000000
      3678      1226  TIP3      H2             -3.4290803985       24.8664142534      -28.7513646635  WZ1       3041            0.0000000000
      3679      1227  TIP3      OH2            -7.8577303985       25.4878042534      -35.2833746635  WZ1       3042            0.0000000000
      3680      1227  TIP3      H1             -8.5896303985       25.7161742534      -34.7103146635  WZ1       3042            0.0000000000
      3681      1227  TIP3      H2             -7.4105103985       24.7740742534      -34.8286246635  WZ1       3042            0.0000000000
      3682      1228  TIP3      OH2            -7.9603803985       23.6620642534      -26.2156746635  WZ1       3043            0.0000000000
      3683      1228  TIP3      H1             -7.8804703985       24.4255042534      -25.6438246635  WZ1       3043            0.0000000000
      3684      1228  TIP3      H2             -8.5616103985       23.9413042534      -26.9061646635  WZ1       3043            0.0000000000
      3685      1229  TIP3      OH2           -15.8458103985       24.8869842534      -29.7673746635  WZ1       3046            0.0000000000
      3686      1229  TIP3      H1            -15.2805603985       25.0084042534      -30.5302546635  WZ1       3046            0.0000000000
      3687      1229  TIP3      H2            -15.5269203985       25.5244842534      -29.1285246635  WZ1       3046            0.0000000000
      3688      1230  TIP3      OH2            -9.5365903985       30.3901742534      -29.0333246635  WZ1       3047            0.0000000000
      3689      1230  TIP3      H1             -9.7769303985       31.0524842534      -28.3854046635  WZ1       3047            0.0000000000
      3690      1230  TIP3      H2             -9.7347703985       29.5556942534      -28.6083646635  WZ1       3047            0.0000000000
      3691      1231  TIP3      OH2           -14.9657403985       29.2862542534      -25.0501846635  WZ1       3048            0.0000000000
      3692      1231  TIP3      H1            -15.2769903985       30.0685742534      -24.5948646635  WZ1       3048            0.0000000000
      3693      1231  TIP3      H2            -15.6157203985       29.1331642534      -25.7359846635  WZ1       3048            0.0000000000
      3694      1232  TIP3      OH2           -18.0457503985       25.4843642534      -25.8216146635  WZ1       3050            0.0000000000
      3695      1232  TIP3      H1            -17.9754303985       26.1350442534      -25.1231146635  WZ1       3050            0.0000000000
      3696      1232  TIP3      H2            -18.9365303985       25.5871142534      -26.1565246635  WZ1       3050            0.0000000000
      3697      1233  TIP3      OH2           -16.7261503985       31.3577542534      -24.2868046635  WZ1       3052            0.0000000000
      3698      1233  TIP3      H1            -16.7186203985       31.2217242534      -25.2342546635  WZ1       3052            0.0000000000
      3699      1233  TIP3      H2            -17.6421103985       31.2405642534      -24.0348046635  WZ1       3052            0.0000000000
      3700      1234  TIP3      OH2            -5.2879403985       16.4001342534      -37.7852846635  WZ1       3053            0.0000000000
      3701      1234  TIP3      H1             -6.1878703985       16.5390342534      -37.4902246635  WZ1       3053            0.0000000000
      3702      1234  TIP3      H2             -5.0361003985       17.2315942534      -38.1871146635  WZ1       3053            0.0000000000
      3703      1235  TIP3      OH2            -3.1809603985       30.9971242534      -24.4302246635  WZ1       3058            0.0000000000
      3704      1235  TIP3      H1             -3.2302803985       30.0419342534      -24.4674646635  WZ1       3058            0.0000000000
      3705      1235  TIP3      H2             -4.0077303985       31.2646542534      -24.0288446635  WZ1       3058            0.0000000000
      3706      1236  TIP3      OH2           -12.2025603985       30.5710442534      -25.5540846635  WZ1       3059            0.0000000000
      3707      1236  TIP3      H1            -12.1151003985       31.3975042534      -25.0791746635  WZ1       3059            0.0000000000
      3708      1236  TIP3      H2            -13.0660503985       30.2414242534      -25.3051546635  WZ1       3059            0.0000000000
      3709      1237  TIP3      OH2            -6.0289803985       22.4903742534      -23.9500046635  WZ1       3064            0.0000000000
      3710      1237  TIP3      H1             -6.4363003985       22.9709342534      -24.6706746635  WZ1       3064            0.0000000000
      3711      1237  TIP3      H2             -5.9884103985       21.5849742534      -24.2579246635  WZ1       3064            0.0000000000
      3712      1238  TIP3      OH2           -18.8800303985       28.8743142534      -25.9533346635  WZ1       3065            0.0000000000
      3713      1238  TIP3      H1            -18.6639003985       28.5128742534      -25.0937546635  WZ1       3065            0.0000000000
      3714      1238  TIP3      H2            -19.7355603985       28.4996942534      -26.1629846635  WZ1       3065            0.0000000000
      3715      1239  TIP3      OH2           -16.2612303985       17.3443642534      -29.9579146635  WZ1       3066            0.0000000000
      3716      1239  TIP3      H1            -17.1228603985       17.2571842534      -30.3656246635  WZ1       3066            0.0000000000
      3717      1239  TIP3      H2            -16.2836603985       18.2003742534      -29.5301546635  WZ1       3066            0.0000000000
      3718      1240  TIP3      OH2           -11.5984503985       17.0664042534      -26.5832146635  WZ1       3067            0.0000000000
      3719      1240  TIP3      H1            -11.1781403985       16.6511142534      -25.8301546635  WZ1       3067            0.0000000000
      3720      1240  TIP3      H2            -12.5314903985       16.8877342534      -26.4660146635  WZ1       3067            0.0000000000
      3721      1241  TIP3      OH2            -8.2719603985       20.8219242534      -25.7297646635  WZ1       3068            0.0000000000
      3722      1241  TIP3      H1             -8.7860103985       20.6961442534      -24.9321646635  WZ1       3068            0.0000000000
      3723      1241  TIP3      H2             -8.4274903985       21.7342342534      -25.9741446635  WZ1       3068            0.0000000000
      3724      1242  TIP3      OH2           -16.1702203985       22.3098142534      -28.8628946635  WZ1       3071            0.0000000000
      3725      1242  TIP3      H1            -16.8120103985       22.2695442534      -28.1538846635  WZ1       3071            0.0000000000
      3726      1242  TIP3      H2            -16.1330203985       23.2362842534      -29.1005946635  WZ1       3071            0.0000000000
      3727      1243  TIP3      OH2           -11.5356003985       23.1224942534      -23.6457446635  WZ1       3074            0.0000000000
      3728      1243  TIP3      H1            -12.0982203985       22.4176542534      -23.3249646635  WZ1       3074            0.0000000000
      3729      1243  TIP3      H2            -10.7092603985       23.0016842534      -23.1779846635  WZ1       3074            0.0000000000
      3730      1244  TIP3      OH2            -9.6329903985       22.3928942534      -32.3198446635  WZ1       3075            0.0000000000
      3731      1244  TIP3      H1             -9.8285403985       22.9985742534      -33.0347846635  WZ1       3075            0.0000000000
      3732      1244  TIP3      H2             -9.4517303985       21.5594142534      -32.7542146635  WZ1       3075            0.0000000000
      3733      1245  TIP3      OH2           -18.4201703985       22.6301642534      -26.9956946635  WZ1       3076            0.0000000000
      3734      1245  TIP3      H1            -18.4582303985       23.0303242534      -26.1269846635  WZ1       3076            0.0000000000
      3735      1245  TIP3      H2            -18.9110603985       21.8134042534      -26.9054046635  WZ1       3076            0.0000000000
      3736      1246  TIP3      OH2           -10.3690703985       24.0310242534      -27.6486046635  WZ1       3080            0.0000000000
      3737      1246  TIP3      H1            -10.0455903985       23.3999942534      -28.2915546635  WZ1       3080            0.0000000000
      3738      1246  TIP3      H2            -10.8091403985       23.4962442534      -26.9878646635  WZ1       3080            0.0000000000
      3739      1247  TIP3      OH2           -13.5917803985       19.9585742534      -32.8644846635  WZ1       3081            0.0000000000
      3740      1247  TIP3      H1            -14.5026703985       20.0152542534      -32.5758846635  WZ1       3081            0.0000000000
      3741      1247  TIP3      H2            -13.0864903985       19.8981242534      -32.0537646635  WZ1       3081            0.0000000000
      3742      1248  TIP3      OH2            -9.1865903985       19.1932042534      -29.6003046635  WZ1       3084            0.0000000000
      3743      1248  TIP3      H1             -9.8634303985       19.3245142534      -28.9363346635  WZ1       3084            0.0000000000
      3744      1248  TIP3      H2             -9.6721003985       19.0381542534      -30.4105346635  WZ1       3084            0.0000000000
      3745      1249  TIP3      OH2            -5.8990803985       34.8647442534      -23.3235446635  WZ1       3086            0.0000000000
      3746      1249  TIP3      H1             -5.6992103985       35.2889342534      -24.1580146635  WZ1       3086            0.0000000000
      3747      1249  TIP3      H2             -5.2437103985       35.2085642534      -22.7165046635  WZ1       3086            0.0000000000
      3748      1250  TIP3      OH2           -18.3011003985       27.3388742534      -23.7154946635  WZ1       3087            0.0000000000
      3749      1250  TIP3      H1            -17.5688603985       27.5934642534      -23.1540446635  WZ1       3087            0.0000000000
      3750      1250  TIP3      H2            -19.0812303985       27.5434142534      -23.1999546635  WZ1       3087            0.0000000000
      3751      1251  TIP3      OH2           -12.2718103985       22.7458742534      -30.9775246635  WZ1       3088            0.0000000000
      3752      1251  TIP3      H1            -11.7074703985       22.1995342534      -31.5245646635  WZ1       3088            0.0000000000
      3753      1251  TIP3      H2            -12.4194703985       22.2240642534      -30.1887646635  WZ1       3088            0.0000000000
      3754      1252  TIP3      OH2           -17.2698403985       18.8824842534      -34.5590446635  WZ1       3089            0.0000000000
      3755      1252  TIP3      H1            -17.5868903985       17.9800142534      -34.5945046635  WZ1       3089            0.0000000000
      3756      1252  TIP3      H2            -16.4884303985       18.8842242534      -35.1118846635  WZ1       3089            0.0000000000
      3757      1253  TIP3      OH2           -13.6452203985       21.1344842534      -28.5634846635  WZ1       3090            0.0000000000
      3758      1253  TIP3      H1            -14.4806903985       21.5884342534      -28.4532446635  WZ1       3090            0.0000000000
      3759      1253  TIP3      H2            -13.1211603985       21.4103342534      -27.8114946635  WZ1       3090            0.0000000000
      3760      1254  TIP3      OH2            -5.9510703985       26.4800742534      -28.0920846635  WZ1       3092            0.0000000000
      3761      1254  TIP3      H1             -5.3091903985       26.9367042534      -28.6358646635  WZ1       3092            0.0000000000
      3762      1254  TIP3      H2             -6.7813803985       26.5933142534      -28.5546746635  WZ1       3092            0.0000000000
      3763      1255  TIP3      OH2           -11.5817503985       27.5315842534      -25.6419346635  WZ1       3094            0.0000000000
      3764      1255  TIP3      H1            -11.9271403985       27.1498242534      -24.8349746635  WZ1       3094            0.0000000000
      3765      1255  TIP3      H2            -11.7817403985       28.4649442534      -25.5706446635  WZ1       3094            0.0000000000
      3766      1256  TIP3      OH2            -8.4849303985       22.0285142534      -37.0188446635  WZ1       3095            0.0000000000
      3767      1256  TIP3      H1             -7.5930303985       21.8910142534      -36.6997246635  WZ1       3095            0.0000000000
      3768      1256  TIP3      H2             -8.4285703985       22.8191242534      -37.5554946635  WZ1       3095            0.0000000000
      3769      1257  TIP3      OH2           -20.9681603985       25.1029442534      -25.7942046635  WZ1       3098            0.0000000000
      3770      1257  TIP3      H1            -20.7453003985       24.6849042534      -24.9624546635  WZ1       3098            0.0000000000
      3771      1257  TIP3      H2            -21.5701503985       24.4904442534      -26.2169246635  WZ1       3098            0.0000000000
      3772      1258  TIP3      OH2           -13.9516703985       24.6199342534      -23.5812346635  WZ1       3099            0.0000000000
      3773      1258  TIP3      H1            -14.2475903985       24.4542342534      -24.4763246635  WZ1       3099            0.0000000000
      3774      1258  TIP3      H2            -13.0201503985       24.3999642534      -23.5918446635  WZ1       3099            0.0000000000
      3775      1259  TIP3      OH2            -9.3313903985       29.9931342534      -25.6914346635  WZ1       3100            0.0000000000
      3776      1259  TIP3      H1            -10.2319603985       30.1763942534      -25.9590446635  WZ1       3100            0.0000000000
      3777      1259  TIP3      H2             -9.2972803985       30.2520642534      -24.7705546635  WZ1       3100            0.0000000000
      3778      1260  TIP3      OH2            -3.6000603985       22.2379242534      -37.3241746635  WZ1       3101            0.0000000000
      3779      1260  TIP3      H1             -4.1544303985       21.8417242534      -37.9964246635  WZ1       3101            0.0000000000
      3780      1260  TIP3      H2             -3.4997003985       23.1484442534      -37.6018446635  WZ1       3101            0.0000000000
      3781      1261  TIP3      OH2            -3.6368603985       28.0380942534      -24.4870246635  WZ1       3102            0.0000000000
      3782      1261  TIP3      H1             -4.4880103985       28.2764742534      -24.8543846635  WZ1       3102            0.0000000000
      3783      1261  TIP3      H2             -3.0465203985       28.0214142534      -25.2403146635  WZ1       3102            0.0000000000
      3784      1262  TIP3      OH2            -8.1445003985       25.8319142534      -29.8377746635  WZ1       3104            0.0000000000
      3785      1262  TIP3      H1             -9.0728103985       25.6001042534      -29.8648446635  WZ1       3104            0.0000000000
      3786      1262  TIP3      H2             -7.6933903985       25.0548942534      -30.1678946635  WZ1       3104            0.0000000000
      3787      1263  TIP3      OH2           -10.1152203985       28.0714942534      -28.1128046635  WZ1       3110            0.0000000000
      3788      1263  TIP3      H1            -10.5410903985       27.8436642534      -27.2864046635  WZ1       3110            0.0000000000
      3789      1263  TIP3      H2             -9.5346403985       27.3326742534      -28.2952746635  WZ1       3110            0.0000000000
      3790      1264  TIP3      OH2            -7.4568003985       32.6234442534      -25.6433246635  WZ1       3112            0.0000000000
      3791      1264  TIP3      H1             -8.0584803985       32.0677342534      -26.1386946635  WZ1       3112            0.0000000000
      3792      1264  TIP3      H2             -7.1754303985       33.2904242534      -26.2695846635  WZ1       3112            0.0000000000
      3793      1265  TIP3      OH2           -19.3342103985       19.8562142534      -26.2360646635  WZ1       3114            0.0000000000
      3794      1265  TIP3      H1            -20.2269803985       20.1947542534      -26.3036646635  WZ1       3114            0.0000000000
      3795      1265  TIP3      H2            -19.4329303985       19.0008242534      -25.8179846635  WZ1       3114            0.0000000000
      3796      1266  TIP3      OH2           -10.5998703985       19.5972442534      -27.3462046635  WZ1       3120            0.0000000000
      3797      1266  TIP3      H1             -9.9010803985       19.6711142534      -26.6962346635  WZ1       3120            0.0000000000
      3798      1266  TIP3      H2            -10.9807303985       18.7327442534      -27.1919146635  WZ1       3120            0.0000000000
      3799      1267  TIP3      OH2            -9.8153803985       19.2494142534      -36.2489746635  WZ1       3121            0.0000000000
      3800      1267  TIP3      H1             -9.5955503985       19.7209542534      -37.0524346635  WZ1       3121            0.0000000000
      3801      1267  TIP3      H2             -9.2569803985       19.6436742534      -35.5789146635  WZ1       3121            0.0000000000
      3802      1268  TIP3      OH2           -12.6153903985       20.9772942534      -35.4141346635  WZ1       3123            0.0000000000
      3803      1268  TIP3      H1            -11.8031303985       21.4816142534      -35.3679646635  WZ1       3123            0.0000000000
      3804      1268  TIP3      H2            -12.8600903985       20.8322642534      -34.5001746635  WZ1       3123            0.0000000000
      3805      1269  TIP3      OH2           -12.0797503985       21.9635642534      -26.2294746635  WZ1       3124            0.0000000000
      3806      1269  TIP3      H1            -11.9607203985       22.5371042534      -25.4724346635  WZ1       3124            0.0000000000
      3807      1269  TIP3      H2            -11.4242903985       21.2755042534      -26.1146946635  WZ1       3124            0.0000000000
      3808      1270  TIP3      OH2           -11.7317203985       18.0585942534      -34.4760246635  WZ1       3125            0.0000000000
      3809      1270  TIP3      H1            -12.0783703985       18.6756542534      -33.8315946635  WZ1       3125            0.0000000000
      3810      1270  TIP3      H2            -11.0730303985       18.5591642534      -34.9574746635  WZ1       3125            0.0000000000
      3811      1271  TIP3      OH2            -5.8751703985       19.8705942534      -25.3945046635  WZ1       3128            0.0000000000
      3812      1271  TIP3      H1             -6.7915903985       20.1327642534      -25.4821346635  WZ1       3128            0.0000000000
      3813      1271  TIP3      H2             -5.5396703985       19.8674942534      -26.2909746635  WZ1       3128            0.0000000000
      3814      1272  TIP3      OH2            -7.2730703985       23.6206942534      -31.2987746635  WZ1       3129            0.0000000000
      3815      1272  TIP3      H1             -8.0706303985       23.2057142534      -31.6272746635  WZ1       3129            0.0000000000
      3816      1272  TIP3      H2             -6.8279603985       22.9300642534      -30.8077246635  WZ1       3129            0.0000000000
      3817      1273  TIP3      OH2            -6.1866103985       32.8769442534      -29.6764246635  WZ1       3132            0.0000000000
      3818      1273  TIP3      H1             -6.3421803985       33.5553842534      -30.3334946635  WZ1       3132            0.0000000000
      3819      1273  TIP3      H2             -5.2539703985       32.9488742534      -29.4733646635  WZ1       3132            0.0000000000
      3820      1274  TIP3      OH2           -18.6913703985       16.9947142534      -30.9392846635  WZ1       3133            0.0000000000
      3821      1274  TIP3      H1            -18.9203903985       17.0539642534      -31.8667846635  WZ1       3133            0.0000000000
      3822      1274  TIP3      H2            -19.1340303985       16.2032642534      -30.6328746635  WZ1       3133            0.0000000000
      3823      1275  TIP3      OH2           -15.8753303985       32.4672342534      -21.8284846635  WZ1       3136            0.0000000000
      3824      1275  TIP3      H1            -15.1076103985       32.0083142534      -21.4875646635  WZ1       3136            0.0000000000
      3825      1275  TIP3      H2            -15.8967103985       32.2412142534      -22.7583646635  WZ1       3136            0.0000000000
      3826      1276  TIP3      OH2            -9.2984603985       30.8473442534      -23.0993346635  WZ1       3138            0.0000000000
      3827      1276  TIP3      H1             -9.6495103985       29.9906442534      -22.8562946635  WZ1       3138            0.0000000000
      3828      1276  TIP3      H2             -8.5721403985       30.9900142534      -22.4924346635  WZ1       3138            0.0000000000
      3829      1277  TIP3      OH2           -20.5657203985       27.3582042534      -22.4944746635  WZ1       3140            0.0000000000
      3830      1277  TIP3      H1            -20.4216703985       26.4562742534      -22.7808046635  WZ1       3140            0.0000000000
      3831      1277  TIP3      H2            -21.3379803985       27.6444142534      -22.9822446635  WZ1       3140            0.0000000000
      3832      1278  TIP3      OH2           -13.9101103985       27.3280142534      -23.0618346635  WZ1       3142            0.0000000000
      3833      1278  TIP3      H1            -14.2387303985       27.5988242534      -23.9190946635  WZ1       3142            0.0000000000
      3834      1278  TIP3      H2            -13.7582903985       26.3869942534      -23.1493346635  WZ1       3142            0.0000000000
      3835      1279  TIP3      OH2            -8.1755903985       27.2437442534      -25.6786046635  WZ1       3144            0.0000000000
      3836      1279  TIP3      H1             -7.4301103985       27.8321142534      -25.7982046635  WZ1       3144            0.0000000000
      3837      1279  TIP3      H2             -8.9329103985       27.8257142534      -25.6152946635  WZ1       3144            0.0000000000
      3838      1280  TIP3      OH2           -19.7330703985       24.5585342534      -23.0745446635  WZ1       3145            0.0000000000
      3839      1280  TIP3      H1            -19.3249503985       23.7011942534      -23.1954846635  WZ1       3145            0.0000000000
      3840      1280  TIP3      H2            -19.9933103985       24.5726642534      -22.1535146635  WZ1       3145            0.0000000000
      3841      1281  TIP3      OH2           -15.7860403985       23.5671042534      -25.7002546635  WZ1       3147            0.0000000000
      3842      1281  TIP3      H1            -16.4044303985       24.2417642534      -25.4197846635  WZ1       3147            0.0000000000
      3843      1281  TIP3      H2            -15.4419203985       23.8884942534      -26.5336346635  WZ1       3147            0.0000000000
      3844      1282  TIP3      OH2           -10.7662203985       26.0386342534      -22.4227746635  WZ1       3149            0.0000000000
      3845      1282  TIP3      H1             -9.8131003985       26.1225442534      -22.4501746635  WZ1       3149            0.0000000000
      3846      1282  TIP3      H2            -10.9267603985       25.3268142534      -21.8032846635  WZ1       3149            0.0000000000
      3847      1283  TIP3      OH2           -15.4466703985       20.9221842534      -24.6179446635  WZ1       3151            0.0000000000
      3848      1283  TIP3      H1            -15.2965803985       20.1933142534      -25.2199746635  WZ1       3151            0.0000000000
      3849      1283  TIP3      H2            -15.4444303985       21.6993542534      -25.1767246635  WZ1       3151            0.0000000000
      3850      1284  TIP3      OH2           -15.0341003985       19.2917642534      -27.1252046635  WZ1       3152            0.0000000000
      3851      1284  TIP3      H1            -14.4983503985       19.7434342534      -27.7772746635  WZ1       3152            0.0000000000
      3852      1284  TIP3      H2            -15.8861403985       19.1837442534      -27.5477946635  WZ1       3152            0.0000000000
      3853      1285  TIP3      OH2           -13.4522603985       24.7313842534      -26.8856846635  WZ1       3153            0.0000000000
      3854      1285  TIP3      H1            -12.7017803985       24.5751342534      -27.4589046635  WZ1       3153            0.0000000000
      3855      1285  TIP3      H2            -13.7914303985       25.5830442534      -27.1611346635  WZ1       3153            0.0000000000
      3856      1286  TIP3      OH2            -9.0366403985       22.5465642534      -21.8571546635  WZ1       3154            0.0000000000
      3857      1286  TIP3      H1             -8.8445103985       21.6155042534      -21.9687046635  WZ1       3154            0.0000000000
      3858      1286  TIP3      H2             -8.1790103985       22.9715142534      -21.8676146635  WZ1       3154            0.0000000000
      3859      1287  TIP3      OH2            -7.7199203985       25.3350842534      -23.7798846635  WZ1       3155            0.0000000000
      3860      1287  TIP3      H1             -8.0014203985       26.0445442534      -24.3575046635  WZ1       3155            0.0000000000
      3861      1287  TIP3      H2             -6.7774903985       25.2623842534      -23.9307646635  WZ1       3155            0.0000000000
      3862      1288  TIP3      OH2           -16.9680403985       22.1205342534      -22.7063846635  WZ1       3156            0.0000000000
      3863      1288  TIP3      H1            -17.7351403985       21.5880142534      -22.9166246635  WZ1       3156            0.0000000000
      3864      1288  TIP3      H2            -16.2891403985       21.8105742534      -23.3057546635  WZ1       3156            0.0000000000
      3865      1289  TIP3      OH2           -14.2285503985       16.7483342534      -26.6938446635  WZ1       3157            0.0000000000
      3866      1289  TIP3      H1            -14.3265903985       17.6946542534      -26.7992246635  WZ1       3157            0.0000000000
      3867      1289  TIP3      H2            -14.9709303985       16.3757142534      -27.1694946635  WZ1       3157            0.0000000000
      3868      1290  TIP3      OH2           -12.9645003985       21.0698742534      -23.1300046635  WZ1       3158            0.0000000000
      3869      1290  TIP3      H1            -13.1999603985       20.8505442534      -22.2285146635  WZ1       3158            0.0000000000
      3870      1290  TIP3      H2            -13.7478103985       20.8629942534      -23.6397546635  WZ1       3158            0.0000000000
      3871      1291  TIP3      OH2           -10.2488403985       20.1972242534      -24.0546546635  WZ1       3159            0.0000000000
      3872      1291  TIP3      H1            -11.1963003985       20.2291942534      -23.9223246635  WZ1       3159            0.0000000000
      3873      1291  TIP3      H2             -9.9361703985       19.5719342534      -23.4008346635  WZ1       3159            0.0000000000
      3874      1292  TIP3      OH2            -8.6146903985       18.8313342534      -22.0494646635  WZ1       3160            0.0000000000
      3875      1292  TIP3      H1             -8.7115103985       17.8790642534      -22.0552746635  WZ1       3160            0.0000000000
      3876      1292  TIP3      H2             -8.9363803985       19.1000142534      -21.1889146635  WZ1       3160            0.0000000000
      3877      1293  TIP3      OH2           -18.7877603985       20.0409142534      -23.0019146635  WZ1       3161            0.0000000000
      3878      1293  TIP3      H1            -18.5760203985       19.3345242534      -23.6121646635  WZ1       3161            0.0000000000
      3879      1293  TIP3      H2            -18.8990103985       19.6035142534      -22.1577946635  WZ1       3161            0.0000000000
      3880      1294  TIP3      OH2           -14.0067403985       16.0420742534      -24.0225646635  WZ1       3162            0.0000000000
      3881      1294  TIP3      H1            -13.2949003985       15.4022942534      -24.0366546635  WZ1       3162            0.0000000000
      3882      1294  TIP3      H2            -14.1077003985       16.3089042534      -24.9362546635  WZ1       3162            0.0000000000
      3883      1295  TIP3      OH2           -13.6529903985       17.7249142534      -21.9689346635  WZ1       3163            0.0000000000
      3884      1295  TIP3      H1            -13.7847703985       17.2492942534      -22.7890846635  WZ1       3163            0.0000000000
      3885      1295  TIP3      H2            -14.2522503985       18.4692742534      -22.0242246635  WZ1       3163            0.0000000000
      3886      1296  TIP3      OH2            -3.4708103985       33.5275142534      -29.4472346635  WZ1       3168            0.0000000000
      3887      1296  TIP3      H1             -3.4921403985       33.7123542534      -28.5082946635  WZ1       3168            0.0000000000
      3888      1296  TIP3      H2             -2.7801903985       34.0959142534      -29.7880946635  WZ1       3168            0.0000000000
      3889      1297  TIP3      OH2            -3.9075203985       33.0946242534      -26.5253246635  WZ1       3169            0.0000000000
      3890      1297  TIP3      H1             -4.3946503985       32.3590342534      -26.8965846635  WZ1       3169            0.0000000000
      3891      1297  TIP3      H2             -3.3582503985       32.7010142534      -25.8473846635  WZ1       3169            0.0000000000
      3892      1298  TIP3      OH2            -5.4567903985       28.8844342534      -21.8872946635  WZ1       3170            0.0000000000
      3893      1298  TIP3      H1             -6.3226803985       28.7794042534      -21.4930646635  WZ1       3170            0.0000000000
      3894      1298  TIP3      H2             -5.0802003985       29.6427642534      -21.4408246635  WZ1       3170            0.0000000000
      3895      1299  TIP3      OH2            -4.1558203985       27.1408042534      -36.3730446635  WZ1       3171            0.0000000000
      3896      1299  TIP3      H1             -3.3056803985       27.5618942534      -36.2458846635  WZ1       3171            0.0000000000
      3897      1299  TIP3      H2             -4.1503103985       26.4008142534      -35.7659046635  WZ1       3171            0.0000000000
      3898      1300  TIP3      OH2            -3.7612603985       25.1945442534      -34.5494746635  WZ1       3172            0.0000000000
      3899      1300  TIP3      H1             -4.4878003985       24.7148042534      -34.1517146635  WZ1       3172            0.0000000000
      3900      1300  TIP3      H2             -3.1799303985       25.4000142534      -33.8173146635  WZ1       3172            0.0000000000
      3901      1301  TIP3      OH2            -4.0021403985       27.9792942534      -29.6017146635  WZ1       3173            0.0000000000
      3902      1301  TIP3      H1             -3.1687203985       27.6012942534      -29.8823546635  WZ1       3173            0.0000000000
      3903      1301  TIP3      H2             -3.8901103985       28.9224142534      -29.7208046635  WZ1       3173            0.0000000000
      3904      1302  TIP3      OH2            -5.5159103985       30.8570442534      -27.2948746635  WZ1       3174            0.0000000000
      3905      1302  TIP3      H1             -6.1633803985       31.1821942534      -26.6693546635  WZ1       3174            0.0000000000
      3906      1302  TIP3      H2             -6.0335103985       30.4168142534      -27.9690446635  WZ1       3174            0.0000000000
      3907      1303  TIP3      OH2            -5.9745803985       23.7151942534      -33.9866046635  WZ1       3177            0.0000000000
      3908      1303  TIP3      H1             -6.1247003985       22.7700542534      -34.0068246635  WZ1       3177            0.0000000000
      3909      1303  TIP3      H2             -6.3281303985       23.9963342534      -33.1426946635  WZ1       3177            0.0000000000
      3910      1304  TIP3      OH2            -5.1182903985       25.6855242534      -24.3477746635  WZ1       3179            0.0000000000
      3911      1304  TIP3      H1             -4.5355603985       24.9507542534      -24.1560546635  WZ1       3179            0.0000000000
      3912      1304  TIP3      H2             -4.5543603985       26.4575542534      -24.3011946635  WZ1       3179            0.0000000000
      3913      1305  TIP3      OH2            -3.6215803985       23.5881042534      -23.6632346635  WZ1       3180            0.0000000000
      3914      1305  TIP3      H1             -4.4849103985       23.2093142534      -23.8287646635  WZ1       3180            0.0000000000
      3915      1305  TIP3      H2             -3.0172103985       22.8495842534      -23.7376546635  WZ1       3180            0.0000000000
      3916      1306  TIP3      OH2            -5.8966703985       19.7429342534      -40.4900846635  WZ1       3181            0.0000000000
      3917      1306  TIP3      H1             -5.2860903985       19.3716142534      -39.8532646635  WZ1       3181            0.0000000000
      3918      1306  TIP3      H2             -6.7335203985       19.3216242534      -40.2940846635  WZ1       3181            0.0000000000
      3919      1307  TIP3      OH2            -6.2641003985       21.2977742534      -35.5240946635  WZ1       3182            0.0000000000
      3920      1307  TIP3      H1             -5.9843903985       20.3908142534      -35.3999246635  WZ1       3182            0.0000000000
      3921      1307  TIP3      H2             -5.5049303985       21.7319242534      -35.9131746635  WZ1       3182            0.0000000000
      3922      1308  TIP3      OH2            -5.6522703985       21.8795142534      -30.0882046635  WZ1       3183            0.0000000000
      3923      1308  TIP3      H1             -4.7194703985       22.0915042534      -30.1226046635  WZ1       3183            0.0000000000
      3924      1308  TIP3      H2             -5.8875203985       21.9807242534      -29.1659046635  WZ1       3183            0.0000000000
      3925      1309  TIP3      OH2            -5.6230803985       22.6160442534      -27.3122646635  WZ1       3184            0.0000000000
      3926      1309  TIP3      H1             -6.4659503985       22.8840842534      -26.9462846635  WZ1       3184            0.0000000000
      3927      1309  TIP3      H2             -5.1806503985       23.4382342534      -27.5231546635  WZ1       3184            0.0000000000
      3928      1310  TIP3      OH2           -21.3418603985       21.0639142534      -23.8353446635  WZ1       3185            0.0000000000
      3929      1310  TIP3      H1            -20.4223703985       20.9417442534      -23.5990346635  WZ1       3185            0.0000000000
      3930      1310  TIP3      H2            -21.7914103985       20.3138842534      -23.4459946635  WZ1       3185            0.0000000000
      3931      1311  TIP3      OH2            -3.3399203985       16.5960642534      -21.9587646635  WZ1       3186            0.0000000000
      3932      1311  TIP3      H1             -2.9902203985       15.9424142534      -22.5642946635  WZ1       3186            0.0000000000
      3933      1311  TIP3      H2             -3.1929703985       17.4334742534      -22.3985046635  WZ1       3186            0.0000000000
      3934      1312  TIP3      OH2            -5.6506203985       18.5607042534      -35.4758946635  WZ1       3187            0.0000000000
      3935      1312  TIP3      H1             -5.4681203985       18.1118542534      -34.6503946635  WZ1       3187            0.0000000000
      3936      1312  TIP3      H2             -6.2503303985       17.9761442534      -35.9394346635  WZ1       3187            0.0000000000
      3937      1313  TIP3      OH2           -20.1206103985       19.3760742534      -30.9440546635  WZ1       3188            0.0000000000
      3938      1313  TIP3      H1            -19.6754503985       18.5843242534      -30.6420846635  WZ1       3188            0.0000000000
      3939      1313  TIP3      H2            -19.6543103985       20.0925942534      -30.5134946635  WZ1       3188            0.0000000000
      3940      1314  TIP3      OH2            -3.8202003985       18.7055242534      -23.6096346635  WZ1       3190            0.0000000000
      3941      1314  TIP3      H1             -4.7376303985       18.9762342534      -23.6452846635  WZ1       3190            0.0000000000
      3942      1314  TIP3      H2             -3.6972603985       18.1703642534      -24.3936646635  WZ1       3190            0.0000000000
      3943      1315  TIP3      OH2            -3.7840003985       18.6285142534      -38.9478646635  WZ1       3191            0.0000000000
      3944      1315  TIP3      H1             -3.3717403985       17.9070842534      -39.4230646635  WZ1       3191            0.0000000000
      3945      1315  TIP3      H2             -3.1023503985       19.2979742534      -38.8894346635  WZ1       3191            0.0000000000
      3946      1316  TIP3      OH2           -21.5393903985       17.3711842534      -27.4765446635  WZ1       3194            0.0000000000
      3947      1316  TIP3      H1            -22.2043403985       17.1252142534      -26.8334546635  WZ1       3194            0.0000000000
      3948      1316  TIP3      H2            -21.9822603985       17.9932242534      -28.0537446635  WZ1       3194            0.0000000000
      3949      1317  TIP3      OH2           -19.3474603985       30.5465942534      -23.3319646635  WZ1       3195            0.0000000000
      3950      1317  TIP3      H1            -20.1682103985       30.7212442534      -23.7924946635  WZ1       3195            0.0000000000
      3951      1317  TIP3      H2            -19.5996803985       30.4730642534      -22.4115246635  WZ1       3195            0.0000000000
      3952      1318  TIP3      OH2           -12.0820303985       32.9197142534      -24.1141946635  WZ1       3197            0.0000000000
      3953      1318  TIP3      H1            -11.8972803985       32.5863242534      -23.2361646635  WZ1       3197            0.0000000000
      3954      1318  TIP3      H2            -11.2355803985       33.2295742534      -24.4362746635  WZ1       3197            0.0000000000
      3955      1319  TIP3      OH2            -9.7369903985       34.2056042534      -24.8700546635  WZ1       3198            0.0000000000
      3956      1319  TIP3      H1             -9.0601003985       33.5728342534      -25.1101346635  WZ1       3198            0.0000000000
      3957      1319  TIP3      H2             -9.4151103985       34.6066542534      -24.0627246635  WZ1       3198            0.0000000000
      3958      1320  TIP3      OH2            -4.8196103985       16.7951542534      -25.7905546635  WZ1       3199            0.0000000000
      3959      1320  TIP3      H1             -5.6322603985       17.1201842534      -26.1780846635  WZ1       3199            0.0000000000
      3960      1320  TIP3      H2             -4.5867603985       16.0350042534      -26.3236446635  WZ1       3199            0.0000000000
      3961      1321  TIP3      OH2           -11.3897603985       18.2442142534      -31.4677346635  WZ1       3208            0.0000000000
      3962      1321  TIP3      H1            -12.0640803985       17.6147742534      -31.2121546635  WZ1       3208            0.0000000000
      3963      1321  TIP3      H2            -10.8258403985       17.7601042534      -32.0709446635  WZ1       3208            0.0000000000
      3964      1322  TIP3      OH2            -6.2470403985       16.3516142534      -31.3550246635  WZ1       3209            0.0000000000
      3965      1322  TIP3      H1             -5.6432803985       16.8991542534      -31.8569246635  WZ1       3209            0.0000000000
      3966      1322  TIP3      H2             -7.1168403985       16.6706542534      -31.5956146635  WZ1       3209            0.0000000000
      3967      1323  TIP3      OH2            -4.5200003985       17.4904842534      -33.0219346635  WZ1       3210            0.0000000000
      3968      1323  TIP3      H1             -3.9082503985       16.9760542534      -33.5485746635  WZ1       3210            0.0000000000
      3969      1323  TIP3      H2             -4.1376603985       18.3676942534      -32.9984946635  WZ1       3210            0.0000000000
      3970      1324  TIP3      OH2           -19.0630103985       16.8782442534      -33.6457446635  WZ1       3211            0.0000000000
      3971      1324  TIP3      H1            -19.8400303985       16.6437342534      -34.1531546635  WZ1       3211            0.0000000000
      3972      1324  TIP3      H2            -18.5326503985       16.0814542534      -33.6369446635  WZ1       3211            0.0000000000
      3973      1325  TIP3      OH2           -14.4837503985       16.8049542534      -33.8324346635  WZ1       3213            0.0000000000
      3974      1325  TIP3      H1            -13.6094103985       17.1933842534      -33.8620046635  WZ1       3213            0.0000000000
      3975      1325  TIP3      H2            -14.6196703985       16.5897342534      -32.9097146635  WZ1       3213            0.0000000000
      3976      1326  TIP3      OH2            -8.9269103985       16.8349342534      -32.1832646635  WZ1       3214            0.0000000000
      3977      1326  TIP3      H1             -8.8507503985       16.9300942534      -33.1326646635  WZ1       3214            0.0000000000
      3978      1326  TIP3      H2             -9.2019903985       15.9272242534      -32.0543546635  WZ1       3214            0.0000000000
      3979      1327  TIP3      OH2            -7.5736503985       16.8607142534      -36.4907646635  WZ1       3215            0.0000000000
      3980      1327  TIP3      H1             -8.2765403985       17.4756342534      -36.7006246635  WZ1       3215            0.0000000000
      3981      1327  TIP3      H2             -8.0185103985       16.0233842534      -36.3596746635  WZ1       3215            0.0000000000
      3982      1328  TIP3      OH2           -13.3397503985       18.8853542534      -36.9426746635  WZ1       3218            0.0000000000
      3983      1328  TIP3      H1            -13.1616203985       18.2386742534      -36.2598146635  WZ1       3218            0.0000000000
      3984      1328  TIP3      H2            -13.3931303985       19.7191242534      -36.4755646635  WZ1       3218            0.0000000000
      3985      1329  TIP3      OH2           -19.1052103985       17.3924342534      -24.1281246635  WZ1       3221            0.0000000000
      3986      1329  TIP3      H1            -19.4713903985       16.6266942534      -23.6856546635  WZ1       3221            0.0000000000
      3987      1329  TIP3      H2            -18.1923603985       17.4214542534      -23.8416146635  WZ1       3221            0.0000000000
      3988      1330  TIP3      OH2           -17.1321303985       16.7428742534      -22.5924146635  WZ1       3222            0.0000000000
      3989      1330  TIP3      H1            -16.2337703985       16.4688942534      -22.7770746635  WZ1       3222            0.0000000000
      3990      1330  TIP3      H2            -17.5188203985       16.0004742534      -22.1281546635  WZ1       3222            0.0000000000
      3991      1331  TIP3      OH2            -8.7109003985       16.0754042534      -22.4101346635  WZ1       3224            0.0000000000
      3992      1331  TIP3      H1             -8.6341803985       15.6494742534      -21.5563646635  WZ1       3224            0.0000000000
      3993      1331  TIP3      H2             -7.8172403985       16.0888742534      -22.7527846635  WZ1       3224            0.0000000000
      3994      1332  TIP3      OH2            -5.5347903985       32.1480342534      -23.7177146635  WZ1       3225            0.0000000000
      3995      1332  TIP3      H1             -6.3166003985       31.9618342534      -24.2376546635  WZ1       3225            0.0000000000
      3996      1332  TIP3      H2             -5.6068003985       33.0774642534      -23.5004646635  WZ1       3225            0.0000000000
      3997      1333  TIP3      OH2             7.8043796015       25.2895442534      -30.2681746635  WZ1       3227            0.0000000000
      3998      1333  TIP3      H1              7.7661296015       24.6431742534      -29.5632146635  WZ1       3227            0.0000000000
      3999      1333  TIP3      H2              7.4820296015       24.8229842534      -31.0393046635  WZ1       3227            0.0000000000
      4000      1334  TIP3      OH2             0.1728796015       24.9037542534      -28.6751846635  WZ1       3228            0.0000000000
      4001      1334  TIP3      H1              0.2140896015       24.2780842534      -27.9519446635  WZ1       3228            0.0000000000
      4002      1334  TIP3      H2              0.8756496015       25.5276142534      -28.4931446635  WZ1       3228            0.0000000000
      4003      1335  TIP3      OH2             1.0961896015       29.3536442534      -30.1402746635  WZ1       3230            0.0000000000
      4004      1335  TIP3      H1              0.7267096015       28.5516942534      -30.5098446635  WZ1       3230            0.0000000000
      4005      1335  TIP3      H2              2.0372996015       29.1851342534      -30.0939346635  WZ1       3230            0.0000000000
      4006      1336  TIP3      OH2            -2.2937603985       23.0139042534      -34.7473946635  WZ1       3231            0.0000000000
      4007      1336  TIP3      H1             -2.7414203985       23.8597742534      -34.7657446635  WZ1       3231            0.0000000000
      4008      1336  TIP3      H2             -2.8546403985       22.4343242534      -35.2628846635  WZ1       3231            0.0000000000
      4009      1337  TIP3      OH2            -1.5831503985       25.1758642534      -32.6215946635  WZ1       3232            0.0000000000
      4010      1337  TIP3      H1             -1.3698003985       24.4060242534      -32.0942946635  WZ1       3232            0.0000000000
      4011      1337  TIP3      H2             -0.8453903985       25.2655342534      -33.2248346635  WZ1       3232            0.0000000000
      4012      1338  TIP3      OH2             6.1938196015       27.7216842534      -29.8620746635  WZ1       3234            0.0000000000
      4013      1338  TIP3      H1              6.4976096015       27.0358242534      -30.4566646635  WZ1       3234            0.0000000000
      4014      1338  TIP3      H2              6.9152196015       27.8405542534      -29.2442746635  WZ1       3234            0.0000000000
      4015      1339  TIP3      OH2             9.3345196015       22.1159242534      -29.5345946635  WZ1       3236            0.0000000000
      4016      1339  TIP3      H1              9.4771096015       21.1696242534      -29.5144346635  WZ1       3236            0.0000000000
      4017      1339  TIP3      H2              9.2284196015       22.3229042534      -30.4631046635  WZ1       3236            0.0000000000
      4018      1340  TIP3      OH2             2.4893496015       20.2175642534      -32.2621146635  WZ1       3237            0.0000000000
      4019      1340  TIP3      H1              2.5324596015       21.0774142534      -32.6804846635  WZ1       3237            0.0000000000
      4020      1340  TIP3      H2              2.0317596015       19.6650342534      -32.8957946635  WZ1       3237            0.0000000000
      4021      1341  TIP3      OH2            -0.8905003985       22.6141442534      -31.4999746635  WZ1       3239            0.0000000000
      4022      1341  TIP3      H1             -0.2368403985       22.0643142534      -31.0679646635  WZ1       3239            0.0000000000
      4023      1341  TIP3      H2             -0.8665703985       22.3400442534      -32.4167746635  WZ1       3239            0.0000000000
      4024      1342  TIP3      OH2             4.2659496015       24.1642742534      -32.2848246635  WZ1       3240            0.0000000000
      4025      1342  TIP3      H1              4.8820496015       23.6378142534      -31.7754246635  WZ1       3240            0.0000000000
      4026      1342  TIP3      H2              3.6798296015       23.5241442534      -32.6884646635  WZ1       3240            0.0000000000
      4027      1343  TIP3      OH2            15.2482596015       20.8011342534      -26.7654746635  WZ1       3241            0.0000000000
      4028      1343  TIP3      H1             14.5597196015       21.4592042534      -26.8608146635  WZ1       3241            0.0000000000
      4029      1343  TIP3      H2             15.2637196015       20.6039242534      -25.8289346635  WZ1       3241            0.0000000000
      4030      1344  TIP3      OH2             1.2995396015       19.1354042534      -28.1880346635  WZ1       3242            0.0000000000
      4031      1344  TIP3      H1              1.0807096015       19.6654642534      -28.9544346635  WZ1       3242            0.0000000000
      4032      1344  TIP3      H2              0.6316296015       19.3619542534      -27.5408946635  WZ1       3242            0.0000000000
      4033      1345  TIP3      OH2             3.8686796015       26.8109742534      -27.9006646635  WZ1       3244            0.0000000000
      4034      1345  TIP3      H1              3.1285896015       27.4091242534      -27.7971446635  WZ1       3244            0.0000000000
      4035      1345  TIP3      H2              4.5826296015       27.3649342534      -28.2163046635  WZ1       3244            0.0000000000
      4036      1346  TIP3      OH2             0.8932696015       21.0275842534      -30.2358146635  WZ1       3246            0.0000000000
      4037      1346  TIP3      H1              1.5068996015       21.6603442534      -29.8625746635  WZ1       3246            0.0000000000
      4038      1346  TIP3      H2              1.4053396015       20.5550842534      -30.8921246635  WZ1       3246            0.0000000000
      4039      1347  TIP3      OH2             2.2761096015       28.7752742534      -27.1135146635  WZ1       3247            0.0000000000
      4040      1347  TIP3      H1              2.2708696015       29.6546242534      -27.4915846635  WZ1       3247            0.0000000000
      4041      1347  TIP3      H2              1.4225196015       28.6916842534      -26.6885246635  WZ1       3247            0.0000000000
      4042      1348  TIP3      OH2            12.3228696015       18.3541842534      -28.2013446635  WZ1       3250            0.0000000000
      4043      1348  TIP3      H1             11.5867896015       18.9648942534      -28.2392146635  WZ1       3250            0.0000000000
      4044      1348  TIP3      H2             13.0062696015       18.7690842534      -28.7277046635  WZ1       3250            0.0000000000
      4045      1349  TIP3      OH2             5.3260096015       16.4409142534      -30.7355446635  WZ1       3251            0.0000000000
      4046      1349  TIP3      H1              5.2084296015       15.4925142534      -30.7897146635  WZ1       3251            0.0000000000
      4047      1349  TIP3      H2              4.4710196015       16.7735242534      -30.4624346635  WZ1       3251            0.0000000000
      4048      1350  TIP3      OH2            10.8956196015       23.6620642534      -26.2156746635  WZ1       3259            0.0000000000
      4049      1350  TIP3      H1             10.9755296015       24.4255042534      -25.6438246635  WZ1       3259            0.0000000000
      4050      1350  TIP3      H2             10.2943896015       23.9413042534      -26.9061646635  WZ1       3259            0.0000000000
      4051      1351  TIP3      OH2             4.0103896015       29.5464842534      -30.7196546635  WZ1       3261            0.0000000000
      4052      1351  TIP3      H1              3.9155196015       28.9677942534      -31.4761946635  WZ1       3261            0.0000000000
      4053      1351  TIP3      H2              4.7397496015       29.1750542534      -30.2233746635  WZ1       3261            0.0000000000
      4054      1352  TIP3      OH2             3.0101896015       24.8869842534      -29.7673746635  WZ1       3262            0.0000000000
      4055      1352  TIP3      H1              3.5754396015       25.0084042534      -30.5302546635  WZ1       3262            0.0000000000
      4056      1352  TIP3      H2              3.3290796015       25.5244842534      -29.1285246635  WZ1       3262            0.0000000000
      4057      1353  TIP3      OH2             3.8902596015       29.2862542534      -25.0501846635  WZ1       3264            0.0000000000
      4058      1353  TIP3      H1              3.5790096015       30.0685742534      -24.5948646635  WZ1       3264            0.0000000000
      4059      1353  TIP3      H2              3.2402796015       29.1331642534      -25.7359846635  WZ1       3264            0.0000000000
      4060      1354  TIP3      OH2             0.8102496015       25.4843642534      -25.8216146635  WZ1       3266            0.0000000000
      4061      1354  TIP3      H1              0.8805696015       26.1350442534      -25.1231146635  WZ1       3266            0.0000000000
      4062      1354  TIP3      H2             -0.0805303985       25.5871142534      -26.1565246635  WZ1       3266            0.0000000000
      4063      1355  TIP3      OH2             2.1298496015       31.3577542534      -24.2868046635  WZ1       3268            0.0000000000
      4064      1355  TIP3      H1              2.1373796015       31.2217242534      -25.2342546635  WZ1       3268            0.0000000000
      4065      1355  TIP3      H2              1.2138896015       31.2405642534      -24.0348046635  WZ1       3268            0.0000000000
      4066      1356  TIP3      OH2            -2.2730803985       27.5507742534      -26.9966146635  WZ1       3272            0.0000000000
      4067      1356  TIP3      H1             -2.7742403985       27.5227142534      -27.8116446635  WZ1       3272            0.0000000000
      4068      1356  TIP3      H2             -2.2677103985       26.6450942534      -26.6868846635  WZ1       3272            0.0000000000
      4069      1357  TIP3      OH2            -2.5228103985       30.3311542534      -30.1125946635  WZ1       3273            0.0000000000
      4070      1357  TIP3      H1             -1.5767503985       30.1868542534      -30.1316446635  WZ1       3273            0.0000000000
      4071      1357  TIP3      H2             -2.6351803985       31.1154342534      -29.5754746635  WZ1       3273            0.0000000000
      4072      1358  TIP3      OH2             6.6534396015       30.5710442534      -25.5540846635  WZ1       3275            0.0000000000
      4073      1358  TIP3      H1              6.7408996015       31.3975042534      -25.0791746635  WZ1       3275            0.0000000000
      4074      1358  TIP3      H2              5.7899496015       30.2414242534      -25.3051546635  WZ1       3275            0.0000000000
      4075      1359  TIP3      OH2            12.8270196015       22.4903742534      -23.9500046635  WZ1       3280            0.0000000000
      4076      1359  TIP3      H1             12.4196996015       22.9709342534      -24.6706746635  WZ1       3280            0.0000000000
      4077      1359  TIP3      H2             12.8675896015       21.5849742534      -24.2579246635  WZ1       3280            0.0000000000
      4078      1360  TIP3      OH2            -0.0240303985       28.8743142534      -25.9533346635  WZ1       3281            0.0000000000
      4079      1360  TIP3      H1              0.1920996015       28.5128742534      -25.0937546635  WZ1       3281            0.0000000000
      4080      1360  TIP3      H2             -0.8795603985       28.4996942534      -26.1629846635  WZ1       3281            0.0000000000
      4081      1361  TIP3      OH2             2.5947696015       17.3443642534      -29.9579146635  WZ1       3282            0.0000000000
      4082      1361  TIP3      H1              1.7331396015       17.2571842534      -30.3656246635  WZ1       3282            0.0000000000
      4083      1361  TIP3      H2              2.5723396015       18.2003742534      -29.5301546635  WZ1       3282            0.0000000000
      4084      1362  TIP3      OH2             7.2575496015       17.0664042534      -26.5832146635  WZ1       3283            0.0000000000
      4085      1362  TIP3      H1              7.6778596015       16.6511142534      -25.8301546635  WZ1       3283            0.0000000000
      4086      1362  TIP3      H2              6.3245096015       16.8877342534      -26.4660146635  WZ1       3283            0.0000000000
      4087      1363  TIP3      OH2            10.5840396015       20.8219242534      -25.7297646635  WZ1       3284            0.0000000000
      4088      1363  TIP3      H1             10.0699896015       20.6961442534      -24.9321646635  WZ1       3284            0.0000000000
      4089      1363  TIP3      H2             10.4285096015       21.7342342534      -25.9741446635  WZ1       3284            0.0000000000
      4090      1364  TIP3      OH2             2.6857796015       22.3098142534      -28.8628946635  WZ1       3287            0.0000000000
      4091      1364  TIP3      H1              2.0439896015       22.2695442534      -28.1538846635  WZ1       3287            0.0000000000
      4092      1364  TIP3      H2              2.7229796015       23.2362842534      -29.1005946635  WZ1       3287            0.0000000000
      4093      1365  TIP3      OH2             2.6826896015       22.5308242534      -33.9508946635  WZ1       3288            0.0000000000
      4094      1365  TIP3      H1              1.7899796015       22.1904342534      -34.0095146635  WZ1       3288            0.0000000000
      4095      1365  TIP3      H2              3.1333496015       22.1539142534      -34.7065746635  WZ1       3288            0.0000000000
      4096      1366  TIP3      OH2             7.3203996015       23.1224942534      -23.6457446635  WZ1       3290            0.0000000000
      4097      1366  TIP3      H1              6.7577796015       22.4176542534      -23.3249646635  WZ1       3290            0.0000000000
      4098      1366  TIP3      H2              8.1467396015       23.0016842534      -23.1779846635  WZ1       3290            0.0000000000
      4099      1367  TIP3      OH2             0.4358296015       22.6301642534      -26.9956946635  WZ1       3292            0.0000000000
      4100      1367  TIP3      H1              0.3977696015       23.0303242534      -26.1269846635  WZ1       3292            0.0000000000
      4101      1367  TIP3      H2             -0.0550603985       21.8134042534      -26.9054046635  WZ1       3292            0.0000000000
      4102      1368  TIP3      OH2            -2.9560903985       19.7463442534      -33.1452246635  WZ1       3294            0.0000000000
      4103      1368  TIP3      H1             -2.3253203985       19.7175542534      -32.4258346635  WZ1       3294            0.0000000000
      4104      1368  TIP3      H2             -2.5066603985       19.3212142534      -33.8756346635  WZ1       3294            0.0000000000
      4105      1369  TIP3      OH2             8.4869296015       24.0310242534      -27.6486046635  WZ1       3296            0.0000000000
      4106      1369  TIP3      H1              8.8104096015       23.3999942534      -28.2915546635  WZ1       3296            0.0000000000
      4107      1369  TIP3      H2              8.0468596015       23.4962442534      -26.9878646635  WZ1       3296            0.0000000000
      4108      1370  TIP3      OH2             5.2642196015       19.9585742534      -32.8644846635  WZ1       3297            0.0000000000
      4109      1370  TIP3      H1              4.3533296015       20.0152542534      -32.5758846635  WZ1       3297            0.0000000000
      4110      1370  TIP3      H2              5.7695096015       19.8981242534      -32.0537646635  WZ1       3297            0.0000000000
      4111      1371  TIP3      OH2             0.0925596015       21.5872042534      -34.0377246635  WZ1       3298            0.0000000000
      4112      1371  TIP3      H1             -0.7966403985       21.6867542534      -34.3777646635  WZ1       3298            0.0000000000
      4113      1371  TIP3      H2              0.3890496015       20.7455042534      -34.3839346635  WZ1       3298            0.0000000000
      4114      1372  TIP3      OH2             9.6694096015       19.1932042534      -29.6003046635  WZ1       3300            0.0000000000
      4115      1372  TIP3      H1              8.9925696015       19.3245142534      -28.9363346635  WZ1       3300            0.0000000000
      4116      1372  TIP3      H2              9.1838996015       19.0381542534      -30.4105346635  WZ1       3300            0.0000000000
      4117      1373  TIP3      OH2             0.5548996015       27.3388742534      -23.7154946635  WZ1       3303            0.0000000000
      4118      1373  TIP3      H1              1.2871396015       27.5934642534      -23.1540446635  WZ1       3303            0.0000000000
      4119      1373  TIP3      H2             -0.2252303985       27.5434142534      -23.1999546635  WZ1       3303            0.0000000000
      4120      1374  TIP3      OH2             6.5841896015       22.7458742534      -30.9775246635  WZ1       3304            0.0000000000
      4121      1374  TIP3      H1              7.1485296015       22.1995342534      -31.5245646635  WZ1       3304            0.0000000000
      4122      1374  TIP3      H2              6.4365296015       22.2240642534      -30.1887646635  WZ1       3304            0.0000000000
      4123      1375  TIP3      OH2             1.5861596015       18.8824842534      -34.5590446635  WZ1       3305            0.0000000000
      4124      1375  TIP3      H1              1.2691096015       17.9800142534      -34.5945046635  WZ1       3305            0.0000000000
      4125      1375  TIP3      H2              2.3675696015       18.8842242534      -35.1118846635  WZ1       3305            0.0000000000
      4126      1376  TIP3      OH2             5.2107796015       21.1344842534      -28.5634846635  WZ1       3306            0.0000000000
      4127      1376  TIP3      H1              4.3753096015       21.5884342534      -28.4532446635  WZ1       3306            0.0000000000
      4128      1376  TIP3      H2              5.7348396015       21.4103342534      -27.8114946635  WZ1       3306            0.0000000000
      4129      1377  TIP3      OH2             7.2742496015       27.5315842534      -25.6419346635  WZ1       3310            0.0000000000
      4130      1377  TIP3      H1              6.9288596015       27.1498242534      -24.8349746635  WZ1       3310            0.0000000000
      4131      1377  TIP3      H2              7.0742596015       28.4649442534      -25.5706446635  WZ1       3310            0.0000000000
      4132      1378  TIP3      OH2             0.8798696015       26.6422542534      -31.1090546635  WZ1       3312            0.0000000000
      4133      1378  TIP3      H1              1.6245896015       26.6398242534      -31.7104046635  WZ1       3312            0.0000000000
      4134      1378  TIP3      H2              0.9575296015       25.8186342534      -30.6275446635  WZ1       3312            0.0000000000
      4135      1379  TIP3      OH2            -2.1121603985       25.1029442534      -25.7942046635  WZ1       3314            0.0000000000
      4136      1379  TIP3      H1             -1.8893003985       24.6849042534      -24.9624546635  WZ1       3314            0.0000000000
      4137      1379  TIP3      H2             -2.7141503985       24.4904442534      -26.2169246635  WZ1       3314            0.0000000000
      4138      1380  TIP3      OH2             4.9043296015       24.6199342534      -23.5812346635  WZ1       3315            0.0000000000
      4139      1380  TIP3      H1              4.6084096015       24.4542342534      -24.4763246635  WZ1       3315            0.0000000000
      4140      1380  TIP3      H2              5.8358496015       24.3999642534      -23.5918446635  WZ1       3315            0.0000000000
      4141      1381  TIP3      OH2             9.5246096015       29.9931342534      -25.6914346635  WZ1       3316            0.0000000000
      4142      1381  TIP3      H1              8.6240396015       30.1763942534      -25.9590446635  WZ1       3316            0.0000000000
      4143      1381  TIP3      H2              9.5587196015       30.2520642534      -24.7705546635  WZ1       3316            0.0000000000
      4144      1382  TIP3      OH2            15.2191396015       28.0380942534      -24.4870246635  WZ1       3318            0.0000000000
      4145      1382  TIP3      H1             14.3679896015       28.2764742534      -24.8543846635  WZ1       3318            0.0000000000
      4146      1382  TIP3      H2             15.8094796015       28.0214142534      -25.2403146635  WZ1       3318            0.0000000000
      4147      1383  TIP3      OH2             5.1966996015       31.9724242534      -27.8133646635  WZ1       3324            0.0000000000
      4148      1383  TIP3      H1              5.5591696015       32.8269842534      -28.0469246635  WZ1       3324            0.0000000000
      4149      1383  TIP3      H2              5.7282196015       31.6805842534      -27.0727346635  WZ1       3324            0.0000000000
      4150      1384  TIP3      OH2             8.7407796015       28.0714942534      -28.1128046635  WZ1       3326            0.0000000000
      4151      1384  TIP3      H1              8.3149096015       27.8436642534      -27.2864046635  WZ1       3326            0.0000000000
      4152      1384  TIP3      H2              9.3213596015       27.3326742534      -28.2952746635  WZ1       3326            0.0000000000
      4153      1385  TIP3      OH2            -0.4782103985       19.8562142534      -26.2360646635  WZ1       3330            0.0000000000
      4154      1385  TIP3      H1             -1.3709803985       20.1947542534      -26.3036646635  WZ1       3330            0.0000000000
      4155      1385  TIP3      H2             -0.5769303985       19.0008242534      -25.8179846635  WZ1       3330            0.0000000000
      4156      1386  TIP3      OH2            -0.8270103985       31.6606542534      -27.8011246635  WZ1       3332            0.0000000000
      4157      1386  TIP3      H1             -0.6099803985       30.7288942534      -27.8321546635  WZ1       3332            0.0000000000
      4158      1386  TIP3      H2             -0.5806603985       31.9351542534      -26.9178446635  WZ1       3332            0.0000000000
      4159      1387  TIP3      OH2             8.2561296015       19.5972442534      -27.3462046635  WZ1       3336            0.0000000000
      4160      1387  TIP3      H1              8.9549196015       19.6711142534      -26.6962346635  WZ1       3336            0.0000000000
      4161      1387  TIP3      H2              7.8752696015       18.7327442534      -27.1919146635  WZ1       3336            0.0000000000
      4162      1388  TIP3      OH2             6.7762496015       21.9635642534      -26.2294746635  WZ1       3340            0.0000000000
      4163      1388  TIP3      H1              6.8952796015       22.5371042534      -25.4724346635  WZ1       3340            0.0000000000
      4164      1388  TIP3      H2              7.4317096015       21.2755042534      -26.1146946635  WZ1       3340            0.0000000000
      4165      1389  TIP3      OH2            12.9808296015       19.8705942534      -25.3945046635  WZ1       3344            0.0000000000
      4166      1389  TIP3      H1             12.0644096015       20.1327642534      -25.4821346635  WZ1       3344            0.0000000000
      4167      1389  TIP3      H2             13.3163296015       19.8674942534      -26.2909746635  WZ1       3344            0.0000000000
      4168      1390  TIP3      OH2             0.1646296015       16.9947142534      -30.9392846635  WZ1       3349            0.0000000000
      4169      1390  TIP3      H1             -0.0643903985       17.0539642534      -31.8667846635  WZ1       3349            0.0000000000
      4170      1390  TIP3      H2             -0.2780303985       16.2032642534      -30.6328746635  WZ1       3349            0.0000000000
      4171      1391  TIP3      OH2            -1.6166703985       33.5477942534      -23.4489046635  WZ1       3351            0.0000000000
      4172      1391  TIP3      H1             -1.0764503985       33.3311942534      -22.6889846635  WZ1       3351            0.0000000000
      4173      1391  TIP3      H2             -2.0978703985       32.7423942534      -23.6386546635  WZ1       3351            0.0000000000
      4174      1392  TIP3      OH2             2.9806696015       32.4672342534      -21.8284846635  WZ1       3352            0.0000000000
      4175      1392  TIP3      H1              3.7483896015       32.0083142534      -21.4875646635  WZ1       3352            0.0000000000
      4176      1392  TIP3      H2              2.9592896015       32.2412142534      -22.7583646635  WZ1       3352            0.0000000000
      4177      1393  TIP3      OH2             9.5575396015       30.8473442534      -23.0993346635  WZ1       3354            0.0000000000
      4178      1393  TIP3      H1              9.2064896015       29.9906442534      -22.8562946635  WZ1       3354            0.0000000000
      4179      1393  TIP3      H2             10.2838596015       30.9900142534      -22.4924346635  WZ1       3354            0.0000000000
      4180      1394  TIP3      OH2            -1.7097203985       27.3582042534      -22.4944746635  WZ1       3356            0.0000000000
      4181      1394  TIP3      H1             -1.5656703985       26.4562742534      -22.7808046635  WZ1       3356            0.0000000000
      4182      1394  TIP3      H2             -2.4819803985       27.6444142534      -22.9822446635  WZ1       3356            0.0000000000
      4183      1395  TIP3      OH2             4.9458896015       27.3280142534      -23.0618346635  WZ1       3358            0.0000000000
      4184      1395  TIP3      H1              4.6172696015       27.5988242534      -23.9190946635  WZ1       3358            0.0000000000
      4185      1395  TIP3      H2              5.0977096015       26.3869942534      -23.1493346635  WZ1       3358            0.0000000000
      4186      1396  TIP3      OH2            10.6804096015       27.2437442534      -25.6786046635  WZ1       3360            0.0000000000
      4187      1396  TIP3      H1             11.4258896015       27.8321142534      -25.7982046635  WZ1       3360            0.0000000000
      4188      1396  TIP3      H2              9.9230896015       27.8257142534      -25.6152946635  WZ1       3360            0.0000000000
      4189      1397  TIP3      OH2            -0.8770703985       24.5585342534      -23.0745446635  WZ1       3361            0.0000000000
      4190      1397  TIP3      H1             -0.4689503985       23.7011942534      -23.1954846635  WZ1       3361            0.0000000000
      4191      1397  TIP3      H2             -1.1373103985       24.5726642534      -22.1535146635  WZ1       3361            0.0000000000
      4192      1398  TIP3      OH2             3.0699596015       23.5671042534      -25.7002546635  WZ1       3363            0.0000000000
      4193      1398  TIP3      H1              2.4515696015       24.2417642534      -25.4197846635  WZ1       3363            0.0000000000
      4194      1398  TIP3      H2              3.4140796015       23.8884942534      -26.5336346635  WZ1       3363            0.0000000000
      4195      1399  TIP3      OH2             8.0897796015       26.0386342534      -22.4227746635  WZ1       3365            0.0000000000
      4196      1399  TIP3      H1              9.0428996015       26.1225442534      -22.4501746635  WZ1       3365            0.0000000000
      4197      1399  TIP3      H2              7.9292396015       25.3268142534      -21.8032846635  WZ1       3365            0.0000000000
      4198      1400  TIP3      OH2             3.4093296015       20.9221842534      -24.6179446635  WZ1       3367            0.0000000000
      4199      1400  TIP3      H1              3.5594196015       20.1933142534      -25.2199746635  WZ1       3367            0.0000000000
      4200      1400  TIP3      H2              3.4115696015       21.6993542534      -25.1767246635  WZ1       3367            0.0000000000
      4201      1401  TIP3      OH2             3.8218996015       19.2917642534      -27.1252046635  WZ1       3368            0.0000000000
      4202      1401  TIP3      H1              4.3576496015       19.7434342534      -27.7772746635  WZ1       3368            0.0000000000
      4203      1401  TIP3      H2              2.9698596015       19.1837442534      -27.5477946635  WZ1       3368            0.0000000000
      4204      1402  TIP3      OH2             5.4037396015       24.7313842534      -26.8856846635  WZ1       3369            0.0000000000
      4205      1402  TIP3      H1              6.1542196015       24.5751342534      -27.4589046635  WZ1       3369            0.0000000000
      4206      1402  TIP3      H2              5.0645696015       25.5830442534      -27.1611346635  WZ1       3369            0.0000000000
      4207      1403  TIP3      OH2             9.8193596015       22.5465642534      -21.8571546635  WZ1       3370            0.0000000000
      4208      1403  TIP3      H1             10.0114896015       21.6155042534      -21.9687046635  WZ1       3370            0.0000000000
      4209      1403  TIP3      H2             10.6769896015       22.9715142534      -21.8676146635  WZ1       3370            0.0000000000
      4210      1404  TIP3      OH2            11.1360796015       25.3350842534      -23.7798846635  WZ1       3371            0.0000000000
      4211      1404  TIP3      H1             10.8545796015       26.0445442534      -24.3575046635  WZ1       3371            0.0000000000
      4212      1404  TIP3      H2             12.0785096015       25.2623842534      -23.9307646635  WZ1       3371            0.0000000000
      4213      1405  TIP3      OH2             1.8879596015       22.1205342534      -22.7063846635  WZ1       3372            0.0000000000
      4214      1405  TIP3      H1              1.1208596015       21.5880142534      -22.9166246635  WZ1       3372            0.0000000000
      4215      1405  TIP3      H2              2.5668596015       21.8105742534      -23.3057546635  WZ1       3372            0.0000000000
      4216      1406  TIP3      OH2             4.6274496015       16.7483342534      -26.6938446635  WZ1       3373            0.0000000000
      4217      1406  TIP3      H1              4.5294096015       17.6946542534      -26.7992246635  WZ1       3373            0.0000000000
      4218      1406  TIP3      H2              3.8850696015       16.3757142534      -27.1694946635  WZ1       3373            0.0000000000
      4219      1407  TIP3      OH2             5.8914996015       21.0698742534      -23.1300046635  WZ1       3374            0.0000000000
      4220      1407  TIP3      H1              5.6560396015       20.8505442534      -22.2285146635  WZ1       3374            0.0000000000
      4221      1407  TIP3      H2              5.1081896015       20.8629942534      -23.6397546635  WZ1       3374            0.0000000000
      4222      1408  TIP3      OH2             8.6071596015       20.1972242534      -24.0546546635  WZ1       3375            0.0000000000
      4223      1408  TIP3      H1              7.6596996015       20.2291942534      -23.9223246635  WZ1       3375            0.0000000000
      4224      1408  TIP3      H2              8.9198296015       19.5719342534      -23.4008346635  WZ1       3375            0.0000000000
      4225      1409  TIP3      OH2            10.2413096015       18.8313342534      -22.0494646635  WZ1       3376            0.0000000000
      4226      1409  TIP3      H1             10.1444896015       17.8790642534      -22.0552746635  WZ1       3376            0.0000000000
      4227      1409  TIP3      H2              9.9196196015       19.1000142534      -21.1889146635  WZ1       3376            0.0000000000
      4228      1410  TIP3      OH2             0.0682396015       20.0409142534      -23.0019146635  WZ1       3377            0.0000000000
      4229      1410  TIP3      H1              0.2799796015       19.3345242534      -23.6121646635  WZ1       3377            0.0000000000
      4230      1410  TIP3      H2             -0.0430103985       19.6035142534      -22.1577946635  WZ1       3377            0.0000000000
      4231      1411  TIP3      OH2             4.8492596015       16.0420742534      -24.0225646635  WZ1       3378            0.0000000000
      4232      1411  TIP3      H1              5.5610996015       15.4022942534      -24.0366546635  WZ1       3378            0.0000000000
      4233      1411  TIP3      H2              4.7482996015       16.3089042534      -24.9362546635  WZ1       3378            0.0000000000
      4234      1412  TIP3      OH2             5.2030096015       17.7249142534      -21.9689346635  WZ1       3379            0.0000000000
      4235      1412  TIP3      H1              5.0712296015       17.2492942534      -22.7890846635  WZ1       3379            0.0000000000
      4236      1412  TIP3      H2              4.6037496015       18.4692742534      -22.0242246635  WZ1       3379            0.0000000000
      4237      1413  TIP3      OH2            -2.1632903985       32.7178742534      -32.4277146635  WZ1       3383            0.0000000000
      4238      1413  TIP3      H1             -2.4976103985       31.8376042534      -32.2556946635  WZ1       3383            0.0000000000
      4239      1413  TIP3      H2             -1.9410503985       33.0633742534      -31.5631546635  WZ1       3383            0.0000000000
      4240      1414  TIP3      OH2            13.3992096015       28.8844342534      -21.8872946635  WZ1       3386            0.0000000000
      4241      1414  TIP3      H1             12.5333196015       28.7794042534      -21.4930646635  WZ1       3386            0.0000000000
      4242      1414  TIP3      H2             13.7757996015       29.6427642534      -21.4408246635  WZ1       3386            0.0000000000
      4243      1415  TIP3      OH2            -2.0833403985       25.7934142534      -29.9762246635  WZ1       3394            0.0000000000
      4244      1415  TIP3      H1             -1.8990503985       25.7115842534      -30.9119346635  WZ1       3394            0.0000000000
      4245      1415  TIP3      H2             -1.2340503985       25.6691142534      -29.5525846635  WZ1       3394            0.0000000000
      4246      1416  TIP3      OH2            13.7377096015       25.6855242534      -24.3477746635  WZ1       3395            0.0000000000
      4247      1416  TIP3      H1             14.3204396015       24.9507542534      -24.1560546635  WZ1       3395            0.0000000000
      4248      1416  TIP3      H2             14.3016396015       26.4575542534      -24.3011946635  WZ1       3395            0.0000000000
      4249      1417  TIP3      OH2            15.2344196015       23.5881042534      -23.6632346635  WZ1       3396            0.0000000000
      4250      1417  TIP3      H1             14.3710896015       23.2093142534      -23.8287646635  WZ1       3396            0.0000000000
      4251      1417  TIP3      H2             15.8387896015       22.8495842534      -23.7376546635  WZ1       3396            0.0000000000
      4252      1418  TIP3      OH2            13.2329196015       22.6160442534      -27.3122646635  WZ1       3400            0.0000000000
      4253      1418  TIP3      H1             12.3900496015       22.8840842534      -26.9462846635  WZ1       3400            0.0000000000
      4254      1418  TIP3      H2             13.6753496015       23.4382342534      -27.5231546635  WZ1       3400            0.0000000000
      4255      1419  TIP3      OH2            -2.4858603985       21.0639142534      -23.8353446635  WZ1       3401            0.0000000000
      4256      1419  TIP3      H1             -1.5663703985       20.9417442534      -23.5990346635  WZ1       3401            0.0000000000
      4257      1419  TIP3      H2             -2.9354103985       20.3138842534      -23.4459946635  WZ1       3401            0.0000000000
      4258      1420  TIP3      OH2            15.5160796015       16.5960642534      -21.9587646635  WZ1       3402            0.0000000000
      4259      1420  TIP3      H1             15.8657796015       15.9424142534      -22.5642946635  WZ1       3402            0.0000000000
      4260      1420  TIP3      H2             15.6630296015       17.4334742534      -22.3985046635  WZ1       3402            0.0000000000
      4261      1421  TIP3      OH2            -1.2646103985       19.3760742534      -30.9440546635  WZ1       3404            0.0000000000
      4262      1421  TIP3      H1             -0.8194503985       18.5843242534      -30.6420846635  WZ1       3404            0.0000000000
      4263      1421  TIP3      H2             -0.7983103985       20.0925942534      -30.5134946635  WZ1       3404            0.0000000000
      4264      1422  TIP3      OH2            -2.9605803985       22.3753742534      -29.8750346635  WZ1       3405            0.0000000000
      4265      1422  TIP3      H1             -2.4686003985       22.1544242534      -30.6658346635  WZ1       3405            0.0000000000
      4266      1422  TIP3      H2             -2.5984903985       23.2157142534      -29.5940846635  WZ1       3405            0.0000000000
      4267      1423  TIP3      OH2            15.0357996015       18.7055242534      -23.6096346635  WZ1       3406            0.0000000000
      4268      1423  TIP3      H1             14.1183696015       18.9762342534      -23.6452846635  WZ1       3406            0.0000000000
      4269      1423  TIP3      H2             15.1587396015       18.1703642534      -24.3936646635  WZ1       3406            0.0000000000
      4270      1424  TIP3      OH2            -2.6469303985       18.6332842534      -35.8207946635  WZ1       3408            0.0000000000
      4271      1424  TIP3      H1             -3.5720903985       18.8419442534      -35.9502446635  WZ1       3408            0.0000000000
      4272      1424  TIP3      H2             -2.1929403985       19.1173642534      -36.5105646635  WZ1       3408            0.0000000000
      4273      1425  TIP3      OH2            -2.6833903985       17.3711842534      -27.4765446635  WZ1       3410            0.0000000000
      4274      1425  TIP3      H1             -3.3483403985       17.1252142534      -26.8334546635  WZ1       3410            0.0000000000
      4275      1425  TIP3      H2             -3.1262603985       17.9932242534      -28.0537446635  WZ1       3410            0.0000000000
      4276      1426  TIP3      OH2            -0.4914603985       30.5465942534      -23.3319646635  WZ1       3411            0.0000000000
      4277      1426  TIP3      H1             -1.3122103985       30.7212442534      -23.7924946635  WZ1       3411            0.0000000000
      4278      1426  TIP3      H2             -0.7436803985       30.4730642534      -22.4115246635  WZ1       3411            0.0000000000
      4279      1427  TIP3      OH2             2.4628296015       31.5207142534      -27.0735646635  WZ1       3412            0.0000000000
      4280      1427  TIP3      H1              2.0379396015       32.3305642534      -27.3561046635  WZ1       3412            0.0000000000
      4281      1427  TIP3      H2              3.3671096015       31.6061242534      -27.3755846635  WZ1       3412            0.0000000000
      4282      1428  TIP3      OH2             6.7739696015       32.9197142534      -24.1141946635  WZ1       3413            0.0000000000
      4283      1428  TIP3      H1              6.9587196015       32.5863242534      -23.2361646635  WZ1       3413            0.0000000000
      4284      1428  TIP3      H2              7.6204196015       33.2295742534      -24.4362746635  WZ1       3413            0.0000000000
      4285      1429  TIP3      OH2             9.1190096015       34.2056042534      -24.8700546635  WZ1       3414            0.0000000000
      4286      1429  TIP3      H1              9.7958996015       33.5728342534      -25.1101346635  WZ1       3414            0.0000000000
      4287      1429  TIP3      H2              9.4408896015       34.6066542534      -24.0627246635  WZ1       3414            0.0000000000
      4288      1430  TIP3      OH2            14.0363896015       16.7951542534      -25.7905546635  WZ1       3415            0.0000000000
      4289      1430  TIP3      H1             13.2237396015       17.1201842534      -26.1780846635  WZ1       3415            0.0000000000
      4290      1430  TIP3      H2             14.2692396015       16.0350042534      -26.3236446635  WZ1       3415            0.0000000000
      4291      1431  TIP3      OH2            -0.1355003985       34.7771042534      -27.0260346635  WZ1       3416            0.0000000000
      4292      1431  TIP3      H1             -0.8558603985       35.2172042534      -27.4772646635  WZ1       3416            0.0000000000
      4293      1431  TIP3      H2             -0.5011003985       34.5265742534      -26.1776346635  WZ1       3416            0.0000000000
      4294      1432  TIP3      OH2             2.3317596015       34.3774942534      -27.9963146635  WZ1       3417            0.0000000000
      4295      1432  TIP3      H1              1.4669796015       34.4493442534      -27.5923046635  WZ1       3417            0.0000000000
      4296      1432  TIP3      H2              2.2766596015       34.9242242534      -28.7800646635  WZ1       3417            0.0000000000
      4297      1433  TIP3      OH2            -0.7206903985       33.4003542534      -30.1158546635  WZ1       3421            0.0000000000
      4298      1433  TIP3      H1             -0.7390903985       32.9748642534      -29.2586246635  WZ1       3421            0.0000000000
      4299      1433  TIP3      H2              0.0840996015       33.0818542534      -30.5246346635  WZ1       3421            0.0000000000
      4300      1434  TIP3      OH2             1.4206196015       32.1102242534      -31.4608646635  WZ1       3422            0.0000000000
      4301      1434  TIP3      H1              1.2016896015       31.1939642534      -31.2912646635  WZ1       3422            0.0000000000
      4302      1434  TIP3      H2              2.2448396015       32.2502642534      -30.9947246635  WZ1       3422            0.0000000000
      4303      1435  TIP3      OH2             7.4662396015       18.2442142534      -31.4677346635  WZ1       3424            0.0000000000
      4304      1435  TIP3      H1              6.7919196015       17.6147742534      -31.2121546635  WZ1       3424            0.0000000000
      4305      1435  TIP3      H2              8.0301596015       17.7601042534      -32.0709446635  WZ1       3424            0.0000000000
      4306      1436  TIP3      OH2            -0.2070103985       16.8782442534      -33.6457446635  WZ1       3427            0.0000000000
      4307      1436  TIP3      H1             -0.9840303985       16.6437342534      -34.1531546635  WZ1       3427            0.0000000000
      4308      1436  TIP3      H2              0.3233496015       16.0814542534      -33.6369446635  WZ1       3427            0.0000000000
      4309      1437  TIP3      OH2            -1.3706703985       16.6760542534      -37.8421346635  WZ1       3428            0.0000000000
      4310      1437  TIP3      H1             -0.9316003985       17.2871042534      -38.4337846635  WZ1       3428            0.0000000000
      4311      1437  TIP3      H2             -2.0044303985       17.2144642534      -37.3681346635  WZ1       3428            0.0000000000
      4312      1438  TIP3      OH2             4.3722496015       16.8049542534      -33.8324346635  WZ1       3429            0.0000000000
      4313      1438  TIP3      H1              5.2465896015       17.1933842534      -33.8620046635  WZ1       3429            0.0000000000
      4314      1438  TIP3      H2              4.2363296015       16.5897342534      -32.9097146635  WZ1       3429            0.0000000000
      4315      1439  TIP3      OH2             9.9290896015       16.8349342534      -32.1832646635  WZ1       3430            0.0000000000
      4316      1439  TIP3      H1             10.0052496015       16.9300942534      -33.1326646635  WZ1       3430            0.0000000000
      4317      1439  TIP3      H2              9.6540096015       15.9272242534      -32.0543546635  WZ1       3430            0.0000000000
      4318      1440  TIP3      OH2            -0.2492103985       17.3924342534      -24.1281246635  WZ1       3437            0.0000000000
      4319      1440  TIP3      H1             -0.6153903985       16.6266942534      -23.6856546635  WZ1       3437            0.0000000000
      4320      1440  TIP3      H2              0.6636396015       17.4214542534      -23.8416146635  WZ1       3437            0.0000000000
      4321      1441  TIP3      OH2             1.7238696015       16.7428742534      -22.5924146635  WZ1       3438            0.0000000000
      4322      1441  TIP3      H1              2.6222296015       16.4688942534      -22.7770746635  WZ1       3438            0.0000000000
      4323      1441  TIP3      H2              1.3371796015       16.0004742534      -22.1281546635  WZ1       3438            0.0000000000
      4324      1442  TIP3      OH2            10.1450996015       16.0754042534      -22.4101346635  WZ1       3440            0.0000000000
      4325      1442  TIP3      H1             10.2218196015       15.6494742534      -21.5563646635  WZ1       3440            0.0000000000
      4326      1442  TIP3      H2             11.0387596015       16.0888742534      -22.7527846635  WZ1       3440            0.0000000000
      4327      1443  TIP3      OH2            13.3212096015       32.1480342534      -23.7177146635  WZ1       3441            0.0000000000
      4328      1443  TIP3      H1             12.5393996015       31.9618342534      -24.2376546635  WZ1       3441            0.0000000000
      4329      1443  TIP3      H2             13.2491996015       33.0774642534      -23.5004646635  WZ1       3441            0.0000000000
      4330      1444  TIP3      OH2            16.7438396015       25.1029442534      -25.7942046635  WZ1       3530            0.0000000000
      4331      1444  TIP3      H1             16.9666996015       24.6849042534      -24.9624546635  WZ1       3530            0.0000000000
      4332      1444  TIP3      H2             16.1418496015       24.4904442534      -26.2169246635  WZ1       3530            0.0000000000
      4333      1445  TIP3      OH2            18.3777896015       19.8562142534      -26.2360646635  WZ1       3546            0.0000000000
      4334      1445  TIP3      H1             17.4850196015       20.1947542534      -26.3036646635  WZ1       3546            0.0000000000
      4335      1445  TIP3      H2             18.2790696015       19.0008242534      -25.8179846635  WZ1       3546            0.0000000000
      4336      1446  TIP3      OH2            17.1462796015       27.3582042534      -22.4944746635  WZ1       3572            0.0000000000
      4337      1446  TIP3      H1             17.2903296015       26.4562742534      -22.7808046635  WZ1       3572            0.0000000000
      4338      1446  TIP3      H2             16.3740196015       27.6444142534      -22.9822446635  WZ1       3572            0.0000000000
      4339      1447  TIP3      OH2            17.9789296015       24.5585342534      -23.0745446635  WZ1       3577            0.0000000000
      4340      1447  TIP3      H1             18.3870496015       23.7011942534      -23.1954846635  WZ1       3577            0.0000000000
      4341      1447  TIP3      H2             17.7186896015       24.5726642534      -22.1535146635  WZ1       3577            0.0000000000
      4342      1448  TIP3      OH2            20.7439596015       22.1205342534      -22.7063846635  WZ1       3588            0.0000000000
      4343      1448  TIP3      H1             19.9768596015       21.5880142534      -22.9166246635  WZ1       3588            0.0000000000
      4344      1448  TIP3      H2             21.4228596015       21.8105742534      -23.3057546635  WZ1       3588            0.0000000000
      4345      1449  TIP3      OH2            18.9242396015       20.0409142534      -23.0019146635  WZ1       3593            0.0000000000
      4346      1449  TIP3      H1             19.1359796015       19.3345242534      -23.6121646635  WZ1       3593            0.0000000000
      4347      1449  TIP3      H2             18.8129896015       19.6035142534      -22.1577946635  WZ1       3593            0.0000000000
      4348      1450  TIP3      OH2            23.7052596015       16.0420742534      -24.0225646635  WZ1       3594            0.0000000000
      4349      1450  TIP3      H1             24.4170996015       15.4022942534      -24.0366546635  WZ1       3594            0.0000000000
      4350      1450  TIP3      H2             23.6042996015       16.3089042534      -24.9362546635  WZ1       3594            0.0000000000
      4351      1451  TIP3      OH2            24.0590096015       17.7249142534      -21.9689346635  WZ1       3595            0.0000000000
      4352      1451  TIP3      H1             23.9272296015       17.2492942534      -22.7890846635  WZ1       3595            0.0000000000
      4353      1451  TIP3      H2             23.4597496015       18.4692742534      -22.0242246635  WZ1       3595            0.0000000000
      4354      1452  TIP3      OH2            16.3701396015       21.0639142534      -23.8353446635  WZ1       3617            0.0000000000
      4355      1452  TIP3      H1             17.2896296015       20.9417442534      -23.5990346635  WZ1       3617            0.0000000000
      4356      1452  TIP3      H2             15.9205896015       20.3138842534      -23.4459946635  WZ1       3617            0.0000000000
      4357      1453  TIP3      OH2            16.1726096015       17.3711842534      -27.4765446635  WZ1       3626            0.0000000000
      4358      1453  TIP3      H1             15.5076596015       17.1252142534      -26.8334546635  WZ1       3626            0.0000000000
      4359      1453  TIP3      H2             15.7297396015       17.9932242534      -28.0537446635  WZ1       3626            0.0000000000
      4360      1454  TIP3      OH2            18.6067896015       17.3924342534      -24.1281246635  WZ1       3653            0.0000000000
      4361      1454  TIP3      H1             18.2406096015       16.6266942534      -23.6856546635  WZ1       3653            0.0000000000
      4362      1454  TIP3      H2             19.5196396015       17.4214542534      -23.8416146635  WZ1       3653            0.0000000000
      4363      1455  TIP3      OH2            20.5798696015       16.7428742534      -22.5924146635  WZ1       3654            0.0000000000
      4364      1455  TIP3      H1             21.4782296015       16.4688942534      -22.7770746635  WZ1       3654            0.0000000000
      4365      1455  TIP3      H2             20.1931796015       16.0004742534      -22.1281546635  WZ1       3654            0.0000000000
      4366      1456  TIP3      OH2           -13.6529903985       36.5809142534      -21.9689346635  WZ1       3833            0.0000000000
      4367      1456  TIP3      H1            -13.7847703985       36.1052942534      -22.7890846635  WZ1       3833            0.0000000000
      4368      1456  TIP3      H2            -14.2522503985       37.3252742534      -22.0242246635  WZ1       3833            0.0000000000
      4369      1457  TIP3      OH2            -3.3399203985       35.4520642534      -21.9587646635  WZ1       3838            0.0000000000
      4370      1457  TIP3      H1             -2.9902203985       34.7984142534      -22.5642946635  WZ1       3838            0.0000000000
      4371      1457  TIP3      H2             -3.1929703985       36.2894742534      -22.3985046635  WZ1       3838            0.0000000000
      4372      1458  TIP3      OH2            -4.8196103985       35.6511542534      -25.7905546635  WZ1       3845            0.0000000000
      4373      1458  TIP3      H1             -5.6322603985       35.9761842534      -26.1780846635  WZ1       3845            0.0000000000
      4374      1458  TIP3      H2             -4.5867603985       34.8910042534      -26.3236446635  WZ1       3845            0.0000000000
      4375      1459  TIP3      OH2            -8.7109003985       34.9314042534      -22.4101346635  WZ1       3858            0.0000000000
      4376      1459  TIP3      H1             -8.6341803985       34.5054742534      -21.5563646635  WZ1       3858            0.0000000000
      4377      1459  TIP3      H2             -7.8172403985       34.9448742534      -22.7527846635  WZ1       3858            0.0000000000
      4378      1460  TIP3      OH2             7.2575496015       35.9224042534      -26.5832146635  WZ1       3870            0.0000000000
      4379      1460  TIP3      H1              7.6778596015       35.5071142534      -25.8301546635  WZ1       3870            0.0000000000
      4380      1460  TIP3      H2              6.3245096015       35.7437342534      -26.4660146635  WZ1       3870            0.0000000000
      4381      1461  TIP3      OH2             4.6274496015       35.6043342534      -26.6938446635  WZ1       3894            0.0000000000
      4382      1461  TIP3      H1              4.5294096015       36.5506542534      -26.7992246635  WZ1       3894            0.0000000000
      4383      1461  TIP3      H2              3.8850696015       35.2317142534      -27.1694946635  WZ1       3894            0.0000000000
      4384      1462  TIP3      OH2             4.8492596015       34.8980742534      -24.0225646635  WZ1       3899            0.0000000000
      4385      1462  TIP3      H1              5.5610996015       34.2582942534      -24.0366546635  WZ1       3899            0.0000000000
      4386      1462  TIP3      H2              4.7482996015       35.1649042534      -24.9362546635  WZ1       3899            0.0000000000
      4387      1463  TIP3      OH2             5.2030096015       36.5809142534      -21.9689346635  WZ1       3900            0.0000000000
      4388      1463  TIP3      H1              5.0712296015       36.1052942534      -22.7890846635  WZ1       3900            0.0000000000
      4389      1463  TIP3      H2              4.6037496015       37.3252742534      -22.0242246635  WZ1       3900            0.0000000000
      4390      1464  TIP3      OH2            -2.6833903985       36.2271842534      -27.4765446635  WZ1       3911            0.0000000000
      4391      1464  TIP3      H1             -3.3483403985       35.9812142534      -26.8334546635  WZ1       3911            0.0000000000
      4392      1464  TIP3      H2             -3.1262603985       36.8492242534      -28.0537446635  WZ1       3911            0.0000000000
      4393      1465  TIP3      OH2            -0.2492103985       36.2484342534      -24.1281246635  WZ1       3923            0.0000000000
      4394      1465  TIP3      H1             -0.6153903985       35.4826942534      -23.6856546635  WZ1       3923            0.0000000000
      4395      1465  TIP3      H2              0.6636396015       36.2774542534      -23.8416146635  WZ1       3923            0.0000000000
      4396      1466  TIP3      OH2             1.7238696015       35.5988742534      -22.5924146635  WZ1       3924            0.0000000000
      4397      1466  TIP3      H1              2.6222296015       35.3248942534      -22.7770746635  WZ1       3924            0.0000000000
      4398      1466  TIP3      H2              1.3371796015       34.8564742534      -22.1281546635  WZ1       3924            0.0000000000
      4399      1467  TIP3      OH2            10.1450996015       34.9314042534      -22.4101346635  WZ1       3925            0.0000000000
      4400      1467  TIP3      H1             10.2218196015       34.5054742534      -21.5563646635  WZ1       3925            0.0000000000
      4401      1467  TIP3      H2             11.0387596015       34.9448742534      -22.7527846635  WZ1       3925            0.0000000000
      4402      1468  TIP3      OH2           -28.8407503985      -30.5335257466      -14.8309946635  WZ2       1               0.0000000000
      4403      1468  TIP3      H1            -28.7516403985      -29.5897057466      -14.9632846635  WZ2       1               0.0000000000
      4404      1468  TIP3      H2            -29.4789903985      -30.8088857466      -15.4890546635  WZ2       1               0.0000000000
      4405      1469  TIP3      OH2           -26.2016003985      -28.3394157466      -13.1106646635  WZ2       4               0.0000000000
      4406      1469  TIP3      H1            -26.6423303985      -29.0598157466      -12.6601046635  WZ2       4               0.0000000000
      4407      1469  TIP3      H2            -26.2146303985      -27.6186957466      -12.4808946635  WZ2       4               0.0000000000
      4408      1470  TIP3      OH2           -29.0900503985      -23.2352457466      -12.8986246635  WZ2       8               0.0000000000
      4409      1470  TIP3      H1            -28.4704103985      -23.9117757466      -13.1717046635  WZ2       8               0.0000000000
      4410      1470  TIP3      H2            -29.2983103985      -23.4531657466      -11.9901346635  WZ2       8               0.0000000000
      4411      1471  TIP3      OH2           -31.5181803985      -28.8463157466      -11.0060746635  WZ2       9               0.0000000000
      4412      1471  TIP3      H1            -31.2143903985      -29.5321757466      -11.6006646635  WZ2       9               0.0000000000
      4413      1471  TIP3      H2            -30.7967803985      -28.7274457466      -10.3882746635  WZ2       9               0.0000000000
      4414      1472  TIP3      OH2           -22.8552003985      -37.2447857466      -10.1454546635  WZ2       10              0.0000000000
      4415      1472  TIP3      H1            -22.8059803985      -36.6346657466       -9.4095446635  WZ2       10              0.0000000000
      4416      1472  TIP3      H2            -22.4296903985      -36.7836957466      -10.8683446635  WZ2       10              0.0000000000
      4417      1473  TIP3      OH2           -22.4637403985      -35.7668657466       -7.9094746635  WZ2       16              0.0000000000
      4418      1473  TIP3      H1            -23.1522803985      -35.1087957466       -8.0048146635  WZ2       16              0.0000000000
      4419      1473  TIP3      H2            -22.4482803985      -35.9640757466       -6.9729346635  WZ2       16              0.0000000000
      4420      1474  TIP3      OH2           -29.0434803985      -27.9324857466      -15.7881246635  WZ2       18              0.0000000000
      4421      1474  TIP3      H1            -29.3389703985      -28.2552557466      -16.6394346635  WZ2       18              0.0000000000
      4422      1474  TIP3      H2            -29.3677003985      -27.0328157466      -15.7468646635  WZ2       18              0.0000000000
      4423      1475  TIP3      OH2           -25.6898303985      -26.5003457466      -10.7627346635  WZ2       24              0.0000000000
      4424      1475  TIP3      H1            -26.6314603985      -26.4419557466      -10.6010446635  WZ2       24              0.0000000000
      4425      1475  TIP3      H2            -25.4132203985      -25.5942957466      -10.8997646635  WZ2       24              0.0000000000
      4426      1476  TIP3      OH2           -27.4377103985      -24.7189957466      -14.1375746635  WZ2       27              0.0000000000
      4427      1476  TIP3      H1            -27.0124803985      -25.4262057466      -14.6226146635  WZ2       27              0.0000000000
      4428      1476  TIP3      H2            -27.1207103985      -23.9177257466      -14.5543546635  WZ2       27              0.0000000000
      4429      1477  TIP3      OH2           -26.2780603985      -26.8181457466      -15.6289146635  WZ2       28              0.0000000000
      4430      1477  TIP3      H1            -26.5355803985      -27.5081357466      -16.2403246635  WZ2       28              0.0000000000
      4431      1477  TIP3      H2            -26.2069803985      -27.2610257466      -14.7833246635  WZ2       28              0.0000000000
      4432      1478  TIP3      OH2           -24.5920403985      -28.2514757466       -7.1515646635  WZ2       29              0.0000000000
      4433      1478  TIP3      H1            -24.4524103985      -28.8432257466       -7.8908646635  WZ2       29              0.0000000000
      4434      1478  TIP3      H2            -24.4247603985      -27.3788857466       -7.5076846635  WZ2       29              0.0000000000
      4435      1479  TIP3      OH2           -22.7501103985      -31.9116757466       -9.0855246635  WZ2       32              0.0000000000
      4436      1479  TIP3      H1            -23.4027003985      -31.2171157466       -8.9964346635  WZ2       32              0.0000000000
      4437      1479  TIP3      H2            -22.2850803985      -31.7015857466       -9.8953646635  WZ2       32              0.0000000000
      4438      1480  TIP3      OH2           -26.7137303985      -31.0801957466      -16.4273746635  WZ2       33              0.0000000000
      4439      1480  TIP3      H1            -27.4456303985      -30.8518257466      -15.8543146635  WZ2       33              0.0000000000
      4440      1480  TIP3      H2            -26.2665103985      -31.7939257466      -15.9726246635  WZ2       33              0.0000000000
      4441      1481  TIP3      OH2           -26.8163803985      -32.9059357466       -7.3596746635  WZ2       34              0.0000000000
      4442      1481  TIP3      H1            -26.7364703985      -32.1424957466       -6.7878246635  WZ2       34              0.0000000000
      4443      1481  TIP3      H2            -27.4176103985      -32.6266957466       -8.0501646635  WZ2       34              0.0000000000
      4444      1482  TIP3      OH2           -28.3925903985      -26.1778257466      -10.1773246635  WZ2       38              0.0000000000
      4445      1482  TIP3      H1            -28.6329303985      -25.5155157466       -9.5294046635  WZ2       38              0.0000000000
      4446      1482  TIP3      H2            -28.5907703985      -27.0123057466       -9.7523646635  WZ2       38              0.0000000000
      4447      1483  TIP3      OH2           -30.1162903985      -25.1810557466      -15.3069446635  WZ2       42              0.0000000000
      4448      1483  TIP3      H1            -29.6425303985      -24.8854257466      -14.5295246635  WZ2       42              0.0000000000
      4449      1483  TIP3      H2            -30.6793603985      -24.4428957466      -15.5399846635  WZ2       42              0.0000000000
      4450      1484  TIP3      OH2           -22.9548003985      -25.8016257466      -20.5528946635  WZ2       46              0.0000000000
      4451      1484  TIP3      H1            -22.8814503985      -24.8626057466      -20.3823646635  WZ2       46              0.0000000000
      4452      1484  TIP3      H2            -22.0492903985      -26.1067657466      -20.6091646635  WZ2       46              0.0000000000
      4453      1485  TIP3      OH2           -22.0369603985      -25.5708757466       -5.5742246635  WZ2       49              0.0000000000
      4454      1485  TIP3      H1            -22.0862803985      -26.5260657466       -5.6114646635  WZ2       49              0.0000000000
      4455      1485  TIP3      H2            -22.8637303985      -25.3033457466       -5.1728446635  WZ2       49              0.0000000000
      4456      1486  TIP3      OH2           -31.0585603985      -25.9969557466       -6.6980846635  WZ2       50              0.0000000000
      4457      1486  TIP3      H1            -30.9711003985      -25.1704957466       -6.2231746635  WZ2       50              0.0000000000
      4458      1486  TIP3      H2            -31.9220503985      -26.3265757466       -6.4491546635  WZ2       50              0.0000000000
      4459      1487  TIP3      OH2           -30.6439803985      -22.2245857466      -16.8920246635  WZ2       51              0.0000000000
      4460      1487  TIP3      H1            -30.7193803985      -22.3458657466      -17.8385046635  WZ2       51              0.0000000000
      4461      1487  TIP3      H2            -30.6111103985      -21.2753157466      -16.7735646635  WZ2       51              0.0000000000
      4462      1488  TIP3      OH2           -27.5423803985      -23.0705657466      -19.8897846635  WZ2       53              0.0000000000
      4463      1488  TIP3      H1            -27.1675403985      -23.8149557466      -20.3605246635  WZ2       53              0.0000000000
      4464      1488  TIP3      H2            -27.5380103985      -23.3405057466      -18.9714546635  WZ2       53              0.0000000000
      4465      1489  TIP3      OH2           -27.8735703985      -23.1448557466      -17.1405646635  WZ2       54              0.0000000000
      4466      1489  TIP3      H1            -28.8085903985      -23.0446657466      -16.9618646635  WZ2       54              0.0000000000
      4467      1489  TIP3      H2            -27.5933803985      -23.8542557466      -16.5622446635  WZ2       54              0.0000000000
      4468      1490  TIP3      OH2           -24.8849803985      -34.0776257466       -5.0940046635  WZ2       55              0.0000000000
      4469      1490  TIP3      H1            -25.2923003985      -33.5970657466       -5.8146746635  WZ2       55              0.0000000000
      4470      1490  TIP3      H2            -24.8444103985      -34.9830257466       -5.4019246635  WZ2       55              0.0000000000
      4471      1491  TIP3      OH2           -24.7550803985      -21.7032557466       -4.4675446635  WZ2       77              0.0000000000
      4472      1491  TIP3      H1            -24.5552103985      -21.2790657466       -5.3020146635  WZ2       77              0.0000000000
      4473      1491  TIP3      H2            -24.0997103985      -21.3594357466       -3.8605046635  WZ2       77              0.0000000000
      4474      1492  TIP3      OH2           -24.8070703985      -30.0879257466       -9.2360846635  WZ2       83              0.0000000000
      4475      1492  TIP3      H1            -24.1651903985      -29.6312957466       -9.7798646635  WZ2       83              0.0000000000
      4476      1492  TIP3      H2            -25.6373803985      -29.9746857466       -9.6986746635  WZ2       83              0.0000000000
      4477      1493  TIP3      OH2           -30.4377503985      -29.0364157466       -6.7859346635  WZ2       85              0.0000000000
      4478      1493  TIP3      H1            -30.7831403985      -29.4181757466       -5.9789746635  WZ2       85              0.0000000000
      4479      1493  TIP3      H2            -30.6377403985      -28.1030557466       -6.7146446635  WZ2       85              0.0000000000
      4480      1494  TIP3      OH2           -28.1873903985      -26.5748657466       -6.8354346635  WZ2       91              0.0000000000
      4481      1494  TIP3      H1            -29.0879603985      -26.3916057466       -7.1030446635  WZ2       91              0.0000000000
      4482      1494  TIP3      H2            -28.1532803985      -26.3159357466       -5.9145546635  WZ2       91              0.0000000000
      4483      1495  TIP3      OH2           -22.4928603985      -28.5299057466       -5.6310246635  WZ2       93              0.0000000000
      4484      1495  TIP3      H1            -23.3440103985      -28.2915257466       -5.9983846635  WZ2       93              0.0000000000
      4485      1495  TIP3      H2            -21.9025203985      -28.5465857466       -6.3843146635  WZ2       93              0.0000000000
      4486      1496  TIP3      OH2           -24.1608903985      -25.5440357466      -18.0029646635  WZ2       94              0.0000000000
      4487      1496  TIP3      H1            -24.5337803985      -26.3696557466      -17.6939046635  WZ2       94              0.0000000000
      4488      1496  TIP3      H2            -23.8835403985      -25.7270957466      -18.9006246635  WZ2       94              0.0000000000
      4489      1497  TIP3      OH2           -27.0005003985      -30.7360857466      -10.9817746635  WZ2       95              0.0000000000
      4490      1497  TIP3      H1            -27.9288103985      -30.9678957466      -11.0088446635  WZ2       95              0.0000000000
      4491      1497  TIP3      H2            -26.5493903985      -31.5131057466      -11.3118946635  WZ2       95              0.0000000000
      4492      1498  TIP3      OH2           -32.5153003985      -24.5955757466       -8.9573646635  WZ2       99              0.0000000000
      4493      1498  TIP3      H1            -32.1528303985      -23.7410157466       -9.1909246635  WZ2       99              0.0000000000
      4494      1498  TIP3      H2            -31.9837803985      -24.8874157466       -8.2167346635  WZ2       99              0.0000000000
      4495      1499  TIP3      OH2           -34.3468803985      -23.7231757466      -15.7272546635  WZ2       100             0.0000000000
      4496      1499  TIP3      H1            -35.2968303985      -23.6174357466      -15.6759246635  WZ2       100             0.0000000000
      4497      1499  TIP3      H2            -33.9950703985      -22.9024357466      -15.3825046635  WZ2       100             0.0000000000
      4498      1500  TIP3      OH2           -28.9712203985      -28.4965057466       -9.2568046635  WZ2       101             0.0000000000
      4499      1500  TIP3      H1            -29.3970903985      -28.7243357466       -8.4304046635  WZ2       101             0.0000000000
      4500      1500  TIP3      H2            -28.3906403985      -29.2353257466       -9.4392746635  WZ2       101             0.0000000000
      4501      1501  TIP3      OH2           -26.3128003985      -23.9445557466       -6.7873246635  WZ2       103             0.0000000000
      4502      1501  TIP3      H1            -26.9144803985      -24.5002657466       -7.2826946635  WZ2       103             0.0000000000
      4503      1501  TIP3      H2            -26.0314303985      -23.2775757466       -7.4135846635  WZ2       103             0.0000000000
      4504      1502  TIP3      OH2           -22.2648903985      -23.0882057466      -19.9818846635  WZ2       104             0.0000000000
      4505      1502  TIP3      H1            -21.5211003985      -22.5021557466      -20.1217246635  WZ2       104             0.0000000000
      4506      1502  TIP3      H2            -22.9590803985      -22.5196257466      -19.6486446635  WZ2       104             0.0000000000
      4507      1503  TIP3      OH2           -25.9024003985      -28.8952557466      -17.9561146635  WZ2       106             0.0000000000
      4508      1503  TIP3      H1            -26.1796403985      -29.6233257466      -17.4000046635  WZ2       106             0.0000000000
      4509      1503  TIP3      H2            -24.9751003985      -28.7760557466      -17.7508546635  WZ2       106             0.0000000000
      4510      1504  TIP3      OH2           -24.7311703985      -36.6974057466       -6.5385046635  WZ2       119             0.0000000000
      4511      1504  TIP3      H1            -25.6475903985      -36.4352357466       -6.6261346635  WZ2       119             0.0000000000
      4512      1504  TIP3      H2            -24.3956703985      -36.7005057466       -7.4349746635  WZ2       119             0.0000000000
      4513      1505  TIP3      OH2           -26.1290703985      -32.9473057466      -12.4427746635  WZ2       120             0.0000000000
      4514      1505  TIP3      H1            -26.9266303985      -33.3622857466      -12.7712746635  WZ2       120             0.0000000000
      4515      1505  TIP3      H2            -25.6839603985      -33.6379357466      -11.9517246635  WZ2       120             0.0000000000
      4516      1506  TIP3      OH2           -25.0426103985      -23.6910557466      -10.8204246635  WZ2       123             0.0000000000
      4517      1506  TIP3      H1            -25.1981803985      -23.0126157466      -11.4774946635  WZ2       123             0.0000000000
      4518      1506  TIP3      H2            -24.1099703985      -23.6191257466      -10.6173646635  WZ2       123             0.0000000000
      4519      1507  TIP3      OH2           -34.7313303985      -24.1007657466       -2.9724846635  WZ2       127             0.0000000000
      4520      1507  TIP3      H1            -33.9636103985      -24.5596857466       -2.6315646635  WZ2       127             0.0000000000
      4521      1507  TIP3      H2            -34.7527103985      -24.3267857466       -3.9023646635  WZ2       127             0.0000000000
      4522      1508  TIP3      OH2           -28.1544603985      -25.7206557466       -4.2433346635  WZ2       129             0.0000000000
      4523      1508  TIP3      H1            -28.5055103985      -26.5773557466       -4.0002946635  WZ2       129             0.0000000000
      4524      1508  TIP3      H2            -27.4281403985      -25.5779857466       -3.6364346635  WZ2       129             0.0000000000
      4525      1509  TIP3      OH2           -27.0315903985      -29.3242557466       -6.8226046635  WZ2       135             0.0000000000
      4526      1509  TIP3      H1            -26.2861103985      -28.7358857466       -6.9422046635  WZ2       135             0.0000000000
      4527      1509  TIP3      H2            -27.7889103985      -28.7422857466       -6.7592946635  WZ2       135             0.0000000000
      4528      1510  TIP3      OH2           -29.6222203985      -30.5293657466       -3.5667746635  WZ2       140             0.0000000000
      4529      1510  TIP3      H1            -28.6691003985      -30.4454557466       -3.5941746635  WZ2       140             0.0000000000
      4530      1510  TIP3      H2            -29.7827603985      -31.2411857466       -2.9472846635  WZ2       140             0.0000000000
      4531      1511  TIP3      OH2           -27.8926403985      -34.0214357466       -3.0011546635  WZ2       145             0.0000000000
      4532      1511  TIP3      H1            -27.7005103985      -34.9524957466       -3.1127046635  WZ2       145             0.0000000000
      4533      1511  TIP3      H2            -27.0350103985      -33.5964857466       -3.0116146635  WZ2       145             0.0000000000
      4534      1512  TIP3      OH2           -26.5759203985      -31.2329157466       -4.9238846635  WZ2       146             0.0000000000
      4535      1512  TIP3      H1            -26.8574203985      -30.5234557466       -5.5015046635  WZ2       146             0.0000000000
      4536      1512  TIP3      H2            -25.6334903985      -31.3056157466       -5.0747646635  WZ2       146             0.0000000000
      4537      1513  TIP3      OH2           -22.3268103985      -23.0404857466      -10.5912346635  WZ2       159             0.0000000000
      4538      1513  TIP3      H1            -22.3481403985      -22.8556457466       -9.6522946635  WZ2       159             0.0000000000
      4539      1513  TIP3      H2            -21.6361903985      -22.4720857466      -10.9320946635  WZ2       159             0.0000000000
      4540      1514  TIP3      OH2           -22.7635203985      -23.4733757466       -7.6693246635  WZ2       160             0.0000000000
      4541      1514  TIP3      H1            -23.2506503985      -24.2089657466       -8.0405846635  WZ2       160             0.0000000000
      4542      1514  TIP3      H2            -22.2142503985      -23.8669857466       -6.9913846635  WZ2       160             0.0000000000
      4543      1515  TIP3      OH2           -24.3127903985      -27.6835657466       -3.0312946635  WZ2       161             0.0000000000
      4544      1515  TIP3      H1            -25.1786803985      -27.7885957466       -2.6370646635  WZ2       161             0.0000000000
      4545      1515  TIP3      H2            -23.9362003985      -26.9252357466       -2.5848246635  WZ2       161             0.0000000000
      4546      1516  TIP3      OH2           -23.0118203985      -29.4271957466      -17.5170446635  WZ2       162             0.0000000000
      4547      1516  TIP3      H1            -22.1616803985      -29.0061057466      -17.3898846635  WZ2       162             0.0000000000
      4548      1516  TIP3      H2            -23.0063103985      -30.1671857466      -16.9099046635  WZ2       162             0.0000000000
      4549      1517  TIP3      OH2           -22.6172603985      -31.3734557466      -15.6934746635  WZ2       163             0.0000000000
      4550      1517  TIP3      H1            -23.3438003985      -31.8531957466      -15.2957146635  WZ2       163             0.0000000000
      4551      1517  TIP3      H2            -22.0359303985      -31.1679857466      -14.9613146635  WZ2       163             0.0000000000
      4552      1518  TIP3      OH2           -22.8581403985      -28.5887057466      -10.7457146635  WZ2       164             0.0000000000
      4553      1518  TIP3      H1            -22.0247203985      -28.9667057466      -11.0263546635  WZ2       164             0.0000000000
      4554      1518  TIP3      H2            -22.7461103985      -27.6455857466      -10.8648046635  WZ2       164             0.0000000000
      4555      1519  TIP3      OH2           -24.3719103985      -25.7109557466       -8.4388746635  WZ2       165             0.0000000000
      4556      1519  TIP3      H1            -25.0193803985      -25.3858057466       -7.8133546635  WZ2       165             0.0000000000
      4557      1519  TIP3      H2            -24.8895103985      -26.1511857466       -9.1130446635  WZ2       165             0.0000000000
      4558      1520  TIP3      OH2           -22.3489503985      -31.4726057466      -19.3023446635  WZ2       166             0.0000000000
      4559      1520  TIP3      H1            -22.8708403985      -31.1161957466      -20.0212546635  WZ2       166             0.0000000000
      4560      1520  TIP3      H2            -22.3820303985      -30.7978257466      -18.6242546635  WZ2       166             0.0000000000
      4561      1521  TIP3      OH2           -24.8305803985      -32.8528057466      -15.1306046635  WZ2       168             0.0000000000
      4562      1521  TIP3      H1            -24.9807003985      -33.7979457466      -15.1508246635  WZ2       168             0.0000000000
      4563      1521  TIP3      H2            -25.1841303985      -32.5716657466      -14.2866946635  WZ2       168             0.0000000000
      4564      1522  TIP3      OH2           -23.9742903985      -30.8824757466       -5.4917746635  WZ2       170             0.0000000000
      4565      1522  TIP3      H1            -23.3915603985      -31.6172457466       -5.3000546635  WZ2       170             0.0000000000
      4566      1522  TIP3      H2            -23.4103603985      -30.1104457466       -5.4451946635  WZ2       170             0.0000000000
      4567      1523  TIP3      OH2           -22.4775803985      -32.9798957466       -4.8072346635  WZ2       171             0.0000000000
      4568      1523  TIP3      H1            -23.3409103985      -33.3586857466       -4.9727646635  WZ2       171             0.0000000000
      4569      1523  TIP3      H2            -21.8732103985      -33.7184157466       -4.8816546635  WZ2       171             0.0000000000
      4570      1524  TIP3      OH2           -24.5082703985      -34.6884857466      -11.2322046635  WZ2       174             0.0000000000
      4571      1524  TIP3      H1            -23.5754703985      -34.4764957466      -11.2666046635  WZ2       174             0.0000000000
      4572      1524  TIP3      H2            -24.7435203985      -34.5872757466      -10.3099046635  WZ2       174             0.0000000000
      4573      1525  TIP3      OH2           -24.4790803985      -33.9519557466       -8.4562646635  WZ2       175             0.0000000000
      4574      1525  TIP3      H1            -25.3219503985      -33.6839157466       -8.0902846635  WZ2       175             0.0000000000
      4575      1525  TIP3      H2            -24.0366503985      -33.1297657466       -8.6671546635  WZ2       175             0.0000000000
      4576      1526  TIP3      OH2           -25.5882103985      -22.9505457466      -15.0190546635  WZ2       184             0.0000000000
      4577      1526  TIP3      H1            -24.9359203985      -23.2983357466      -15.6271446635  WZ2       184             0.0000000000
      4578      1526  TIP3      H2            -25.0778303985      -22.4622257466      -14.3730846635  WZ2       184             0.0000000000
      4579      1527  TIP3      OH2           -30.9380303985      -23.6482857466       -5.2581946635  WZ2       188             0.0000000000
      4580      1527  TIP3      H1            -30.7532803985      -23.9816757466       -4.3801646635  WZ2       188             0.0000000000
      4581      1527  TIP3      H2            -30.0915803985      -23.3384257466       -5.5802746635  WZ2       188             0.0000000000
      4582      1528  TIP3      OH2           -28.5929903985      -22.3623957466       -6.0140546635  WZ2       189             0.0000000000
      4583      1528  TIP3      H1            -27.9161003985      -22.9951657466       -6.2541346635  WZ2       189             0.0000000000
      4584      1528  TIP3      H2            -28.2711103985      -21.9613457466       -5.2067246635  WZ2       189             0.0000000000
      4585      1529  TIP3      OH2           -35.3802403985      -22.1905057466       -9.1403146635  WZ2       192             0.0000000000
      4586      1529  TIP3      H1            -36.2450203985      -22.1186557466       -8.7363046635  WZ2       192             0.0000000000
      4587      1529  TIP3      H2            -35.4353403985      -21.6437757466       -9.9240646635  WZ2       192             0.0000000000
      4588      1530  TIP3      OH2           -30.6696803985      -22.3026157466       -9.9647146635  WZ2       193             0.0000000000
      4589      1530  TIP3      H1            -31.1262803985      -21.7736457466      -10.6188746635  WZ2       193             0.0000000000
      4590      1530  TIP3      H2            -30.5068803985      -21.6994757466       -9.2394846635  WZ2       193             0.0000000000
      4591      1531  TIP3      OH2           -28.3420503985      -23.4246557466       -9.0196846635  WZ2       194             0.0000000000
      4592      1531  TIP3      H1            -29.2466803985      -23.2596357466       -9.2854746635  WZ2       194             0.0000000000
      4593      1531  TIP3      H2            -27.9131903985      -22.5714357466       -9.0853446635  WZ2       194             0.0000000000
      4594      1532  TIP3      OH2           -25.7378603985      -21.8547457466       -8.7249046635  WZ2       195             0.0000000000
      4595      1532  TIP3      H1            -25.9196603985      -20.9388557466       -8.9354146635  WZ2       195             0.0000000000
      4596      1532  TIP3      H2            -25.5610803985      -22.2650357466       -9.5714446635  WZ2       195             0.0000000000
      4597      1533  TIP3      OH2           -33.7541303985      -23.9878457466      -11.7560646635  WZ2       198             0.0000000000
      4598      1533  TIP3      H1            -33.5415603985      -24.8759457466      -12.0429746635  WZ2       198             0.0000000000
      4599      1533  TIP3      H2            -33.6896203985      -24.0220757466      -10.8016646635  WZ2       198             0.0000000000
      4600      1534  TIP3      OH2           -23.6084103985      -23.1712057466      -17.0118946635  WZ2       211             0.0000000000
      4601      1534  TIP3      H1            -23.8027003985      -23.9189957466      -17.5769346635  WZ2       211             0.0000000000
      4602      1534  TIP3      H2            -23.6474003985      -22.4131957466      -17.5951046635  WZ2       211             0.0000000000
      4603      1535  TIP3      OH2           -24.3907903985      -24.4199657466       -4.8617146635  WZ2       216             0.0000000000
      4604      1535  TIP3      H1            -25.1726003985      -24.6061657466       -5.3816546635  WZ2       216             0.0000000000
      4605      1535  TIP3      H2            -24.4628003985      -23.4905357466       -4.6444646635  WZ2       216             0.0000000000
      4606      1536  TIP3      OH2            -9.9847503985      -30.5335257466      -14.8309946635  WZ2       217             0.0000000000
      4607      1536  TIP3      H1             -9.8956403985      -29.5897057466      -14.9632846635  WZ2       217             0.0000000000
      4608      1536  TIP3      H2            -10.6229903985      -30.8088857466      -15.4890546635  WZ2       217             0.0000000000
      4609      1537  TIP3      OH2           -11.0516203985      -31.2784557466      -11.4121746635  WZ2       218             0.0000000000
      4610      1537  TIP3      H1            -11.0898703985      -31.9248257466      -10.7072146635  WZ2       218             0.0000000000
      4611      1537  TIP3      H2            -11.3739703985      -31.7450157466      -12.1833046635  WZ2       218             0.0000000000
      4612      1538  TIP3      OH2           -18.6831203985      -31.6642457466       -9.8191846635  WZ2       219             0.0000000000
      4613      1538  TIP3      H1            -18.6419103985      -32.2899157466       -9.0959446635  WZ2       219             0.0000000000
      4614      1538  TIP3      H2            -17.9803503985      -31.0403857466       -9.6371446635  WZ2       219             0.0000000000
      4615      1539  TIP3      OH2            -7.3456003985      -28.3394157466      -13.1106646635  WZ2       220             0.0000000000
      4616      1539  TIP3      H1             -7.7863303985      -29.0598157466      -12.6601046635  WZ2       220             0.0000000000
      4617      1539  TIP3      H2             -7.3586303985      -27.6186957466      -12.4808946635  WZ2       220             0.0000000000
      4618      1540  TIP3      OH2           -17.7598103985      -27.2143557466      -11.2842746635  WZ2       221             0.0000000000
      4619      1540  TIP3      H1            -18.1292903985      -28.0163057466      -11.6538446635  WZ2       221             0.0000000000
      4620      1540  TIP3      H2            -16.8187003985      -27.3828657466      -11.2379346635  WZ2       221             0.0000000000
      4621      1541  TIP3      OH2           -21.1497603985      -33.5540957466      -15.8913946635  WZ2       222             0.0000000000
      4622      1541  TIP3      H1            -21.5974203985      -32.7082257466      -15.9097446635  WZ2       222             0.0000000000
      4623      1541  TIP3      H2            -21.7106403985      -34.1336757466      -16.4068846635  WZ2       222             0.0000000000
      4624      1542  TIP3      OH2           -20.4391503985      -31.3921357466      -13.7655946635  WZ2       223             0.0000000000
      4625      1542  TIP3      H1            -20.2258003985      -32.1619757466      -13.2382946635  WZ2       223             0.0000000000
      4626      1542  TIP3      H2            -19.7013903985      -31.3024657466      -14.3688346635  WZ2       223             0.0000000000
      4627      1543  TIP3      OH2           -10.2340503985      -23.2352457466      -12.8986246635  WZ2       224             0.0000000000
      4628      1543  TIP3      H1             -9.6144103985      -23.9117757466      -13.1717046635  WZ2       224             0.0000000000
      4629      1543  TIP3      H2            -10.4423103985      -23.4531657466      -11.9901346635  WZ2       224             0.0000000000
      4630      1544  TIP3      OH2           -12.6621803985      -28.8463157466      -11.0060746635  WZ2       225             0.0000000000
      4631      1544  TIP3      H1            -12.3583903985      -29.5321757466      -11.6006646635  WZ2       225             0.0000000000
      4632      1544  TIP3      H2            -11.9407803985      -28.7274457466      -10.3882746635  WZ2       225             0.0000000000
      4633      1545  TIP3      OH2            -3.9992003985      -37.2447857466      -10.1454546635  WZ2       226             0.0000000000
      4634      1545  TIP3      H1             -3.9499803985      -36.6346657466       -9.4095446635  WZ2       226             0.0000000000
      4635      1545  TIP3      H2             -3.5736903985      -36.7836957466      -10.8683446635  WZ2       226             0.0000000000
      4636      1546  TIP3      OH2            -9.5214803985      -34.4520757466      -10.6785946635  WZ2       227             0.0000000000
      4637      1546  TIP3      H1             -9.3788903985      -35.3983757466      -10.6584346635  WZ2       227             0.0000000000
      4638      1546  TIP3      H2             -9.6275803985      -34.2450957466      -11.6071046635  WZ2       227             0.0000000000
      4639      1547  TIP3      OH2           -16.3666503985      -36.3504357466      -13.4061146635  WZ2       228             0.0000000000
      4640      1547  TIP3      H1            -16.3235403985      -35.4905857466      -13.8244846635  WZ2       228             0.0000000000
      4641      1547  TIP3      H2            -16.8242403985      -36.9029657466      -14.0397946635  WZ2       228             0.0000000000
      4642      1548  TIP3      OH2            -8.6443803985      -36.2198757466      -15.0052846635  WZ2       229             0.0000000000
      4643      1548  TIP3      H1             -7.9979503985      -36.5485557466      -14.3805246635  WZ2       229             0.0000000000
      4644      1548  TIP3      H2             -8.1344403985      -35.7019757466      -15.6281446635  WZ2       229             0.0000000000
      4645      1549  TIP3      OH2           -19.7465003985      -33.9538557466      -12.6439746635  WZ2       230             0.0000000000
      4646      1549  TIP3      H1            -19.0928403985      -34.5036857466      -12.2119646635  WZ2       230             0.0000000000
      4647      1549  TIP3      H2            -19.7225703985      -34.2279557466      -13.5607746635  WZ2       230             0.0000000000
      4648      1550  TIP3      OH2           -14.5900503985      -32.4037257466      -13.4288246635  WZ2       231             0.0000000000
      4649      1550  TIP3      H1            -13.9739503985      -32.9301857466      -12.9194246635  WZ2       231             0.0000000000
      4650      1550  TIP3      H2            -15.1761703985      -33.0438557466      -13.8324646635  WZ2       231             0.0000000000
      4651      1551  TIP3      OH2            -3.6077403985      -35.7668657466       -7.9094746635  WZ2       232             0.0000000000
      4652      1551  TIP3      H1             -4.2962803985      -35.1087957466       -8.0048146635  WZ2       232             0.0000000000
      4653      1551  TIP3      H2             -3.5922803985      -35.9640757466       -6.9729346635  WZ2       232             0.0000000000
      4654      1552  TIP3      OH2           -10.1874803985      -27.9324857466      -15.7881246635  WZ2       234             0.0000000000
      4655      1552  TIP3      H1            -10.4829703985      -28.2552557466      -16.6394346635  WZ2       234             0.0000000000
      4656      1552  TIP3      H2            -10.5117003985      -27.0328157466      -15.7468646635  WZ2       234             0.0000000000
      4657      1553  TIP3      OH2           -14.9873203985      -29.7570257466       -9.0446646635  WZ2       235             0.0000000000
      4658      1553  TIP3      H1            -15.7274103985      -29.1588757466       -8.9411446635  WZ2       235             0.0000000000
      4659      1553  TIP3      H2            -14.2733703985      -29.2030657466       -9.3603046635  WZ2       235             0.0000000000
      4660      1554  TIP3      OH2           -17.9627303985      -35.5404157466      -11.3798146635  WZ2       237             0.0000000000
      4661      1554  TIP3      H1            -17.3491003985      -34.9076557466      -11.0065746635  WZ2       237             0.0000000000
      4662      1554  TIP3      H2            -17.4506603985      -36.0129157466      -12.0361246635  WZ2       237             0.0000000000
      4663      1555  TIP3      OH2           -16.5798903985      -27.7927257466       -8.2575146635  WZ2       238             0.0000000000
      4664      1555  TIP3      H1            -16.5851303985      -26.9133757466       -8.6355846635  WZ2       238             0.0000000000
      4665      1555  TIP3      H2            -17.4334803985      -27.8763157466       -7.8325246635  WZ2       238             0.0000000000
      4666      1556  TIP3      OH2           -20.4588003985      -28.1219357466      -17.4755846635  WZ2       239             0.0000000000
      4667      1556  TIP3      H1            -20.7307103985      -27.8928357466      -18.3642946635  WZ2       239             0.0000000000
      4668      1556  TIP3      H2            -20.4132303985      -27.2840557466      -17.0150546635  WZ2       239             0.0000000000
      4669      1557  TIP3      OH2            -6.8338303985      -26.5003457466      -10.7627346635  WZ2       240             0.0000000000
      4670      1557  TIP3      H1             -7.7754603985      -26.4419557466      -10.6010446635  WZ2       240             0.0000000000
      4671      1557  TIP3      H2             -6.5572203985      -25.5942957466      -10.8997646635  WZ2       240             0.0000000000
      4672      1558  TIP3      OH2            -8.5817103985      -24.7189957466      -14.1375746635  WZ2       243             0.0000000000
      4673      1558  TIP3      H1             -8.1564803985      -25.4262057466      -14.6226146635  WZ2       243             0.0000000000
      4674      1558  TIP3      H2             -8.2647103985      -23.9177257466      -14.5543546635  WZ2       243             0.0000000000
      4675      1559  TIP3      OH2            -7.4220603985      -26.8181457466      -15.6289146635  WZ2       244             0.0000000000
      4676      1559  TIP3      H1             -7.6795803985      -27.5081357466      -16.2403246635  WZ2       244             0.0000000000
      4677      1559  TIP3      H2             -7.3509803985      -27.2610257466      -14.7833246635  WZ2       244             0.0000000000
      4678      1560  TIP3      OH2            -5.7360403985      -28.2514757466       -7.1515646635  WZ2       245             0.0000000000
      4679      1560  TIP3      H1             -5.5964103985      -28.8432257466       -7.8908646635  WZ2       245             0.0000000000
      4680      1560  TIP3      H2             -5.5687603985      -27.3788857466       -7.5076846635  WZ2       245             0.0000000000
      4681      1561  TIP3      OH2           -11.2635003985      -31.2895257466      -17.3789646635  WZ2       246             0.0000000000
      4682      1561  TIP3      H1            -11.9749503985      -30.7545557466      -17.7309146635  WZ2       246             0.0000000000
      4683      1561  TIP3      H2            -10.5725403985      -31.2343157466      -18.0390746635  WZ2       246             0.0000000000
      4684      1562  TIP3      OH2           -11.2095803985      -32.8320957466      -20.3404646635  WZ2       247             0.0000000000
      4685      1562  TIP3      H1            -10.5085903985      -32.8094057466      -19.6890646635  WZ2       247             0.0000000000
      4686      1562  TIP3      H2            -10.9072903985      -33.4601257466      -20.9965346635  WZ2       247             0.0000000000
      4687      1563  TIP3      OH2            -3.8941103985      -31.9116757466       -9.0855246635  WZ2       248             0.0000000000
      4688      1563  TIP3      H1             -4.5467003985      -31.2171157466       -8.9964346635  WZ2       248             0.0000000000
      4689      1563  TIP3      H2             -3.4290803985      -31.7015857466       -9.8953646635  WZ2       248             0.0000000000
      4690      1564  TIP3      OH2            -7.8577303985      -31.0801957466      -16.4273746635  WZ2       249             0.0000000000
      4691      1564  TIP3      H1             -8.5896303985      -30.8518257466      -15.8543146635  WZ2       249             0.0000000000
      4692      1564  TIP3      H2             -7.4105103985      -31.7939257466      -15.9726246635  WZ2       249             0.0000000000
      4693      1565  TIP3      OH2            -7.9603803985      -32.9059357466       -7.3596746635  WZ2       250             0.0000000000
      4694      1565  TIP3      H1             -7.8804703985      -32.1424957466       -6.7878246635  WZ2       250             0.0000000000
      4695      1565  TIP3      H2             -8.5616103985      -32.6266957466       -8.0501646635  WZ2       250             0.0000000000
      4696      1566  TIP3      OH2           -16.2123603985      -30.4495757466      -14.5448746635  WZ2       251             0.0000000000
      4697      1566  TIP3      H1            -16.5428403985      -30.8202357466      -15.3631746635  WZ2       251             0.0000000000
      4698      1566  TIP3      H2            -15.6239503985      -31.1201757466      -14.1980446635  WZ2       251             0.0000000000
      4699      1567  TIP3      OH2           -14.8456103985      -27.0215157466      -11.8636546635  WZ2       252             0.0000000000
      4700      1567  TIP3      H1            -14.9404803985      -27.6002057466      -12.6201946635  WZ2       252             0.0000000000
      4701      1567  TIP3      H2            -14.1162503985      -27.3929457466      -11.3673746635  WZ2       252             0.0000000000
      4702      1568  TIP3      OH2           -15.8458103985      -31.6810157466      -10.9113746635  WZ2       253             0.0000000000
      4703      1568  TIP3      H1            -15.2805603985      -31.5595957466      -11.6742546635  WZ2       253             0.0000000000
      4704      1568  TIP3      H2            -15.5269203985      -31.0435157466      -10.2725246635  WZ2       253             0.0000000000
      4705      1569  TIP3      OH2            -9.5365903985      -26.1778257466      -10.1773246635  WZ2       254             0.0000000000
      4706      1569  TIP3      H1             -9.7769303985      -25.5155157466       -9.5294046635  WZ2       254             0.0000000000
      4707      1569  TIP3      H2             -9.7347703985      -27.0123057466       -9.7523646635  WZ2       254             0.0000000000
      4708      1570  TIP3      OH2           -14.9657403985      -27.2817457466       -6.1941846635  WZ2       255             0.0000000000
      4709      1570  TIP3      H1            -15.2769903985      -26.4994257466       -5.7388646635  WZ2       255             0.0000000000
      4710      1570  TIP3      H2            -15.6157203985      -27.4348357466       -6.8799846635  WZ2       255             0.0000000000
      4711      1571  TIP3      OH2            -8.9867803985      -31.9179057466      -18.7422546635  WZ2       256             0.0000000000
      4712      1571  TIP3      H1             -8.4072303985      -31.7678757466      -17.9953646635  WZ2       256             0.0000000000
      4713      1571  TIP3      H2             -8.5727803985      -31.4471657466      -19.4656146635  WZ2       256             0.0000000000
      4714      1572  TIP3      OH2           -18.0457503985      -31.0836357466       -6.9656146635  WZ2       257             0.0000000000
      4715      1572  TIP3      H1            -17.9754303985      -30.4329557466       -6.2671146635  WZ2       257             0.0000000000
      4716      1572  TIP3      H2            -18.9365303985      -30.9808857466       -7.3005246635  WZ2       257             0.0000000000
      4717      1573  TIP3      OH2           -11.2602903985      -25.1810557466      -15.3069446635  WZ2       258             0.0000000000
      4718      1573  TIP3      H1            -10.7865303985      -24.8854257466      -14.5295246635  WZ2       258             0.0000000000
      4719      1573  TIP3      H2            -11.8233603985      -24.4428957466      -15.5399846635  WZ2       258             0.0000000000
      4720      1574  TIP3      OH2           -16.7261503985      -25.2102457466       -5.4308046635  WZ2       259             0.0000000000
      4721      1574  TIP3      H1            -16.7186203985      -25.3462757466       -6.3782546635  WZ2       259             0.0000000000
      4722      1574  TIP3      H2            -17.6421103985      -25.3274357466       -5.1788046635  WZ2       259             0.0000000000
      4723      1575  TIP3      OH2           -17.2220903985      -31.3801457466      -16.9555946635  WZ2       261             0.0000000000
      4724      1575  TIP3      H1            -17.5139603985      -30.6119757466      -17.4464646635  WZ2       261             0.0000000000
      4725      1575  TIP3      H2            -17.8965703985      -32.0395257466      -17.1184546635  WZ2       261             0.0000000000
      4726      1576  TIP3      OH2            -4.0988003985      -25.8016257466      -20.5528946635  WZ2       262             0.0000000000
      4727      1576  TIP3      H1             -4.0254503985      -24.8626057466      -20.3823646635  WZ2       262             0.0000000000
      4728      1576  TIP3      H2             -3.1932903985      -26.1067657466      -20.6091646635  WZ2       262             0.0000000000
      4729      1577  TIP3      OH2           -21.1290803985      -29.0172257466       -8.1406146635  WZ2       263             0.0000000000
      4730      1577  TIP3      H1            -21.6302403985      -29.0452857466       -8.9556446635  WZ2       263             0.0000000000
      4731      1577  TIP3      H2            -21.1237103985      -29.9229057466       -7.8308846635  WZ2       263             0.0000000000
      4732      1578  TIP3      OH2           -21.3788103985      -26.2368457466      -11.2565946635  WZ2       264             0.0000000000
      4733      1578  TIP3      H1            -20.4327503985      -26.3811457466      -11.2756446635  WZ2       264             0.0000000000
      4734      1578  TIP3      H2            -21.4911803985      -25.4525657466      -10.7194746635  WZ2       264             0.0000000000
      4735      1579  TIP3      OH2            -3.1809603985      -25.5708757466       -5.5742246635  WZ2       265             0.0000000000
      4736      1579  TIP3      H1             -3.2302803985      -26.5260657466       -5.6114646635  WZ2       265             0.0000000000
      4737      1579  TIP3      H2             -4.0077303985      -25.3033457466       -5.1728446635  WZ2       265             0.0000000000
      4738      1580  TIP3      OH2           -12.2025603985      -25.9969557466       -6.6980846635  WZ2       266             0.0000000000
      4739      1580  TIP3      H1            -12.1151003985      -25.1704957466       -6.2231746635  WZ2       266             0.0000000000
      4740      1580  TIP3      H2            -13.0660503985      -26.3265757466       -6.4491546635  WZ2       266             0.0000000000
      4741      1581  TIP3      OH2           -11.7879803985      -22.2245857466      -16.8920246635  WZ2       267             0.0000000000
      4742      1581  TIP3      H1            -11.8633803985      -22.3458657466      -17.8385046635  WZ2       267             0.0000000000
      4743      1581  TIP3      H2            -11.7551103985      -21.2753157466      -16.7735646635  WZ2       267             0.0000000000
      4744      1582  TIP3      OH2           -18.1346003985      -23.4358857466      -15.1111246635  WZ2       268             0.0000000000
      4745      1582  TIP3      H1            -17.9825603985      -23.7838457466      -14.2324746635  WZ2       268             0.0000000000
      4746      1582  TIP3      H2            -18.9855603985      -23.7921557466      -15.3664046635  WZ2       268             0.0000000000
      4747      1583  TIP3      OH2            -8.6863803985      -23.0705657466      -19.8897846635  WZ2       269             0.0000000000
      4748      1583  TIP3      H1             -8.3115403985      -23.8149557466      -20.3605246635  WZ2       269             0.0000000000
      4749      1583  TIP3      H2             -8.6820103985      -23.3405057466      -18.9714546635  WZ2       269             0.0000000000
      4750      1584  TIP3      OH2            -9.0175703985      -23.1448557466      -17.1405646635  WZ2       270             0.0000000000
      4751      1584  TIP3      H1             -9.9525903985      -23.0446657466      -16.9618646635  WZ2       270             0.0000000000
      4752      1584  TIP3      H2             -8.7373803985      -23.8542557466      -16.5622446635  WZ2       270             0.0000000000
      4753      1585  TIP3      OH2            -6.0289803985      -34.0776257466       -5.0940046635  WZ2       271             0.0000000000
      4754      1585  TIP3      H1             -6.4363003985      -33.5970657466       -5.8146746635  WZ2       271             0.0000000000
      4755      1585  TIP3      H2             -5.9884103985      -34.9830257466       -5.4019246635  WZ2       271             0.0000000000
      4756      1586  TIP3      OH2           -18.8800303985      -27.6936857466       -7.0973346635  WZ2       272             0.0000000000
      4757      1586  TIP3      H1            -18.6639003985      -28.0551257466       -6.2377546635  WZ2       272             0.0000000000
      4758      1586  TIP3      H2            -19.7355603985      -28.0683057466       -7.3069846635  WZ2       272             0.0000000000
      4759      1587  TIP3      OH2            -8.2719603985      -35.7460757466       -6.8737646635  WZ2       275             0.0000000000
      4760      1587  TIP3      H1             -8.7860103985      -35.8718557466       -6.0761646635  WZ2       275             0.0000000000
      4761      1587  TIP3      H2             -8.4274903985      -34.8337657466       -7.1181446635  WZ2       275             0.0000000000
      4762      1588  TIP3      OH2            -7.5094703985      -30.8850757466      -21.1124646635  WZ2       276             0.0000000000
      4763      1588  TIP3      H1             -7.4673903985      -31.1076857466      -22.0424646635  WZ2       276             0.0000000000
      4764      1588  TIP3      H2             -6.6602603985      -30.4863657466      -20.9224746635  WZ2       276             0.0000000000
      4765      1589  TIP3      OH2           -16.1702203985      -34.2581857466      -10.0068946635  WZ2       278             0.0000000000
      4766      1589  TIP3      H1            -16.8120103985      -34.2984557466       -9.2978846635  WZ2       278             0.0000000000
      4767      1589  TIP3      H2            -16.1330203985      -33.3317157466      -10.2445946635  WZ2       278             0.0000000000
      4768      1590  TIP3      OH2           -16.1733103985      -34.0371757466      -15.0948946635  WZ2       279             0.0000000000
      4769      1590  TIP3      H1            -17.0660203985      -34.3775657466      -15.1535146635  WZ2       279             0.0000000000
      4770      1590  TIP3      H2            -15.7226503985      -34.4140857466      -15.8505746635  WZ2       279             0.0000000000
      4771      1591  TIP3      OH2           -10.6377603985      -33.6211457466      -16.2778146635  WZ2       280             0.0000000000
      4772      1591  TIP3      H1            -11.0467303985      -32.8062857466      -16.5693346635  WZ2       280             0.0000000000
      4773      1591  TIP3      H2             -9.9171403985      -33.7611357466      -16.8921046635  WZ2       280             0.0000000000
      4774      1592  TIP3      OH2           -11.5356003985      -33.4455057466       -4.7897446635  WZ2       281             0.0000000000
      4775      1592  TIP3      H1            -12.0982203985      -34.1503457466       -4.4689646635  WZ2       281             0.0000000000
      4776      1592  TIP3      H2            -10.7092603985      -33.5663157466       -4.3219846635  WZ2       281             0.0000000000
      4777      1593  TIP3      OH2            -9.6329903985      -34.1751057466      -13.4638446635  WZ2       282             0.0000000000
      4778      1593  TIP3      H1             -9.8285403985      -33.5694257466      -14.1787846635  WZ2       282             0.0000000000
      4779      1593  TIP3      H2             -9.4517303985      -35.0085857466      -13.8982146635  WZ2       282             0.0000000000
      4780      1594  TIP3      OH2           -18.4201703985      -33.9378357466       -8.1396946635  WZ2       283             0.0000000000
      4781      1594  TIP3      H1            -18.4582303985      -33.5376757466       -7.2709846635  WZ2       283             0.0000000000
      4782      1594  TIP3      H2            -18.9110603985      -34.7545957466       -8.0494046635  WZ2       283             0.0000000000
      4783      1595  TIP3      OH2           -15.0544303985      -36.5636057466      -21.3410946635  WZ2       284             0.0000000000
      4784      1595  TIP3      H1            -15.4853603985      -37.0085957466      -20.6113546635  WZ2       284             0.0000000000
      4785      1595  TIP3      H2            -15.7725603985      -36.1919757466      -21.8533446635  WZ2       284             0.0000000000
      4786      1596  TIP3      OH2           -10.3690703985      -32.5369757466       -8.7926046635  WZ2       287             0.0000000000
      4787      1596  TIP3      H1            -10.0455903985      -33.1680057466       -9.4355546635  WZ2       287             0.0000000000
      4788      1596  TIP3      H2            -10.8091403985      -33.0717557466       -8.1318646635  WZ2       287             0.0000000000
      4789      1597  TIP3      OH2           -13.5917803985      -36.6094257466      -14.0084846635  WZ2       288             0.0000000000
      4790      1597  TIP3      H1            -14.5026703985      -36.5527457466      -13.7198846635  WZ2       288             0.0000000000
      4791      1597  TIP3      H2            -13.0864903985      -36.6698757466      -13.1977646635  WZ2       288             0.0000000000
      4792      1598  TIP3      OH2           -18.7634403985      -34.9807957466      -15.1817246635  WZ2       289             0.0000000000
      4793      1598  TIP3      H1            -19.6526403985      -34.8812457466      -15.5217646635  WZ2       289             0.0000000000
      4794      1598  TIP3      H2            -18.4669503985      -35.8224957466      -15.5279346635  WZ2       289             0.0000000000
      4795      1599  TIP3      OH2           -15.1102603985      -34.9805357466      -17.5252646635  WZ2       290             0.0000000000
      4796      1599  TIP3      H1            -14.1787103985      -34.8515357466      -17.3469546635  WZ2       290             0.0000000000
      4797      1599  TIP3      H2            -15.3252303985      -34.3111057466      -18.1747946635  WZ2       290             0.0000000000
      4798      1600  TIP3      OH2           -16.4362403985      -33.7863157466      -19.9586546635  WZ2       292             0.0000000000
      4799      1600  TIP3      H1            -16.9787303985      -34.1659357466      -20.6498946635  WZ2       292             0.0000000000
      4800      1600  TIP3      H2            -15.6027503985      -33.5918457466      -20.3872446635  WZ2       292             0.0000000000
      4801      1601  TIP3      OH2            -5.8990803985      -21.7032557466       -4.4675446635  WZ2       293             0.0000000000
      4802      1601  TIP3      H1             -5.6992103985      -21.2790657466       -5.3020146635  WZ2       293             0.0000000000
      4803      1601  TIP3      H2             -5.2437103985      -21.3594357466       -3.8605046635  WZ2       293             0.0000000000
      4804      1602  TIP3      OH2           -18.3011003985      -29.2291257466       -4.8594946635  WZ2       294             0.0000000000
      4805      1602  TIP3      H1            -17.5688603985      -28.9745357466       -4.2980446635  WZ2       294             0.0000000000
      4806      1602  TIP3      H2            -19.0812303985      -29.0245857466       -4.3439546635  WZ2       294             0.0000000000
      4807      1603  TIP3      OH2           -12.2718103985      -33.8221257466      -12.1215246635  WZ2       295             0.0000000000
      4808      1603  TIP3      H1            -11.7074703985      -34.3684657466      -12.6685646635  WZ2       295             0.0000000000
      4809      1603  TIP3      H2            -12.4194703985      -34.3439357466      -11.3327646635  WZ2       295             0.0000000000
      4810      1604  TIP3      OH2           -13.6452203985      -35.4335157466       -9.7074846635  WZ2       297             0.0000000000
      4811      1604  TIP3      H1            -14.4806903985      -34.9795657466       -9.5972446635  WZ2       297             0.0000000000
      4812      1604  TIP3      H2            -13.1211603985      -35.1576657466       -8.9554946635  WZ2       297             0.0000000000
      4813      1605  TIP3      OH2           -13.1009603985      -29.2207457466      -18.0228446635  WZ2       298             0.0000000000
      4814      1605  TIP3      H1            -13.8458603985      -29.7282157466      -18.3450546635  WZ2       298             0.0000000000
      4815      1605  TIP3      H2            -13.2352403985      -29.1719457466      -17.0763646635  WZ2       298             0.0000000000
      4816      1606  TIP3      OH2            -5.9510703985      -30.0879257466       -9.2360846635  WZ2       299             0.0000000000
      4817      1606  TIP3      H1             -5.3091903985      -29.6312957466       -9.7798646635  WZ2       299             0.0000000000
      4818      1606  TIP3      H2             -6.7813803985      -29.9746857466       -9.6986746635  WZ2       299             0.0000000000
      4819      1607  TIP3      OH2            -9.2032803985      -36.4067557466      -19.8235846635  WZ2       300             0.0000000000
      4820      1607  TIP3      H1            -10.1418603985      -36.2951957466      -19.9747046635  WZ2       300             0.0000000000
      4821      1607  TIP3      H2             -8.9060703985      -35.5500657466      -19.5170146635  WZ2       300             0.0000000000
      4822      1608  TIP3      OH2           -11.5817503985      -29.0364157466       -6.7859346635  WZ2       301             0.0000000000
      4823      1608  TIP3      H1            -11.9271403985      -29.4181757466       -5.9789746635  WZ2       301             0.0000000000
      4824      1608  TIP3      H2            -11.7817403985      -28.1030557466       -6.7146446635  WZ2       301             0.0000000000
      4825      1609  TIP3      OH2            -8.4849303985      -34.5394857466      -18.1628446635  WZ2       302             0.0000000000
      4826      1609  TIP3      H1             -7.5930303985      -34.6769857466      -17.8437246635  WZ2       302             0.0000000000
      4827      1609  TIP3      H2             -8.4285703985      -33.7488757466      -18.6994946635  WZ2       302             0.0000000000
      4828      1610  TIP3      OH2           -17.9761303985      -29.9257457466      -12.2530546635  WZ2       303             0.0000000000
      4829      1610  TIP3      H1            -17.2314103985      -29.9281757466      -12.8544046635  WZ2       303             0.0000000000
      4830      1610  TIP3      H2            -17.8984703985      -30.7493657466      -11.7715446635  WZ2       303             0.0000000000
      4831      1611  TIP3      OH2           -10.9755503985      -27.7623157466      -18.9973846635  WZ2       304             0.0000000000
      4832      1611  TIP3      H1            -11.2707103985      -26.9355257466      -18.6159046635  WZ2       304             0.0000000000
      4833      1611  TIP3      H2            -11.6785503985      -28.3816257466      -18.8012446635  WZ2       304             0.0000000000
      4834      1612  TIP3      OH2           -20.9681603985      -31.4650557466       -6.9382046635  WZ2       305             0.0000000000
      4835      1612  TIP3      H1            -20.7453003985      -31.8830957466       -6.1064546635  WZ2       305             0.0000000000
      4836      1612  TIP3      H2            -21.5701503985      -32.0775557466       -7.3609246635  WZ2       305             0.0000000000
      4837      1613  TIP3      OH2           -13.9516703985      -31.9480657466       -4.7252346635  WZ2       306             0.0000000000
      4838      1613  TIP3      H1            -14.2475903985      -32.1137657466       -5.6203246635  WZ2       306             0.0000000000
      4839      1613  TIP3      H2            -13.0201503985      -32.1680357466       -4.7358446635  WZ2       306             0.0000000000
      4840      1614  TIP3      OH2            -9.3313903985      -26.5748657466       -6.8354346635  WZ2       307             0.0000000000
      4841      1614  TIP3      H1            -10.2319603985      -26.3916057466       -7.1030446635  WZ2       307             0.0000000000
      4842      1614  TIP3      H2             -9.2972803985      -26.3159357466       -5.9145546635  WZ2       307             0.0000000000
      4843      1615  TIP3      OH2            -3.6000603985      -34.3300757466      -18.4681746635  WZ2       308             0.0000000000
      4844      1615  TIP3      H1             -4.1544303985      -34.7262757466      -19.1404246635  WZ2       308             0.0000000000
      4845      1615  TIP3      H2             -3.4997003985      -33.4195557466      -18.7458446635  WZ2       308             0.0000000000
      4846      1616  TIP3      OH2            -3.6368603985      -28.5299057466       -5.6310246635  WZ2       309             0.0000000000
      4847      1616  TIP3      H1             -4.4880103985      -28.2915257466       -5.9983846635  WZ2       309             0.0000000000
      4848      1616  TIP3      H2             -3.0465203985      -28.5465857466       -6.3843146635  WZ2       309             0.0000000000
      4849      1617  TIP3      OH2            -5.3048903985      -25.5440357466      -18.0029646635  WZ2       310             0.0000000000
      4850      1617  TIP3      H1             -5.6777803985      -26.3696557466      -17.6939046635  WZ2       310             0.0000000000
      4851      1617  TIP3      H2             -5.0275403985      -25.7270957466      -18.9006246635  WZ2       310             0.0000000000
      4852      1618  TIP3      OH2            -8.1445003985      -30.7360857466      -10.9817746635  WZ2       311             0.0000000000
      4853      1618  TIP3      H1             -9.0728103985      -30.9678957466      -11.0088446635  WZ2       311             0.0000000000
      4854      1618  TIP3      H2             -7.6933903985      -31.5131057466      -11.3118946635  WZ2       311             0.0000000000
      4855      1619  TIP3      OH2           -15.6011903985      -26.4079257466      -14.8489046635  WZ2       312             0.0000000000
      4856      1619  TIP3      H1            -15.0739703985      -25.6344857466      -15.0490246635  WZ2       312             0.0000000000
      4857      1619  TIP3      H2            -16.4813403985      -26.1830057466      -15.1505046635  WZ2       312             0.0000000000
      4858      1620  TIP3      OH2           -19.8464203985      -31.5455157466      -20.2616646635  WZ2       313             0.0000000000
      4859      1620  TIP3      H1            -19.2304303985      -30.9187957466      -19.8821846635  WZ2       313             0.0000000000
      4860      1620  TIP3      H2            -20.7081603985      -31.2295357466      -19.9900146635  WZ2       313             0.0000000000
      4861      1621  TIP3      OH2           -14.1739603985      -28.7449357466      -15.2724746635  WZ2       314             0.0000000000
      4862      1621  TIP3      H1            -14.4149603985      -27.8194957466      -15.2309446635  WZ2       314             0.0000000000
      4863      1621  TIP3      H2            -14.9146003985      -29.2038057466      -14.8760846635  WZ2       314             0.0000000000
      4864      1622  TIP3      OH2           -13.6593003985      -24.5955757466       -8.9573646635  WZ2       315             0.0000000000
      4865      1622  TIP3      H1            -13.2968303985      -23.7410157466       -9.1909246635  WZ2       315             0.0000000000
      4866      1622  TIP3      H2            -13.1277803985      -24.8874157466       -8.2167346635  WZ2       315             0.0000000000
      4867      1623  TIP3      OH2           -15.4908803985      -23.7231757466      -15.7272546635  WZ2       316             0.0000000000
      4868      1623  TIP3      H1            -16.4408303985      -23.6174357466      -15.6759246635  WZ2       316             0.0000000000
      4869      1623  TIP3      H2            -15.1390703985      -22.9024357466      -15.3825046635  WZ2       316             0.0000000000
      4870      1624  TIP3      OH2           -10.1152203985      -28.4965057466       -9.2568046635  WZ2       317             0.0000000000
      4871      1624  TIP3      H1            -10.5410903985      -28.7243357466       -8.4304046635  WZ2       317             0.0000000000
      4872      1624  TIP3      H2             -9.5346403985      -29.2353257466       -9.4392746635  WZ2       317             0.0000000000
      4873      1625  TIP3      OH2            -7.9123303985      -27.5674557466      -20.1829046635  WZ2       318             0.0000000000
      4874      1625  TIP3      H1             -7.5590203985      -27.9474757466      -19.3785546635  WZ2       318             0.0000000000
      4875      1625  TIP3      H2             -8.8609803985      -27.6609757466      -20.0959746635  WZ2       318             0.0000000000
      4876      1626  TIP3      OH2            -7.4568003985      -23.9445557466       -6.7873246635  WZ2       319             0.0000000000
      4877      1626  TIP3      H1             -8.0584803985      -24.5002657466       -7.2826946635  WZ2       319             0.0000000000
      4878      1626  TIP3      H2             -7.1754303985      -23.2775757466       -7.4135846635  WZ2       319             0.0000000000
      4879      1627  TIP3      OH2            -3.4088903985      -23.0882057466      -19.9818846635  WZ2       320             0.0000000000
      4880      1627  TIP3      H1             -2.6651003985      -22.5021557466      -20.1217246635  WZ2       320             0.0000000000
      4881      1627  TIP3      H2             -4.1030803985      -22.5196257466      -19.6486446635  WZ2       320             0.0000000000
      4882      1628  TIP3      OH2           -19.3342103985      -36.7117857466       -7.3800646635  WZ2       321             0.0000000000
      4883      1628  TIP3      H1            -20.2269803985      -36.3732457466       -7.4476646635  WZ2       321             0.0000000000
      4884      1628  TIP3      H2            -19.4329303985      -37.5671757466       -6.9619846635  WZ2       321             0.0000000000
      4885      1629  TIP3      OH2            -7.0464003985      -28.8952557466      -17.9561146635  WZ2       322             0.0000000000
      4886      1629  TIP3      H1             -7.3236403985      -29.6233257466      -17.4000046635  WZ2       322             0.0000000000
      4887      1629  TIP3      H2             -6.1191003985      -28.7760557466      -17.7508546635  WZ2       322             0.0000000000
      4888      1630  TIP3      OH2           -19.6830103985      -24.9073457466       -8.9451246635  WZ2       323             0.0000000000
      4889      1630  TIP3      H1            -19.4659803985      -25.8391057466       -8.9761546635  WZ2       323             0.0000000000
      4890      1630  TIP3      H2            -19.4366603985      -24.6328457466       -8.0618446635  WZ2       323             0.0000000000
      4891      1631  TIP3      OH2           -13.8215503985      -26.4558457466      -21.7359046635  WZ2       324             0.0000000000
      4892      1631  TIP3      H1            -13.5825703985      -27.2040357466      -22.2830146635  WZ2       324             0.0000000000
      4893      1631  TIP3      H2            -14.0904203985      -26.8436757466      -20.9031246635  WZ2       324             0.0000000000
      4894      1632  TIP3      OH2           -14.8844903985      -26.8854657466      -19.2796446635  WZ2       325             0.0000000000
      4895      1632  TIP3      H1            -14.7376903985      -27.4054857466      -18.4895546635  WZ2       325             0.0000000000
      4896      1632  TIP3      H2            -14.8873203985      -25.9787057466      -18.9730546635  WZ2       325             0.0000000000
      4897      1633  TIP3      OH2           -18.4313803985      -29.6331357466      -18.7691046635  WZ2       326             0.0000000000
      4898      1633  TIP3      H1            -19.1174503985      -29.2808857466      -18.2021346635  WZ2       326             0.0000000000
      4899      1633  TIP3      H2            -17.9085903985      -28.8701757466      -19.0156746635  WZ2       326             0.0000000000
      4900      1634  TIP3      OH2           -12.1467703985      -25.1881057466      -18.5302246635  WZ2       329             0.0000000000
      4901      1634  TIP3      H1            -12.9631603985      -24.6911357466      -18.4777946635  WZ2       329             0.0000000000
      4902      1634  TIP3      H2            -11.6171403985      -24.7127557466      -19.1703446635  WZ2       329             0.0000000000
      4903      1635  TIP3      OH2           -12.6153903985      -35.5907057466      -16.5581346635  WZ2       330             0.0000000000
      4904      1635  TIP3      H1            -11.8031303985      -35.0863857466      -16.5119646635  WZ2       330             0.0000000000
      4905      1635  TIP3      H2            -12.8600903985      -35.7357357466      -15.6441746635  WZ2       330             0.0000000000
      4906      1636  TIP3      OH2           -12.0797503985      -34.6044357466       -7.3734746635  WZ2       331             0.0000000000
      4907      1636  TIP3      H1            -11.9607203985      -34.0308957466       -6.6164346635  WZ2       331             0.0000000000
      4908      1636  TIP3      H2            -11.4242903985      -35.2924957466       -7.2586946635  WZ2       331             0.0000000000
      4909      1637  TIP3      OH2           -14.8084603985      -24.1443857466      -18.5485346635  WZ2       333             0.0000000000
      4910      1637  TIP3      H1            -14.6475903985      -23.3446357466      -19.0492746635  WZ2       333             0.0000000000
      4911      1637  TIP3      H2            -15.0056803985      -23.8377857466      -17.6634746635  WZ2       333             0.0000000000
      4912      1638  TIP3      OH2            -5.8751703985      -36.6974057466       -6.5385046635  WZ2       335             0.0000000000
      4913      1638  TIP3      H1             -6.7915903985      -36.4352357466       -6.6261346635  WZ2       335             0.0000000000
      4914      1638  TIP3      H2             -5.5396703985      -36.7005057466       -7.4349746635  WZ2       335             0.0000000000
      4915      1639  TIP3      OH2            -7.2730703985      -32.9473057466      -12.4427746635  WZ2       336             0.0000000000
      4916      1639  TIP3      H1             -8.0706303985      -33.3622857466      -12.7712746635  WZ2       336             0.0000000000
      4917      1639  TIP3      H2             -6.8279603985      -33.6379357466      -11.9517246635  WZ2       336             0.0000000000
      4918      1640  TIP3      OH2           -17.8154903985      -27.0192457466      -19.8723246635  WZ2       337             0.0000000000
      4919      1640  TIP3      H1            -17.2233403985      -26.3197657466      -19.5960846635  WZ2       337             0.0000000000
      4920      1640  TIP3      H2            -17.3561903985      -27.4522957466      -20.5918646635  WZ2       337             0.0000000000
      4921      1641  TIP3      OH2            -6.1866103985      -23.6910557466      -10.8204246635  WZ2       339             0.0000000000
      4922      1641  TIP3      H1             -6.3421803985      -23.0126157466      -11.4774946635  WZ2       339             0.0000000000
      4923      1641  TIP3      H2             -5.2539703985      -23.6191257466      -10.6173646635  WZ2       339             0.0000000000
      4924      1642  TIP3      OH2           -19.7610403985      -25.6325757466      -15.9227046635  WZ2       341             0.0000000000
      4925      1642  TIP3      H1            -20.5931803985      -25.1603057466      -15.8955646635  WZ2       341             0.0000000000
      4926      1642  TIP3      H2            -19.2152103985      -25.1228157466      -16.5213946635  WZ2       341             0.0000000000
      4927      1643  TIP3      OH2           -20.4726703985      -23.0202057466       -4.5929046635  WZ2       342             0.0000000000
      4928      1643  TIP3      H1            -19.9324503985      -23.2368057466       -3.8329846635  WZ2       342             0.0000000000
      4929      1643  TIP3      H2            -20.9538703985      -23.8256057466       -4.7826546635  WZ2       342             0.0000000000
      4930      1644  TIP3      OH2           -15.8753303985      -24.1007657466       -2.9724846635  WZ2       343             0.0000000000
      4931      1644  TIP3      H1            -15.1076103985      -24.5596857466       -2.6315646635  WZ2       343             0.0000000000
      4932      1644  TIP3      H2            -15.8967103985      -24.3267857466       -3.9023646635  WZ2       343             0.0000000000
      4933      1645  TIP3      OH2           -11.7833703985      -24.5927057466      -21.5973046635  WZ2       344             0.0000000000
      4934      1645  TIP3      H1            -12.4272703985      -25.2238457466      -21.2759346635  WZ2       344             0.0000000000
      4935      1645  TIP3      H2            -11.0215403985      -25.1239057466      -21.8289546635  WZ2       344             0.0000000000
      4936      1646  TIP3      OH2            -9.2984603985      -25.7206557466       -4.2433346635  WZ2       345             0.0000000000
      4937      1646  TIP3      H1             -9.6495103985      -26.5773557466       -4.0002946635  WZ2       345             0.0000000000
      4938      1646  TIP3      H2             -8.5721403985      -25.5779857466       -3.6364346635  WZ2       345             0.0000000000
      4939      1647  TIP3      OH2            -7.1790803985      -24.7757157466      -21.3635046635  WZ2       346             0.0000000000
      4940      1647  TIP3      H1             -6.8960403985      -25.5701957466      -20.9108146635  WZ2       346             0.0000000000
      4941      1647  TIP3      H2             -6.4392903985      -24.5426157466      -21.9243946635  WZ2       346             0.0000000000
      4942      1648  TIP3      OH2           -20.5657203985      -29.2097957466       -3.6384746635  WZ2       347             0.0000000000
      4943      1648  TIP3      H1            -20.4216703985      -30.1117257466       -3.9248046635  WZ2       347             0.0000000000
      4944      1648  TIP3      H2            -21.3379803985      -28.9235857466       -4.1262446635  WZ2       347             0.0000000000
      4945      1649  TIP3      OH2           -16.2243503985      -28.8662257466      -21.5060146635  WZ2       348             0.0000000000
      4946      1649  TIP3      H1            -16.1599403985      -29.6602657466      -20.9753746635  WZ2       348             0.0000000000
      4947      1649  TIP3      H2            -15.5714303985      -28.9849457466      -22.1958146635  WZ2       348             0.0000000000
      4948      1650  TIP3      OH2           -13.9101103985      -29.2399857466       -4.2058346635  WZ2       349             0.0000000000
      4949      1650  TIP3      H1            -14.2387303985      -28.9691757466       -5.0630946635  WZ2       349             0.0000000000
      4950      1650  TIP3      H2            -13.7582903985      -30.1810057466       -4.2933346635  WZ2       349             0.0000000000
      4951      1651  TIP3      OH2           -10.8720103985      -27.8190557466      -21.7702146635  WZ2       350             0.0000000000
      4952      1651  TIP3      H1            -11.1406003985      -27.6388457466      -20.8693246635  WZ2       350             0.0000000000
      4953      1651  TIP3      H2            -11.0784503985      -28.7444357466      -21.9016346635  WZ2       350             0.0000000000
      4954      1652  TIP3      OH2            -8.1755903985      -29.3242557466       -6.8226046635  WZ2       351             0.0000000000
      4955      1652  TIP3      H1             -7.4301103985      -28.7358857466       -6.9422046635  WZ2       351             0.0000000000
      4956      1652  TIP3      H2             -8.9329103985      -28.7422857466       -6.7592946635  WZ2       351             0.0000000000
      4957      1653  TIP3      OH2           -19.7330703985      -32.0094657466       -4.2185446635  WZ2       352             0.0000000000
      4958      1653  TIP3      H1            -19.3249503985      -32.8668057466       -4.3394846635  WZ2       352             0.0000000000
      4959      1653  TIP3      H2            -19.9933103985      -31.9953357466       -3.2975146635  WZ2       352             0.0000000000
      4960      1654  TIP3      OH2           -15.0749703985      -30.8936057466      -19.2002146635  WZ2       353             0.0000000000
      4961      1654  TIP3      H1            -15.5347703985      -31.3777757466      -18.5143646635  WZ2       353             0.0000000000
      4962      1654  TIP3      H2            -14.8201003985      -31.5620657466      -19.8361646635  WZ2       353             0.0000000000
      4963      1655  TIP3      OH2           -15.7860403985      -33.0008957466       -6.8442546635  WZ2       354             0.0000000000
      4964      1655  TIP3      H1            -16.4044303985      -32.3262357466       -6.5637846635  WZ2       354             0.0000000000
      4965      1655  TIP3      H2            -15.4419203985      -32.6795057466       -7.6776346635  WZ2       354             0.0000000000
      4966      1656  TIP3      OH2           -14.0039303985      -32.6504257466      -20.9378946635  WZ2       355             0.0000000000
      4967      1656  TIP3      H1            -14.1844303985      -32.8053057466      -21.8650646635  WZ2       355             0.0000000000
      4968      1656  TIP3      H2            -13.0538803985      -32.5425557466      -20.8931046635  WZ2       355             0.0000000000
      4969      1657  TIP3      OH2           -10.7662203985      -30.5293657466       -3.5667746635  WZ2       356             0.0000000000
      4970      1657  TIP3      H1             -9.8131003985      -30.4454557466       -3.5941746635  WZ2       356             0.0000000000
      4971      1657  TIP3      H2            -10.9267603985      -31.2411857466       -2.9472846635  WZ2       356             0.0000000000
      4972      1658  TIP3      OH2            -4.6141003985      -30.2960057466      -21.4920846635  WZ2       357             0.0000000000
      4973      1658  TIP3      H1             -4.8876203985      -30.7204557466      -22.3052546635  WZ2       357             0.0000000000
      4974      1658  TIP3      H2             -4.5746903985      -29.3645557466      -21.7090446635  WZ2       357             0.0000000000
      4975      1659  TIP3      OH2           -15.4466703985      -35.6458157466       -5.7619446635  WZ2       358             0.0000000000
      4976      1659  TIP3      H1            -15.2965803985      -36.3746857466       -6.3639746635  WZ2       358             0.0000000000
      4977      1659  TIP3      H2            -15.4444303985      -34.8686457466       -6.3207246635  WZ2       358             0.0000000000
      4978      1660  TIP3      OH2           -13.4522603985      -31.8366157466       -8.0296846635  WZ2       360             0.0000000000
      4979      1660  TIP3      H1            -12.7017803985      -31.9928657466       -8.6029046635  WZ2       360             0.0000000000
      4980      1660  TIP3      H2            -13.7914303985      -30.9849557466       -8.3051346635  WZ2       360             0.0000000000
      4981      1661  TIP3      OH2            -9.0366403985      -34.0214357466       -3.0011546635  WZ2       361             0.0000000000
      4982      1661  TIP3      H1             -8.8445103985      -34.9524957466       -3.1127046635  WZ2       361             0.0000000000
      4983      1661  TIP3      H2             -8.1790103985      -33.5964857466       -3.0116146635  WZ2       361             0.0000000000
      4984      1662  TIP3      OH2            -7.7199203985      -31.2329157466       -4.9238846635  WZ2       362             0.0000000000
      4985      1662  TIP3      H1             -8.0014203985      -30.5234557466       -5.5015046635  WZ2       362             0.0000000000
      4986      1662  TIP3      H2             -6.7774903985      -31.3056157466       -5.0747646635  WZ2       362             0.0000000000
      4987      1663  TIP3      OH2           -16.9680403985      -34.4474657466       -3.8503846635  WZ2       363             0.0000000000
      4988      1663  TIP3      H1            -17.7351403985      -34.9799857466       -4.0606246635  WZ2       363             0.0000000000
      4989      1663  TIP3      H2            -16.2891403985      -34.7574257466       -4.4497546635  WZ2       363             0.0000000000
      4990      1664  TIP3      OH2           -12.9645003985      -35.4981257466       -4.2740046635  WZ2       365             0.0000000000
      4991      1664  TIP3      H1            -13.1999603985      -35.7174557466       -3.3725146635  WZ2       365             0.0000000000
      4992      1664  TIP3      H2            -13.7478103985      -35.7050057466       -4.7837546635  WZ2       365             0.0000000000
      4993      1665  TIP3      OH2           -10.2488403985      -36.3707757466       -5.1986546635  WZ2       366             0.0000000000
      4994      1665  TIP3      H1            -11.1963003985      -36.3388057466       -5.0663246635  WZ2       366             0.0000000000
      4995      1665  TIP3      H2             -9.9361703985      -36.9960657466       -4.5448346635  WZ2       366             0.0000000000
      4996      1666  TIP3      OH2           -18.7877603985      -36.5270857466       -4.1459146635  WZ2       368             0.0000000000
      4997      1666  TIP3      H1            -18.5760203985      -37.2334757466       -4.7561646635  WZ2       368             0.0000000000
      4998      1666  TIP3      H2            -18.8990103985      -36.9644857466       -3.3017946635  WZ2       368             0.0000000000
      4999      1667  TIP3      OH2           -14.1067603985      -21.9600557466      -19.9365346635  WZ2       371             0.0000000000
      5000      1667  TIP3      H1            -13.1736903985      -21.8021857466      -19.7926946635  WZ2       371             0.0000000000
      5001      1667  TIP3      H2            -14.3708803985      -21.2847557466      -20.5613846635  WZ2       371             0.0000000000
      5002      1668  TIP3      OH2           -20.5382703985      -27.3236757466      -20.4537246635  WZ2       372             0.0000000000
      5003      1668  TIP3      H1            -19.6243503985      -27.2447857466      -20.1803346635  WZ2       372             0.0000000000
      5004      1668  TIP3      H2            -20.5309603985      -28.0107157466      -21.1201646635  WZ2       372             0.0000000000
      5005      1669  TIP3      OH2           -21.8892103985      -21.9308257466      -15.3763346635  WZ2       373             0.0000000000
      5006      1669  TIP3      H1            -22.5365003985      -22.3926557466      -15.9092146635  WZ2       373             0.0000000000
      5007      1669  TIP3      H2            -21.5347503985      -22.6024957466      -14.7937146635  WZ2       373             0.0000000000
      5008      1670  TIP3      OH2           -21.0192903985      -23.8501257466      -13.5717146635  WZ2       374             0.0000000000
      5009      1670  TIP3      H1            -21.3536103985      -24.7303957466      -13.3996946635  WZ2       374             0.0000000000
      5010      1670  TIP3      H2            -20.7970503985      -23.5046257466      -12.7071546635  WZ2       374             0.0000000000
      5011      1671  TIP3      OH2            -3.4708103985      -23.0404857466      -10.5912346635  WZ2       375             0.0000000000
      5012      1671  TIP3      H1             -3.4921403985      -22.8556457466       -9.6522946635  WZ2       375             0.0000000000
      5013      1671  TIP3      H2             -2.7801903985      -22.4720857466      -10.9320946635  WZ2       375             0.0000000000
      5014      1672  TIP3      OH2            -3.9075203985      -23.4733757466       -7.6693246635  WZ2       376             0.0000000000
      5015      1672  TIP3      H1             -4.3946503985      -24.2089657466       -8.0405846635  WZ2       376             0.0000000000
      5016      1672  TIP3      H2             -3.3582503985      -23.8669857466       -6.9913846635  WZ2       376             0.0000000000
      5017      1673  TIP3      OH2            -5.4567903985      -27.6835657466       -3.0312946635  WZ2       377             0.0000000000
      5018      1673  TIP3      H1             -6.3226803985      -27.7885957466       -2.6370646635  WZ2       377             0.0000000000
      5019      1673  TIP3      H2             -5.0802003985      -26.9252357466       -2.5848246635  WZ2       377             0.0000000000
      5020      1674  TIP3      OH2            -4.1558203985      -29.4271957466      -17.5170446635  WZ2       378             0.0000000000
      5021      1674  TIP3      H1             -3.3056803985      -29.0061057466      -17.3898846635  WZ2       378             0.0000000000
      5022      1674  TIP3      H2             -4.1503103985      -30.1671857466      -16.9099046635  WZ2       378             0.0000000000
      5023      1675  TIP3      OH2            -3.7612603985      -31.3734557466      -15.6934746635  WZ2       379             0.0000000000
      5024      1675  TIP3      H1             -4.4878003985      -31.8531957466      -15.2957146635  WZ2       379             0.0000000000
      5025      1675  TIP3      H2             -3.1799303985      -31.1679857466      -14.9613146635  WZ2       379             0.0000000000
      5026      1676  TIP3      OH2            -4.0021403985      -28.5887057466      -10.7457146635  WZ2       380             0.0000000000
      5027      1676  TIP3      H1             -3.1687203985      -28.9667057466      -11.0263546635  WZ2       380             0.0000000000
      5028      1676  TIP3      H2             -3.8901103985      -27.6455857466      -10.8648046635  WZ2       380             0.0000000000
      5029      1677  TIP3      OH2            -5.5159103985      -25.7109557466       -8.4388746635  WZ2       381             0.0000000000
      5030      1677  TIP3      H1             -6.1633803985      -25.3858057466       -7.8133546635  WZ2       381             0.0000000000
      5031      1677  TIP3      H2             -6.0335103985      -26.1511857466       -9.1130446635  WZ2       381             0.0000000000
      5032      1678  TIP3      OH2            -3.4929503985      -31.4726057466      -19.3023446635  WZ2       382             0.0000000000
      5033      1678  TIP3      H1             -4.0148403985      -31.1161957466      -20.0212546635  WZ2       382             0.0000000000
      5034      1678  TIP3      H2             -3.5260303985      -30.7978257466      -18.6242546635  WZ2       382             0.0000000000
      5035      1679  TIP3      OH2            -5.1440503985      -34.2330457466      -20.7516346635  WZ2       383             0.0000000000
      5036      1679  TIP3      H1             -5.0476103985      -33.5663457466      -21.4316646635  WZ2       383             0.0000000000
      5037      1679  TIP3      H2             -5.2840903985      -35.0484157466      -21.2330846635  WZ2       383             0.0000000000
      5038      1680  TIP3      OH2            -5.9745803985      -32.8528057466      -15.1306046635  WZ2       384             0.0000000000
      5039      1680  TIP3      H1             -6.1247003985      -33.7979457466      -15.1508246635  WZ2       384             0.0000000000
      5040      1680  TIP3      H2             -6.3281303985      -32.5716657466      -14.2866946635  WZ2       384             0.0000000000
      5041      1681  TIP3      OH2           -20.9393403985      -30.7745857466      -11.1202246635  WZ2       385             0.0000000000
      5042      1681  TIP3      H1            -20.7550503985      -30.8564157466      -12.0559346635  WZ2       385             0.0000000000
      5043      1681  TIP3      H2            -20.0900503985      -30.8988857466      -10.6965846635  WZ2       385             0.0000000000
      5044      1682  TIP3      OH2            -5.1182903985      -30.8824757466       -5.4917746635  WZ2       386             0.0000000000
      5045      1682  TIP3      H1             -4.5355603985      -31.6172457466       -5.3000546635  WZ2       386             0.0000000000
      5046      1682  TIP3      H2             -4.5543603985      -30.1104457466       -5.4451946635  WZ2       386             0.0000000000
      5047      1683  TIP3      OH2            -3.6215803985      -32.9798957466       -4.8072346635  WZ2       387             0.0000000000
      5048      1683  TIP3      H1             -4.4849103985      -33.3586857466       -4.9727646635  WZ2       387             0.0000000000
      5049      1683  TIP3      H2             -3.0172103985      -33.7184157466       -4.8816546635  WZ2       387             0.0000000000
      5050      1684  TIP3      OH2            -6.2641003985      -35.2702257466      -16.6680946635  WZ2       389             0.0000000000
      5051      1684  TIP3      H1             -5.9843903985      -36.1771857466      -16.5439246635  WZ2       389             0.0000000000
      5052      1684  TIP3      H2             -5.5049303985      -34.8360757466      -17.0571746635  WZ2       389             0.0000000000
      5053      1685  TIP3      OH2            -5.6522703985      -34.6884857466      -11.2322046635  WZ2       390             0.0000000000
      5054      1685  TIP3      H1             -4.7194703985      -34.4764957466      -11.2666046635  WZ2       390             0.0000000000
      5055      1685  TIP3      H2             -5.8875203985      -34.5872757466      -10.3099046635  WZ2       390             0.0000000000
      5056      1686  TIP3      OH2            -5.6230803985      -33.9519557466       -8.4562646635  WZ2       391             0.0000000000
      5057      1686  TIP3      H1             -6.4659503985      -33.6839157466       -8.0902846635  WZ2       391             0.0000000000
      5058      1686  TIP3      H2             -5.1806503985      -33.1297657466       -8.6671546635  WZ2       391             0.0000000000
      5059      1687  TIP3      OH2           -21.3418603985      -35.5040857466       -4.9793446635  WZ2       392             0.0000000000
      5060      1687  TIP3      H1            -20.4223703985      -35.6262557466       -4.7430346635  WZ2       392             0.0000000000
      5061      1687  TIP3      H2            -21.7914103985      -36.2541157466       -4.5899946635  WZ2       392             0.0000000000
      5062      1688  TIP3      OH2           -21.8165803985      -34.1926257466      -11.0190346635  WZ2       396             0.0000000000
      5063      1688  TIP3      H1            -21.3246003985      -34.4135757466      -11.8098346635  WZ2       396             0.0000000000
      5064      1688  TIP3      H2            -21.4544903985      -33.3522857466      -10.7380846635  WZ2       396             0.0000000000
      5065      1689  TIP3      OH2            -6.7322103985      -22.9505457466      -15.0190546635  WZ2       400             0.0000000000
      5066      1689  TIP3      H1             -6.0799203985      -23.2983357466      -15.6271446635  WZ2       400             0.0000000000
      5067      1689  TIP3      H2             -6.2218303985      -22.4622257466      -14.3730846635  WZ2       400             0.0000000000
      5068      1690  TIP3      OH2           -19.3474603985      -26.0214057466       -4.4759646635  WZ2       402             0.0000000000
      5069      1690  TIP3      H1            -20.1682103985      -25.8467557466       -4.9364946635  WZ2       402             0.0000000000
      5070      1690  TIP3      H2            -19.5996803985      -26.0949357466       -3.5555246635  WZ2       402             0.0000000000
      5071      1691  TIP3      OH2           -16.3931703985      -25.0472857466       -8.2175646635  WZ2       403             0.0000000000
      5072      1691  TIP3      H1            -16.8180603985      -24.2374357466       -8.5001046635  WZ2       403             0.0000000000
      5073      1691  TIP3      H2            -15.4888903985      -24.9618757466       -8.5195846635  WZ2       403             0.0000000000
      5074      1692  TIP3      OH2           -12.0820303985      -23.6482857466       -5.2581946635  WZ2       404             0.0000000000
      5075      1692  TIP3      H1            -11.8972803985      -23.9816757466       -4.3801646635  WZ2       404             0.0000000000
      5076      1692  TIP3      H2            -11.2355803985      -23.3384257466       -5.5802746635  WZ2       404             0.0000000000
      5077      1693  TIP3      OH2            -9.7369903985      -22.3623957466       -6.0140546635  WZ2       405             0.0000000000
      5078      1693  TIP3      H1             -9.0601003985      -22.9951657466       -6.2541346635  WZ2       405             0.0000000000
      5079      1693  TIP3      H2             -9.4151103985      -21.9613457466       -5.2067246635  WZ2       405             0.0000000000
      5080      1694  TIP3      OH2           -18.9915003985      -21.7908957466       -8.1700346635  WZ2       407             0.0000000000
      5081      1694  TIP3      H1            -19.7118603985      -21.3507957466       -8.6212646635  WZ2       407             0.0000000000
      5082      1694  TIP3      H2            -19.3571003985      -22.0414257466       -7.3216346635  WZ2       407             0.0000000000
      5083      1695  TIP3      OH2           -16.5242403985      -22.1905057466       -9.1403146635  WZ2       408             0.0000000000
      5084      1695  TIP3      H1            -17.3890203985      -22.1186557466       -8.7363046635  WZ2       408             0.0000000000
      5085      1695  TIP3      H2            -16.5793403985      -21.6437757466       -9.9240646635  WZ2       408             0.0000000000
      5086      1696  TIP3      OH2           -11.8136803985      -22.3026157466       -9.9647146635  WZ2       409             0.0000000000
      5087      1696  TIP3      H1            -12.2702803985      -21.7736457466      -10.6188746635  WZ2       409             0.0000000000
      5088      1696  TIP3      H2            -11.6508803985      -21.6994757466       -9.2394846635  WZ2       409             0.0000000000
      5089      1697  TIP3      OH2            -9.4860503985      -23.4246557466       -9.0196846635  WZ2       410             0.0000000000
      5090      1697  TIP3      H1            -10.3906803985      -23.2596357466       -9.2854746635  WZ2       410             0.0000000000
      5091      1697  TIP3      H2             -9.0571903985      -22.5714357466       -9.0853446635  WZ2       410             0.0000000000
      5092      1698  TIP3      OH2            -6.8818603985      -21.8547457466       -8.7249046635  WZ2       411             0.0000000000
      5093      1698  TIP3      H1             -7.0636603985      -20.9388557466       -8.9354146635  WZ2       411             0.0000000000
      5094      1698  TIP3      H2             -6.7050803985      -22.2650357466       -9.5714446635  WZ2       411             0.0000000000
      5095      1699  TIP3      OH2           -19.5766903985      -23.1676457466      -11.2598546635  WZ2       412             0.0000000000
      5096      1699  TIP3      H1            -19.5950903985      -23.5931357466      -10.4026246635  WZ2       412             0.0000000000
      5097      1699  TIP3      H2            -18.7719003985      -23.4861457466      -11.6686346635  WZ2       412             0.0000000000
      5098      1700  TIP3      OH2           -17.4353803985      -24.4577757466      -12.6048646635  WZ2       413             0.0000000000
      5099      1700  TIP3      H1            -17.6543103985      -25.3740357466      -12.4352646635  WZ2       413             0.0000000000
      5100      1700  TIP3      H2            -16.6111603985      -24.3177357466      -12.1387246635  WZ2       413             0.0000000000
      5101      1701  TIP3      OH2           -14.8981303985      -23.9878457466      -11.7560646635  WZ2       414             0.0000000000
      5102      1701  TIP3      H1            -14.6855603985      -24.8759457466      -12.0429746635  WZ2       414             0.0000000000
      5103      1701  TIP3      H2            -14.8336203985      -24.0220757466      -10.8016646635  WZ2       414             0.0000000000
      5104      1702  TIP3      OH2           -20.3257203985      -23.9437257466      -18.0886246635  WZ2       423             0.0000000000
      5105      1702  TIP3      H1            -21.0107303985      -23.9818357466      -18.7561146635  WZ2       423             0.0000000000
      5106      1702  TIP3      H2            -20.3220003985      -23.0309657466      -17.8004146635  WZ2       423             0.0000000000
      5107      1703  TIP3      OH2           -11.4613703985      -22.7342357466      -19.6910046635  WZ2       426             0.0000000000
      5108      1703  TIP3      H1            -10.5953503985      -22.3674957466      -19.8691846635  WZ2       426             0.0000000000
      5109      1703  TIP3      H2            -11.7080903985      -23.1734357466      -20.5049246635  WZ2       426             0.0000000000
      5110      1704  TIP3      OH2            -4.7524103985      -23.1712057466      -17.0118946635  WZ2       427             0.0000000000
      5111      1704  TIP3      H1             -4.9467003985      -23.9189957466      -17.5769346635  WZ2       427             0.0000000000
      5112      1704  TIP3      H2             -4.7914003985      -22.4131957466      -17.5951046635  WZ2       427             0.0000000000
      5113      1705  TIP3      OH2           -18.5076003985      -23.0236457466      -21.0634146635  WZ2       430             0.0000000000
      5114      1705  TIP3      H1            -18.7751403985      -22.7373557466      -20.1901046635  WZ2       430             0.0000000000
      5115      1705  TIP3      H2            -17.7363403985      -23.5697257466      -20.9111646635  WZ2       430             0.0000000000
      5116      1706  TIP3      OH2            -5.5347903985      -24.4199657466       -4.8617146635  WZ2       432             0.0000000000
      5117      1706  TIP3      H1             -6.3166003985      -24.6061657466       -5.3816546635  WZ2       432             0.0000000000
      5118      1706  TIP3      H2             -5.6068003985      -23.4905357466       -4.6444646635  WZ2       432             0.0000000000
      5119      1707  TIP3      OH2             8.8712496015      -30.5335257466      -14.8309946635  WZ2       433             0.0000000000
      5120      1707  TIP3      H1              8.9603596015      -29.5897057466      -14.9632846635  WZ2       433             0.0000000000
      5121      1707  TIP3      H2              8.2330096015      -30.8088857466      -15.4890546635  WZ2       433             0.0000000000
      5122      1708  TIP3      OH2             7.8043796015      -31.2784557466      -11.4121746635  WZ2       434             0.0000000000
      5123      1708  TIP3      H1              7.7661296015      -31.9248257466      -10.7072146635  WZ2       434             0.0000000000
      5124      1708  TIP3      H2              7.4820296015      -31.7450157466      -12.1833046635  WZ2       434             0.0000000000
      5125      1709  TIP3      OH2             0.1728796015      -31.6642457466       -9.8191846635  WZ2       435             0.0000000000
      5126      1709  TIP3      H1              0.2140896015      -32.2899157466       -9.0959446635  WZ2       435             0.0000000000
      5127      1709  TIP3      H2              0.8756496015      -31.0403857466       -9.6371446635  WZ2       435             0.0000000000
      5128      1710  TIP3      OH2            11.5103996015      -28.3394157466      -13.1106646635  WZ2       436             0.0000000000
      5129      1710  TIP3      H1             11.0696696015      -29.0598157466      -12.6601046635  WZ2       436             0.0000000000
      5130      1710  TIP3      H2             11.4973696015      -27.6186957466      -12.4808946635  WZ2       436             0.0000000000
      5131      1711  TIP3      OH2             1.0961896015      -27.2143557466      -11.2842746635  WZ2       437             0.0000000000
      5132      1711  TIP3      H1              0.7267096015      -28.0163057466      -11.6538446635  WZ2       437             0.0000000000
      5133      1711  TIP3      H2              2.0372996015      -27.3828657466      -11.2379346635  WZ2       437             0.0000000000
      5134      1712  TIP3      OH2            -2.2937603985      -33.5540957466      -15.8913946635  WZ2       438             0.0000000000
      5135      1712  TIP3      H1             -2.7414203985      -32.7082257466      -15.9097446635  WZ2       438             0.0000000000
      5136      1712  TIP3      H2             -2.8546403985      -34.1336757466      -16.4068846635  WZ2       438             0.0000000000
      5137      1713  TIP3      OH2            -1.5831503985      -31.3921357466      -13.7655946635  WZ2       439             0.0000000000
      5138      1713  TIP3      H1             -1.3698003985      -32.1619757466      -13.2382946635  WZ2       439             0.0000000000
      5139      1713  TIP3      H2             -0.8453903985      -31.3024657466      -14.3688346635  WZ2       439             0.0000000000
      5140      1714  TIP3      OH2             8.6219496015      -23.2352457466      -12.8986246635  WZ2       440             0.0000000000
      5141      1714  TIP3      H1              9.2415896015      -23.9117757466      -13.1717046635  WZ2       440             0.0000000000
      5142      1714  TIP3      H2              8.4136896015      -23.4531657466      -11.9901346635  WZ2       440             0.0000000000
      5143      1715  TIP3      OH2             6.1938196015      -28.8463157466      -11.0060746635  WZ2       441             0.0000000000
      5144      1715  TIP3      H1              6.4976096015      -29.5321757466      -11.6006646635  WZ2       441             0.0000000000
      5145      1715  TIP3      H2              6.9152196015      -28.7274457466      -10.3882746635  WZ2       441             0.0000000000
      5146      1716  TIP3      OH2            14.8567996015      -37.2447857466      -10.1454546635  WZ2       442             0.0000000000
      5147      1716  TIP3      H1             14.9060196015      -36.6346657466       -9.4095446635  WZ2       442             0.0000000000
      5148      1716  TIP3      H2             15.2823096015      -36.7836957466      -10.8683446635  WZ2       442             0.0000000000
      5149      1717  TIP3      OH2             9.3345196015      -34.4520757466      -10.6785946635  WZ2       443             0.0000000000
      5150      1717  TIP3      H1              9.4771096015      -35.3983757466      -10.6584346635  WZ2       443             0.0000000000
      5151      1717  TIP3      H2              9.2284196015      -34.2450957466      -11.6071046635  WZ2       443             0.0000000000
      5152      1718  TIP3      OH2             2.4893496015      -36.3504357466      -13.4061146635  WZ2       444             0.0000000000
      5153      1718  TIP3      H1              2.5324596015      -35.4905857466      -13.8244846635  WZ2       444             0.0000000000
      5154      1718  TIP3      H2              2.0317596015      -36.9029657466      -14.0397946635  WZ2       444             0.0000000000
      5155      1719  TIP3      OH2            10.2116196015      -36.2198757466      -15.0052846635  WZ2       445             0.0000000000
      5156      1719  TIP3      H1             10.8580496015      -36.5485557466      -14.3805246635  WZ2       445             0.0000000000
      5157      1719  TIP3      H2             10.7215596015      -35.7019757466      -15.6281446635  WZ2       445             0.0000000000
      5158      1720  TIP3      OH2            -0.8905003985      -33.9538557466      -12.6439746635  WZ2       446             0.0000000000
      5159      1720  TIP3      H1             -0.2368403985      -34.5036857466      -12.2119646635  WZ2       446             0.0000000000
      5160      1720  TIP3      H2             -0.8665703985      -34.2279557466      -13.5607746635  WZ2       446             0.0000000000
      5161      1721  TIP3      OH2             4.2659496015      -32.4037257466      -13.4288246635  WZ2       447             0.0000000000
      5162      1721  TIP3      H1              4.8820496015      -32.9301857466      -12.9194246635  WZ2       447             0.0000000000
      5163      1721  TIP3      H2              3.6798296015      -33.0438557466      -13.8324646635  WZ2       447             0.0000000000
      5164      1722  TIP3      OH2            15.2482596015      -35.7668657466       -7.9094746635  WZ2       448             0.0000000000
      5165      1722  TIP3      H1             14.5597196015      -35.1087957466       -8.0048146635  WZ2       448             0.0000000000
      5166      1722  TIP3      H2             15.2637196015      -35.9640757466       -6.9729346635  WZ2       448             0.0000000000
      5167      1723  TIP3      OH2             8.6685196015      -27.9324857466      -15.7881246635  WZ2       450             0.0000000000
      5168      1723  TIP3      H1              8.3730296015      -28.2552557466      -16.6394346635  WZ2       450             0.0000000000
      5169      1723  TIP3      H2              8.3442996015      -27.0328157466      -15.7468646635  WZ2       450             0.0000000000
      5170      1724  TIP3      OH2             3.8686796015      -29.7570257466       -9.0446646635  WZ2       451             0.0000000000
      5171      1724  TIP3      H1              3.1285896015      -29.1588757466       -8.9411446635  WZ2       451             0.0000000000
      5172      1724  TIP3      H2              4.5826296015      -29.2030657466       -9.3603046635  WZ2       451             0.0000000000
      5173      1725  TIP3      OH2             0.8932696015      -35.5404157466      -11.3798146635  WZ2       453             0.0000000000
      5174      1725  TIP3      H1              1.5068996015      -34.9076557466      -11.0065746635  WZ2       453             0.0000000000
      5175      1725  TIP3      H2              1.4053396015      -36.0129157466      -12.0361246635  WZ2       453             0.0000000000
      5176      1726  TIP3      OH2             2.2761096015      -27.7927257466       -8.2575146635  WZ2       454             0.0000000000
      5177      1726  TIP3      H1              2.2708696015      -26.9133757466       -8.6355846635  WZ2       454             0.0000000000
      5178      1726  TIP3      H2              1.4225196015      -27.8763157466       -7.8325246635  WZ2       454             0.0000000000
      5179      1727  TIP3      OH2            -1.6028003985      -28.1219357466      -17.4755846635  WZ2       455             0.0000000000
      5180      1727  TIP3      H1             -1.8747103985      -27.8928357466      -18.3642946635  WZ2       455             0.0000000000
      5181      1727  TIP3      H2             -1.5572303985      -27.2840557466      -17.0150546635  WZ2       455             0.0000000000
      5182      1728  TIP3      OH2            12.0221696015      -26.5003457466      -10.7627346635  WZ2       456             0.0000000000
      5183      1728  TIP3      H1             11.0805396015      -26.4419557466      -10.6010446635  WZ2       456             0.0000000000
      5184      1728  TIP3      H2             12.2987796015      -25.5942957466      -10.8997646635  WZ2       456             0.0000000000
      5185      1729  TIP3      OH2            10.2742896015      -24.7189957466      -14.1375746635  WZ2       459             0.0000000000
      5186      1729  TIP3      H1             10.6995196015      -25.4262057466      -14.6226146635  WZ2       459             0.0000000000
      5187      1729  TIP3      H2             10.5912896015      -23.9177257466      -14.5543546635  WZ2       459             0.0000000000
      5188      1730  TIP3      OH2            11.4339396015      -26.8181457466      -15.6289146635  WZ2       460             0.0000000000
      5189      1730  TIP3      H1             11.1764196015      -27.5081357466      -16.2403246635  WZ2       460             0.0000000000
      5190      1730  TIP3      H2             11.5050196015      -27.2610257466      -14.7833246635  WZ2       460             0.0000000000
      5191      1731  TIP3      OH2            13.1199596015      -28.2514757466       -7.1515646635  WZ2       461             0.0000000000
      5192      1731  TIP3      H1             13.2595896015      -28.8432257466       -7.8908646635  WZ2       461             0.0000000000
      5193      1731  TIP3      H2             13.2872396015      -27.3788857466       -7.5076846635  WZ2       461             0.0000000000
      5194      1732  TIP3      OH2             7.5924996015      -31.2895257466      -17.3789646635  WZ2       462             0.0000000000
      5195      1732  TIP3      H1              6.8810496015      -30.7545557466      -17.7309146635  WZ2       462             0.0000000000
      5196      1732  TIP3      H2              8.2834596015      -31.2343157466      -18.0390746635  WZ2       462             0.0000000000
      5197      1733  TIP3      OH2             7.6464196015      -32.8320957466      -20.3404646635  WZ2       463             0.0000000000
      5198      1733  TIP3      H1              8.3474096015      -32.8094057466      -19.6890646635  WZ2       463             0.0000000000
      5199      1733  TIP3      H2              7.9487096015      -33.4601257466      -20.9965346635  WZ2       463             0.0000000000
      5200      1734  TIP3      OH2            14.9618896015      -31.9116757466       -9.0855246635  WZ2       464             0.0000000000
      5201      1734  TIP3      H1             14.3092996015      -31.2171157466       -8.9964346635  WZ2       464             0.0000000000
      5202      1734  TIP3      H2             15.4269196015      -31.7015857466       -9.8953646635  WZ2       464             0.0000000000
      5203      1735  TIP3      OH2            10.9982696015      -31.0801957466      -16.4273746635  WZ2       465             0.0000000000
      5204      1735  TIP3      H1             10.2663696015      -30.8518257466      -15.8543146635  WZ2       465             0.0000000000
      5205      1735  TIP3      H2             11.4454896015      -31.7939257466      -15.9726246635  WZ2       465             0.0000000000
      5206      1736  TIP3      OH2            10.8956196015      -32.9059357466       -7.3596746635  WZ2       466             0.0000000000
      5207      1736  TIP3      H1             10.9755296015      -32.1424957466       -6.7878246635  WZ2       466             0.0000000000
      5208      1736  TIP3      H2             10.2943896015      -32.6266957466       -8.0501646635  WZ2       466             0.0000000000
      5209      1737  TIP3      OH2             2.6436396015      -30.4495757466      -14.5448746635  WZ2       467             0.0000000000
      5210      1737  TIP3      H1              2.3131596015      -30.8202357466      -15.3631746635  WZ2       467             0.0000000000
      5211      1737  TIP3      H2              3.2320496015      -31.1201757466      -14.1980446635  WZ2       467             0.0000000000
      5212      1738  TIP3      OH2             4.0103896015      -27.0215157466      -11.8636546635  WZ2       468             0.0000000000
      5213      1738  TIP3      H1              3.9155196015      -27.6002057466      -12.6201946635  WZ2       468             0.0000000000
      5214      1738  TIP3      H2              4.7397496015      -27.3929457466      -11.3673746635  WZ2       468             0.0000000000
      5215      1739  TIP3      OH2             3.0101896015      -31.6810157466      -10.9113746635  WZ2       469             0.0000000000
      5216      1739  TIP3      H1              3.5754396015      -31.5595957466      -11.6742546635  WZ2       469             0.0000000000
      5217      1739  TIP3      H2              3.3290796015      -31.0435157466      -10.2725246635  WZ2       469             0.0000000000
      5218      1740  TIP3      OH2             9.3194096015      -26.1778257466      -10.1773246635  WZ2       470             0.0000000000
      5219      1740  TIP3      H1              9.0790696015      -25.5155157466       -9.5294046635  WZ2       470             0.0000000000
      5220      1740  TIP3      H2              9.1212296015      -27.0123057466       -9.7523646635  WZ2       470             0.0000000000
      5221      1741  TIP3      OH2             3.8902596015      -27.2817457466       -6.1941846635  WZ2       471             0.0000000000
      5222      1741  TIP3      H1              3.5790096015      -26.4994257466       -5.7388646635  WZ2       471             0.0000000000
      5223      1741  TIP3      H2              3.2402796015      -27.4348357466       -6.8799846635  WZ2       471             0.0000000000
      5224      1742  TIP3      OH2             9.8692196015      -31.9179057466      -18.7422546635  WZ2       472             0.0000000000
      5225      1742  TIP3      H1             10.4487696015      -31.7678757466      -17.9953646635  WZ2       472             0.0000000000
      5226      1742  TIP3      H2             10.2832196015      -31.4471657466      -19.4656146635  WZ2       472             0.0000000000
      5227      1743  TIP3      OH2             0.8102496015      -31.0836357466       -6.9656146635  WZ2       473             0.0000000000
      5228      1743  TIP3      H1              0.8805696015      -30.4329557466       -6.2671146635  WZ2       473             0.0000000000
      5229      1743  TIP3      H2             -0.0805303985      -30.9808857466       -7.3005246635  WZ2       473             0.0000000000
      5230      1744  TIP3      OH2             7.5957096015      -25.1810557466      -15.3069446635  WZ2       474             0.0000000000
      5231      1744  TIP3      H1              8.0694696015      -24.8854257466      -14.5295246635  WZ2       474             0.0000000000
      5232      1744  TIP3      H2              7.0326396015      -24.4428957466      -15.5399846635  WZ2       474             0.0000000000
      5233      1745  TIP3      OH2             2.1298496015      -25.2102457466       -5.4308046635  WZ2       475             0.0000000000
      5234      1745  TIP3      H1              2.1373796015      -25.3462757466       -6.3782546635  WZ2       475             0.0000000000
      5235      1745  TIP3      H2              1.2138896015      -25.3274357466       -5.1788046635  WZ2       475             0.0000000000
      5236      1746  TIP3      OH2             1.6339096015      -31.3801457466      -16.9555946635  WZ2       477             0.0000000000
      5237      1746  TIP3      H1              1.3420396015      -30.6119757466      -17.4464646635  WZ2       477             0.0000000000
      5238      1746  TIP3      H2              0.9594296015      -32.0395257466      -17.1184546635  WZ2       477             0.0000000000
      5239      1747  TIP3      OH2            14.7571996015      -25.8016257466      -20.5528946635  WZ2       478             0.0000000000
      5240      1747  TIP3      H1             14.8305496015      -24.8626057466      -20.3823646635  WZ2       478             0.0000000000
      5241      1747  TIP3      H2             15.6627096015      -26.1067657466      -20.6091646635  WZ2       478             0.0000000000
      5242      1748  TIP3      OH2            -2.2730803985      -29.0172257466       -8.1406146635  WZ2       479             0.0000000000
      5243      1748  TIP3      H1             -2.7742403985      -29.0452857466       -8.9556446635  WZ2       479             0.0000000000
      5244      1748  TIP3      H2             -2.2677103985      -29.9229057466       -7.8308846635  WZ2       479             0.0000000000
      5245      1749  TIP3      OH2            -2.5228103985      -26.2368457466      -11.2565946635  WZ2       480             0.0000000000
      5246      1749  TIP3      H1             -1.5767503985      -26.3811457466      -11.2756446635  WZ2       480             0.0000000000
      5247      1749  TIP3      H2             -2.6351803985      -25.4525657466      -10.7194746635  WZ2       480             0.0000000000
      5248      1750  TIP3      OH2            15.6750396015      -25.5708757466       -5.5742246635  WZ2       481             0.0000000000
      5249      1750  TIP3      H1             15.6257196015      -26.5260657466       -5.6114646635  WZ2       481             0.0000000000
      5250      1750  TIP3      H2             14.8482696015      -25.3033457466       -5.1728446635  WZ2       481             0.0000000000
      5251      1751  TIP3      OH2             6.6534396015      -25.9969557466       -6.6980846635  WZ2       482             0.0000000000
      5252      1751  TIP3      H1              6.7408996015      -25.1704957466       -6.2231746635  WZ2       482             0.0000000000
      5253      1751  TIP3      H2              5.7899496015      -26.3265757466       -6.4491546635  WZ2       482             0.0000000000
      5254      1752  TIP3      OH2             7.0680196015      -22.2245857466      -16.8920246635  WZ2       483             0.0000000000
      5255      1752  TIP3      H1              6.9926196015      -22.3458657466      -17.8385046635  WZ2       483             0.0000000000
      5256      1752  TIP3      H2              7.1008896015      -21.2753157466      -16.7735646635  WZ2       483             0.0000000000
      5257      1753  TIP3      OH2             0.7213996015      -23.4358857466      -15.1111246635  WZ2       484             0.0000000000
      5258      1753  TIP3      H1              0.8734396015      -23.7838457466      -14.2324746635  WZ2       484             0.0000000000
      5259      1753  TIP3      H2             -0.1295603985      -23.7921557466      -15.3664046635  WZ2       484             0.0000000000
      5260      1754  TIP3      OH2            10.1696196015      -23.0705657466      -19.8897846635  WZ2       485             0.0000000000
      5261      1754  TIP3      H1             10.5444596015      -23.8149557466      -20.3605246635  WZ2       485             0.0000000000
      5262      1754  TIP3      H2             10.1739896015      -23.3405057466      -18.9714546635  WZ2       485             0.0000000000
      5263      1755  TIP3      OH2             9.8384296015      -23.1448557466      -17.1405646635  WZ2       486             0.0000000000
      5264      1755  TIP3      H1              8.9034096015      -23.0446657466      -16.9618646635  WZ2       486             0.0000000000
      5265      1755  TIP3      H2             10.1186196015      -23.8542557466      -16.5622446635  WZ2       486             0.0000000000
      5266      1756  TIP3      OH2            12.8270196015      -34.0776257466       -5.0940046635  WZ2       487             0.0000000000
      5267      1756  TIP3      H1             12.4196996015      -33.5970657466       -5.8146746635  WZ2       487             0.0000000000
      5268      1756  TIP3      H2             12.8675896015      -34.9830257466       -5.4019246635  WZ2       487             0.0000000000
      5269      1757  TIP3      OH2            -0.0240303985      -27.6936857466       -7.0973346635  WZ2       488             0.0000000000
      5270      1757  TIP3      H1              0.1920996015      -28.0551257466       -6.2377546635  WZ2       488             0.0000000000
      5271      1757  TIP3      H2             -0.8795603985      -28.0683057466       -7.3069846635  WZ2       488             0.0000000000
      5272      1758  TIP3      OH2            10.5840396015      -35.7460757466       -6.8737646635  WZ2       491             0.0000000000
      5273      1758  TIP3      H1             10.0699896015      -35.8718557466       -6.0761646635  WZ2       491             0.0000000000
      5274      1758  TIP3      H2             10.4285096015      -34.8337657466       -7.1181446635  WZ2       491             0.0000000000
      5275      1759  TIP3      OH2            11.3465296015      -30.8850757466      -21.1124646635  WZ2       492             0.0000000000
      5276      1759  TIP3      H1             11.3886096015      -31.1076857466      -22.0424646635  WZ2       492             0.0000000000
      5277      1759  TIP3      H2             12.1957396015      -30.4863657466      -20.9224746635  WZ2       492             0.0000000000
      5278      1760  TIP3      OH2             2.6857796015      -34.2581857466      -10.0068946635  WZ2       494             0.0000000000
      5279      1760  TIP3      H1              2.0439896015      -34.2984557466       -9.2978846635  WZ2       494             0.0000000000
      5280      1760  TIP3      H2              2.7229796015      -33.3317157466      -10.2445946635  WZ2       494             0.0000000000
      5281      1761  TIP3      OH2             2.6826896015      -34.0371757466      -15.0948946635  WZ2       495             0.0000000000
      5282      1761  TIP3      H1              1.7899796015      -34.3775657466      -15.1535146635  WZ2       495             0.0000000000
      5283      1761  TIP3      H2              3.1333496015      -34.4140857466      -15.8505746635  WZ2       495             0.0000000000
      5284      1762  TIP3      OH2             8.2182396015      -33.6211457466      -16.2778146635  WZ2       496             0.0000000000
      5285      1762  TIP3      H1              7.8092696015      -32.8062857466      -16.5693346635  WZ2       496             0.0000000000
      5286      1762  TIP3      H2              8.9388596015      -33.7611357466      -16.8921046635  WZ2       496             0.0000000000
      5287      1763  TIP3      OH2             7.3203996015      -33.4455057466       -4.7897446635  WZ2       497             0.0000000000
      5288      1763  TIP3      H1              6.7577796015      -34.1503457466       -4.4689646635  WZ2       497             0.0000000000
      5289      1763  TIP3      H2              8.1467396015      -33.5663157466       -4.3219846635  WZ2       497             0.0000000000
      5290      1764  TIP3      OH2             9.2230096015      -34.1751057466      -13.4638446635  WZ2       498             0.0000000000
      5291      1764  TIP3      H1              9.0274596015      -33.5694257466      -14.1787846635  WZ2       498             0.0000000000
      5292      1764  TIP3      H2              9.4042696015      -35.0085857466      -13.8982146635  WZ2       498             0.0000000000
      5293      1765  TIP3      OH2             0.4358296015      -33.9378357466       -8.1396946635  WZ2       499             0.0000000000
      5294      1765  TIP3      H1              0.3977696015      -33.5376757466       -7.2709846635  WZ2       499             0.0000000000
      5295      1765  TIP3      H2             -0.0550603985      -34.7545957466       -8.0494046635  WZ2       499             0.0000000000
      5296      1766  TIP3      OH2             3.8015696015      -36.5636057466      -21.3410946635  WZ2       500             0.0000000000
      5297      1766  TIP3      H1              3.3706396015      -37.0085957466      -20.6113546635  WZ2       500             0.0000000000
      5298      1766  TIP3      H2              3.0834396015      -36.1919757466      -21.8533446635  WZ2       500             0.0000000000
      5299      1767  TIP3      OH2            -1.6818803985      -36.0754557466      -18.8651846635  WZ2       502             0.0000000000
      5300      1767  TIP3      H1             -1.2077103985      -35.4844657466      -19.4500946635  WZ2       502             0.0000000000
      5301      1767  TIP3      H2             -2.3992403985      -35.5451657466      -18.5181746635  WZ2       502             0.0000000000
      5302      1768  TIP3      OH2             8.4869296015      -32.5369757466       -8.7926046635  WZ2       503             0.0000000000
      5303      1768  TIP3      H1              8.8104096015      -33.1680057466       -9.4355546635  WZ2       503             0.0000000000
      5304      1768  TIP3      H2              8.0468596015      -33.0717557466       -8.1318646635  WZ2       503             0.0000000000
      5305      1769  TIP3      OH2             5.2642196015      -36.6094257466      -14.0084846635  WZ2       504             0.0000000000
      5306      1769  TIP3      H1              4.3533296015      -36.5527457466      -13.7198846635  WZ2       504             0.0000000000
      5307      1769  TIP3      H2              5.7695096015      -36.6698757466      -13.1977646635  WZ2       504             0.0000000000
      5308      1770  TIP3      OH2             0.0925596015      -34.9807957466      -15.1817246635  WZ2       505             0.0000000000
      5309      1770  TIP3      H1             -0.7966403985      -34.8812457466      -15.5217646635  WZ2       505             0.0000000000
      5310      1770  TIP3      H2              0.3890496015      -35.8224957466      -15.5279346635  WZ2       505             0.0000000000
      5311      1771  TIP3      OH2             3.7457396015      -34.9805357466      -17.5252646635  WZ2       506             0.0000000000
      5312      1771  TIP3      H1              4.6772896015      -34.8515357466      -17.3469546635  WZ2       506             0.0000000000
      5313      1771  TIP3      H2              3.5307696015      -34.3111057466      -18.1747946635  WZ2       506             0.0000000000
      5314      1772  TIP3      OH2             2.4197596015      -33.7863157466      -19.9586546635  WZ2       508             0.0000000000
      5315      1772  TIP3      H1              1.8772696015      -34.1659357466      -20.6498946635  WZ2       508             0.0000000000
      5316      1772  TIP3      H2              3.2532496015      -33.5918457466      -20.3872446635  WZ2       508             0.0000000000
      5317      1773  TIP3      OH2            12.9569196015      -21.7032557466       -4.4675446635  WZ2       509             0.0000000000
      5318      1773  TIP3      H1             13.1567896015      -21.2790657466       -5.3020146635  WZ2       509             0.0000000000
      5319      1773  TIP3      H2             13.6122896015      -21.3594357466       -3.8605046635  WZ2       509             0.0000000000
      5320      1774  TIP3      OH2             0.5548996015      -29.2291257466       -4.8594946635  WZ2       510             0.0000000000
      5321      1774  TIP3      H1              1.2871396015      -28.9745357466       -4.2980446635  WZ2       510             0.0000000000
      5322      1774  TIP3      H2             -0.2252303985      -29.0245857466       -4.3439546635  WZ2       510             0.0000000000
      5323      1775  TIP3      OH2             6.5841896015      -33.8221257466      -12.1215246635  WZ2       511             0.0000000000
      5324      1775  TIP3      H1              7.1485296015      -34.3684657466      -12.6685646635  WZ2       511             0.0000000000
      5325      1775  TIP3      H2              6.4365296015      -34.3439357466      -11.3327646635  WZ2       511             0.0000000000
      5326      1776  TIP3      OH2             5.2107796015      -35.4335157466       -9.7074846635  WZ2       513             0.0000000000
      5327      1776  TIP3      H1              4.3753096015      -34.9795657466       -9.5972446635  WZ2       513             0.0000000000
      5328      1776  TIP3      H2              5.7348396015      -35.1576657466       -8.9554946635  WZ2       513             0.0000000000
      5329      1777  TIP3      OH2             5.7550396015      -29.2207457466      -18.0228446635  WZ2       514             0.0000000000
      5330      1777  TIP3      H1              5.0101396015      -29.7282157466      -18.3450546635  WZ2       514             0.0000000000
      5331      1777  TIP3      H2              5.6207596015      -29.1719457466      -17.0763646635  WZ2       514             0.0000000000
      5332      1778  TIP3      OH2            12.9049296015      -30.0879257466       -9.2360846635  WZ2       515             0.0000000000
      5333      1778  TIP3      H1             13.5468096015      -29.6312957466       -9.7798646635  WZ2       515             0.0000000000
      5334      1778  TIP3      H2             12.0746196015      -29.9746857466       -9.6986746635  WZ2       515             0.0000000000
      5335      1779  TIP3      OH2             9.6527196015      -36.4067557466      -19.8235846635  WZ2       516             0.0000000000
      5336      1779  TIP3      H1              8.7141396015      -36.2951957466      -19.9747046635  WZ2       516             0.0000000000
      5337      1779  TIP3      H2              9.9499296015      -35.5500657466      -19.5170146635  WZ2       516             0.0000000000
      5338      1780  TIP3      OH2             7.2742496015      -29.0364157466       -6.7859346635  WZ2       517             0.0000000000
      5339      1780  TIP3      H1              6.9288596015      -29.4181757466       -5.9789746635  WZ2       517             0.0000000000
      5340      1780  TIP3      H2              7.0742596015      -28.1030557466       -6.7146446635  WZ2       517             0.0000000000
      5341      1781  TIP3      OH2            10.3710696015      -34.5394857466      -18.1628446635  WZ2       518             0.0000000000
      5342      1781  TIP3      H1             11.2629696015      -34.6769857466      -17.8437246635  WZ2       518             0.0000000000
      5343      1781  TIP3      H2             10.4274296015      -33.7488757466      -18.6994946635  WZ2       518             0.0000000000
      5344      1782  TIP3      OH2             0.8798696015      -29.9257457466      -12.2530546635  WZ2       519             0.0000000000
      5345      1782  TIP3      H1              1.6245896015      -29.9281757466      -12.8544046635  WZ2       519             0.0000000000
      5346      1782  TIP3      H2              0.9575296015      -30.7493657466      -11.7715446635  WZ2       519             0.0000000000
      5347      1783  TIP3      OH2             7.8804496015      -27.7623157466      -18.9973846635  WZ2       520             0.0000000000
      5348      1783  TIP3      H1              7.5852896015      -26.9355257466      -18.6159046635  WZ2       520             0.0000000000
      5349      1783  TIP3      H2              7.1774496015      -28.3816257466      -18.8012446635  WZ2       520             0.0000000000
      5350      1784  TIP3      OH2            -2.1121603985      -31.4650557466       -6.9382046635  WZ2       521             0.0000000000
      5351      1784  TIP3      H1             -1.8893003985      -31.8830957466       -6.1064546635  WZ2       521             0.0000000000
      5352      1784  TIP3      H2             -2.7141503985      -32.0775557466       -7.3609246635  WZ2       521             0.0000000000
      5353      1785  TIP3      OH2             4.9043296015      -31.9480657466       -4.7252346635  WZ2       522             0.0000000000
      5354      1785  TIP3      H1              4.6084096015      -32.1137657466       -5.6203246635  WZ2       522             0.0000000000
      5355      1785  TIP3      H2              5.8358496015      -32.1680357466       -4.7358446635  WZ2       522             0.0000000000
      5356      1786  TIP3      OH2             9.5246096015      -26.5748657466       -6.8354346635  WZ2       523             0.0000000000
      5357      1786  TIP3      H1              8.6240396015      -26.3916057466       -7.1030446635  WZ2       523             0.0000000000
      5358      1786  TIP3      H2              9.5587196015      -26.3159357466       -5.9145546635  WZ2       523             0.0000000000
      5359      1787  TIP3      OH2            15.2559396015      -34.3300757466      -18.4681746635  WZ2       524             0.0000000000
      5360      1787  TIP3      H1             14.7015696015      -34.7262757466      -19.1404246635  WZ2       524             0.0000000000
      5361      1787  TIP3      H2             15.3562996015      -33.4195557466      -18.7458446635  WZ2       524             0.0000000000
      5362      1788  TIP3      OH2            15.2191396015      -28.5299057466       -5.6310246635  WZ2       525             0.0000000000
      5363      1788  TIP3      H1             14.3679896015      -28.2915257466       -5.9983846635  WZ2       525             0.0000000000
      5364      1788  TIP3      H2             15.8094796015      -28.5465857466       -6.3843146635  WZ2       525             0.0000000000
      5365      1789  TIP3      OH2            13.5511096015      -25.5440357466      -18.0029646635  WZ2       526             0.0000000000
      5366      1789  TIP3      H1             13.1782196015      -26.3696557466      -17.6939046635  WZ2       526             0.0000000000
      5367      1789  TIP3      H2             13.8284596015      -25.7270957466      -18.9006246635  WZ2       526             0.0000000000
      5368      1790  TIP3      OH2            10.7114996015      -30.7360857466      -10.9817746635  WZ2       527             0.0000000000
      5369      1790  TIP3      H1              9.7831896015      -30.9678957466      -11.0088446635  WZ2       527             0.0000000000
      5370      1790  TIP3      H2             11.1626096015      -31.5131057466      -11.3118946635  WZ2       527             0.0000000000
      5371      1791  TIP3      OH2             3.2548096015      -26.4079257466      -14.8489046635  WZ2       528             0.0000000000
      5372      1791  TIP3      H1              3.7820296015      -25.6344857466      -15.0490246635  WZ2       528             0.0000000000
      5373      1791  TIP3      H2              2.3746596015      -26.1830057466      -15.1505046635  WZ2       528             0.0000000000
      5374      1792  TIP3      OH2            -0.9904203985      -31.5455157466      -20.2616646635  WZ2       529             0.0000000000
      5375      1792  TIP3      H1             -0.3744303985      -30.9187957466      -19.8821846635  WZ2       529             0.0000000000
      5376      1792  TIP3      H2             -1.8521603985      -31.2295357466      -19.9900146635  WZ2       529             0.0000000000
      5377      1793  TIP3      OH2             4.6820396015      -28.7449357466      -15.2724746635  WZ2       530             0.0000000000
      5378      1793  TIP3      H1              4.4410396015      -27.8194957466      -15.2309446635  WZ2       530             0.0000000000
      5379      1793  TIP3      H2              3.9413996015      -29.2038057466      -14.8760846635  WZ2       530             0.0000000000
      5380      1794  TIP3      OH2             5.1966996015      -24.5955757466       -8.9573646635  WZ2       531             0.0000000000
      5381      1794  TIP3      H1              5.5591696015      -23.7410157466       -9.1909246635  WZ2       531             0.0000000000
      5382      1794  TIP3      H2              5.7282196015      -24.8874157466       -8.2167346635  WZ2       531             0.0000000000
      5383      1795  TIP3      OH2             3.3651196015      -23.7231757466      -15.7272546635  WZ2       532             0.0000000000
      5384      1795  TIP3      H1              2.4151696015      -23.6174357466      -15.6759246635  WZ2       532             0.0000000000
      5385      1795  TIP3      H2              3.7169296015      -22.9024357466      -15.3825046635  WZ2       532             0.0000000000
      5386      1796  TIP3      OH2             8.7407796015      -28.4965057466       -9.2568046635  WZ2       533             0.0000000000
      5387      1796  TIP3      H1              8.3149096015      -28.7243357466       -8.4304046635  WZ2       533             0.0000000000
      5388      1796  TIP3      H2              9.3213596015      -29.2353257466       -9.4392746635  WZ2       533             0.0000000000
      5389      1797  TIP3      OH2            10.9436696015      -27.5674557466      -20.1829046635  WZ2       534             0.0000000000
      5390      1797  TIP3      H1             11.2969796015      -27.9474757466      -19.3785546635  WZ2       534             0.0000000000
      5391      1797  TIP3      H2              9.9950196015      -27.6609757466      -20.0959746635  WZ2       534             0.0000000000
      5392      1798  TIP3      OH2            11.3991996015      -23.9445557466       -6.7873246635  WZ2       535             0.0000000000
      5393      1798  TIP3      H1             10.7975196015      -24.5002657466       -7.2826946635  WZ2       535             0.0000000000
      5394      1798  TIP3      H2             11.6805696015      -23.2775757466       -7.4135846635  WZ2       535             0.0000000000
      5395      1799  TIP3      OH2            15.4471096015      -23.0882057466      -19.9818846635  WZ2       536             0.0000000000
      5396      1799  TIP3      H1             16.1908996015      -22.5021557466      -20.1217246635  WZ2       536             0.0000000000
      5397      1799  TIP3      H2             14.7529196015      -22.5196257466      -19.6486446635  WZ2       536             0.0000000000
      5398      1800  TIP3      OH2            -0.4782103985      -36.7117857466       -7.3800646635  WZ2       537             0.0000000000
      5399      1800  TIP3      H1             -1.3709803985      -36.3732457466       -7.4476646635  WZ2       537             0.0000000000
      5400      1800  TIP3      H2             -0.5769303985      -37.5671757466       -6.9619846635  WZ2       537             0.0000000000
      5401      1801  TIP3      OH2            11.8095996015      -28.8952557466      -17.9561146635  WZ2       538             0.0000000000
      5402      1801  TIP3      H1             11.5323596015      -29.6233257466      -17.4000046635  WZ2       538             0.0000000000
      5403      1801  TIP3      H2             12.7368996015      -28.7760557466      -17.7508546635  WZ2       538             0.0000000000
      5404      1802  TIP3      OH2            -0.8270103985      -24.9073457466       -8.9451246635  WZ2       539             0.0000000000
      5405      1802  TIP3      H1             -0.6099803985      -25.8391057466       -8.9761546635  WZ2       539             0.0000000000
      5406      1802  TIP3      H2             -0.5806603985      -24.6328457466       -8.0618446635  WZ2       539             0.0000000000
      5407      1803  TIP3      OH2             5.0344496015      -26.4558457466      -21.7359046635  WZ2       540             0.0000000000
      5408      1803  TIP3      H1              5.2734296015      -27.2040357466      -22.2830146635  WZ2       540             0.0000000000
      5409      1803  TIP3      H2              4.7655796015      -26.8436757466      -20.9031246635  WZ2       540             0.0000000000
      5410      1804  TIP3      OH2             3.9715096015      -26.8854657466      -19.2796446635  WZ2       541             0.0000000000
      5411      1804  TIP3      H1              4.1183096015      -27.4054857466      -18.4895546635  WZ2       541             0.0000000000
      5412      1804  TIP3      H2              3.9686796015      -25.9787057466      -18.9730546635  WZ2       541             0.0000000000
      5413      1805  TIP3      OH2             0.4246196015      -29.6331357466      -18.7691046635  WZ2       542             0.0000000000
      5414      1805  TIP3      H1             -0.2614503985      -29.2808857466      -18.2021346635  WZ2       542             0.0000000000
      5415      1805  TIP3      H2              0.9474096015      -28.8701757466      -19.0156746635  WZ2       542             0.0000000000
      5416      1806  TIP3      OH2             6.7092296015      -25.1881057466      -18.5302246635  WZ2       545             0.0000000000
      5417      1806  TIP3      H1              5.8928396015      -24.6911357466      -18.4777946635  WZ2       545             0.0000000000
      5418      1806  TIP3      H2              7.2388596015      -24.7127557466      -19.1703446635  WZ2       545             0.0000000000
      5419      1807  TIP3      OH2             6.2406096015      -35.5907057466      -16.5581346635  WZ2       546             0.0000000000
      5420      1807  TIP3      H1              7.0528696015      -35.0863857466      -16.5119646635  WZ2       546             0.0000000000
      5421      1807  TIP3      H2              5.9959096015      -35.7357357466      -15.6441746635  WZ2       546             0.0000000000
      5422      1808  TIP3      OH2             6.7762496015      -34.6044357466       -7.3734746635  WZ2       547             0.0000000000
      5423      1808  TIP3      H1              6.8952796015      -34.0308957466       -6.6164346635  WZ2       547             0.0000000000
      5424      1808  TIP3      H2              7.4317096015      -35.2924957466       -7.2586946635  WZ2       547             0.0000000000
      5425      1809  TIP3      OH2             4.0475396015      -24.1443857466      -18.5485346635  WZ2       549             0.0000000000
      5426      1809  TIP3      H1              4.2084096015      -23.3446357466      -19.0492746635  WZ2       549             0.0000000000
      5427      1809  TIP3      H2              3.8503196015      -23.8377857466      -17.6634746635  WZ2       549             0.0000000000
      5428      1810  TIP3      OH2            12.9808296015      -36.6974057466       -6.5385046635  WZ2       551             0.0000000000
      5429      1810  TIP3      H1             12.0644096015      -36.4352357466       -6.6261346635  WZ2       551             0.0000000000
      5430      1810  TIP3      H2             13.3163296015      -36.7005057466       -7.4349746635  WZ2       551             0.0000000000
      5431      1811  TIP3      OH2            11.5829296015      -32.9473057466      -12.4427746635  WZ2       552             0.0000000000
      5432      1811  TIP3      H1             10.7853696015      -33.3622857466      -12.7712746635  WZ2       552             0.0000000000
      5433      1811  TIP3      H2             12.0280396015      -33.6379357466      -11.9517246635  WZ2       552             0.0000000000
      5434      1812  TIP3      OH2             1.0405096015      -27.0192457466      -19.8723246635  WZ2       553             0.0000000000
      5435      1812  TIP3      H1              1.6326596015      -26.3197657466      -19.5960846635  WZ2       553             0.0000000000
      5436      1812  TIP3      H2              1.4998096015      -27.4522957466      -20.5918646635  WZ2       553             0.0000000000
      5437      1813  TIP3      OH2            -0.6435703985      -34.3549457466      -20.7563846635  WZ2       554             0.0000000000
      5438      1813  TIP3      H1             -0.6883103985      -33.4156357466      -20.5776846635  WZ2       554             0.0000000000
      5439      1813  TIP3      H2             -1.5312503985      -34.5904557466      -21.0261746635  WZ2       554             0.0000000000
      5440      1814  TIP3      OH2            12.6693896015      -23.6910557466      -10.8204246635  WZ2       555             0.0000000000
      5441      1814  TIP3      H1             12.5138196015      -23.0126157466      -11.4774946635  WZ2       555             0.0000000000
      5442      1814  TIP3      H2             13.6020296015      -23.6191257466      -10.6173646635  WZ2       555             0.0000000000
      5443      1815  TIP3      OH2            -0.9050403985      -25.6325757466      -15.9227046635  WZ2       557             0.0000000000
      5444      1815  TIP3      H1             -1.7371803985      -25.1603057466      -15.8955646635  WZ2       557             0.0000000000
      5445      1815  TIP3      H2             -0.3592103985      -25.1228157466      -16.5213946635  WZ2       557             0.0000000000
      5446      1816  TIP3      OH2            -1.6166703985      -23.0202057466       -4.5929046635  WZ2       558             0.0000000000
      5447      1816  TIP3      H1             -1.0764503985      -23.2368057466       -3.8329846635  WZ2       558             0.0000000000
      5448      1816  TIP3      H2             -2.0978703985      -23.8256057466       -4.7826546635  WZ2       558             0.0000000000
      5449      1817  TIP3      OH2             2.9806696015      -24.1007657466       -2.9724846635  WZ2       559             0.0000000000
      5450      1817  TIP3      H1              3.7483896015      -24.5596857466       -2.6315646635  WZ2       559             0.0000000000
      5451      1817  TIP3      H2              2.9592896015      -24.3267857466       -3.9023646635  WZ2       559             0.0000000000
      5452      1818  TIP3      OH2             7.0726296015      -24.5927057466      -21.5973046635  WZ2       560             0.0000000000
      5453      1818  TIP3      H1              6.4287296015      -25.2238457466      -21.2759346635  WZ2       560             0.0000000000
      5454      1818  TIP3      H2              7.8344596015      -25.1239057466      -21.8289546635  WZ2       560             0.0000000000
      5455      1819  TIP3      OH2             9.5575396015      -25.7206557466       -4.2433346635  WZ2       561             0.0000000000
      5456      1819  TIP3      H1              9.2064896015      -26.5773557466       -4.0002946635  WZ2       561             0.0000000000
      5457      1819  TIP3      H2             10.2838596015      -25.5779857466       -3.6364346635  WZ2       561             0.0000000000
      5458      1820  TIP3      OH2            11.6769196015      -24.7757157466      -21.3635046635  WZ2       562             0.0000000000
      5459      1820  TIP3      H1             11.9599596015      -25.5701957466      -20.9108146635  WZ2       562             0.0000000000
      5460      1820  TIP3      H2             12.4167096015      -24.5426157466      -21.9243946635  WZ2       562             0.0000000000
      5461      1821  TIP3      OH2            -1.7097203985      -29.2097957466       -3.6384746635  WZ2       563             0.0000000000
      5462      1821  TIP3      H1             -1.5656703985      -30.1117257466       -3.9248046635  WZ2       563             0.0000000000
      5463      1821  TIP3      H2             -2.4819803985      -28.9235857466       -4.1262446635  WZ2       563             0.0000000000
      5464      1822  TIP3      OH2             2.6316496015      -28.8662257466      -21.5060146635  WZ2       564             0.0000000000
      5465      1822  TIP3      H1              2.6960596015      -29.6602657466      -20.9753746635  WZ2       564             0.0000000000
      5466      1822  TIP3      H2              3.2845696015      -28.9849457466      -22.1958146635  WZ2       564             0.0000000000
      5467      1823  TIP3      OH2             4.9458896015      -29.2399857466       -4.2058346635  WZ2       565             0.0000000000
      5468      1823  TIP3      H1              4.6172696015      -28.9691757466       -5.0630946635  WZ2       565             0.0000000000
      5469      1823  TIP3      H2              5.0977096015      -30.1810057466       -4.2933346635  WZ2       565             0.0000000000
      5470      1824  TIP3      OH2             7.9839896015      -27.8190557466      -21.7702146635  WZ2       566             0.0000000000
      5471      1824  TIP3      H1              7.7153996015      -27.6388457466      -20.8693246635  WZ2       566             0.0000000000
      5472      1824  TIP3      H2              7.7775496015      -28.7444357466      -21.9016346635  WZ2       566             0.0000000000
      5473      1825  TIP3      OH2            10.6804096015      -29.3242557466       -6.8226046635  WZ2       567             0.0000000000
      5474      1825  TIP3      H1             11.4258896015      -28.7358857466       -6.9422046635  WZ2       567             0.0000000000
      5475      1825  TIP3      H2              9.9230896015      -28.7422857466       -6.7592946635  WZ2       567             0.0000000000
      5476      1826  TIP3      OH2            -0.8770703985      -32.0094657466       -4.2185446635  WZ2       568             0.0000000000
      5477      1826  TIP3      H1             -0.4689503985      -32.8668057466       -4.3394846635  WZ2       568             0.0000000000
      5478      1826  TIP3      H2             -1.1373103985      -31.9953357466       -3.2975146635  WZ2       568             0.0000000000
      5479      1827  TIP3      OH2             3.7810296015      -30.8936057466      -19.2002146635  WZ2       569             0.0000000000
      5480      1827  TIP3      H1              3.3212296015      -31.3777757466      -18.5143646635  WZ2       569             0.0000000000
      5481      1827  TIP3      H2              4.0358996015      -31.5620657466      -19.8361646635  WZ2       569             0.0000000000
      5482      1828  TIP3      OH2             3.0699596015      -33.0008957466       -6.8442546635  WZ2       570             0.0000000000
      5483      1828  TIP3      H1              2.4515696015      -32.3262357466       -6.5637846635  WZ2       570             0.0000000000
      5484      1828  TIP3      H2              3.4140796015      -32.6795057466       -7.6776346635  WZ2       570             0.0000000000
      5485      1829  TIP3      OH2             4.8520696015      -32.6504257466      -20.9378946635  WZ2       571             0.0000000000
      5486      1829  TIP3      H1              4.6715696015      -32.8053057466      -21.8650646635  WZ2       571             0.0000000000
      5487      1829  TIP3      H2              5.8021196015      -32.5425557466      -20.8931046635  WZ2       571             0.0000000000
      5488      1830  TIP3      OH2             8.0897796015      -30.5293657466       -3.5667746635  WZ2       572             0.0000000000
      5489      1830  TIP3      H1              9.0428996015      -30.4454557466       -3.5941746635  WZ2       572             0.0000000000
      5490      1830  TIP3      H2              7.9292396015      -31.2411857466       -2.9472846635  WZ2       572             0.0000000000
      5491      1831  TIP3      OH2            14.2418996015      -30.2960057466      -21.4920846635  WZ2       573             0.0000000000
      5492      1831  TIP3      H1             13.9683796015      -30.7204557466      -22.3052546635  WZ2       573             0.0000000000
      5493      1831  TIP3      H2             14.2813096015      -29.3645557466      -21.7090446635  WZ2       573             0.0000000000
      5494      1832  TIP3      OH2             3.4093296015      -35.6458157466       -5.7619446635  WZ2       574             0.0000000000
      5495      1832  TIP3      H1              3.5594196015      -36.3746857466       -6.3639746635  WZ2       574             0.0000000000
      5496      1832  TIP3      H2              3.4115696015      -34.8686457466       -6.3207246635  WZ2       574             0.0000000000
      5497      1833  TIP3      OH2             5.4037396015      -31.8366157466       -8.0296846635  WZ2       576             0.0000000000
      5498      1833  TIP3      H1              6.1542196015      -31.9928657466       -8.6029046635  WZ2       576             0.0000000000
      5499      1833  TIP3      H2              5.0645696015      -30.9849557466       -8.3051346635  WZ2       576             0.0000000000
      5500      1834  TIP3      OH2             9.8193596015      -34.0214357466       -3.0011546635  WZ2       577             0.0000000000
      5501      1834  TIP3      H1             10.0114896015      -34.9524957466       -3.1127046635  WZ2       577             0.0000000000
      5502      1834  TIP3      H2             10.6769896015      -33.5964857466       -3.0116146635  WZ2       577             0.0000000000
      5503      1835  TIP3      OH2            11.1360796015      -31.2329157466       -4.9238846635  WZ2       578             0.0000000000
      5504      1835  TIP3      H1             10.8545796015      -30.5234557466       -5.5015046635  WZ2       578             0.0000000000
      5505      1835  TIP3      H2             12.0785096015      -31.3056157466       -5.0747646635  WZ2       578             0.0000000000
      5506      1836  TIP3      OH2             1.8879596015      -34.4474657466       -3.8503846635  WZ2       579             0.0000000000
      5507      1836  TIP3      H1              1.1208596015      -34.9799857466       -4.0606246635  WZ2       579             0.0000000000
      5508      1836  TIP3      H2              2.5668596015      -34.7574257466       -4.4497546635  WZ2       579             0.0000000000
      5509      1837  TIP3      OH2             5.8914996015      -35.4981257466       -4.2740046635  WZ2       581             0.0000000000
      5510      1837  TIP3      H1              5.6560396015      -35.7174557466       -3.3725146635  WZ2       581             0.0000000000
      5511      1837  TIP3      H2              5.1081896015      -35.7050057466       -4.7837546635  WZ2       581             0.0000000000
      5512      1838  TIP3      OH2             8.6071596015      -36.3707757466       -5.1986546635  WZ2       582             0.0000000000
      5513      1838  TIP3      H1              7.6596996015      -36.3388057466       -5.0663246635  WZ2       582             0.0000000000
      5514      1838  TIP3      H2              8.9198296015      -36.9960657466       -4.5448346635  WZ2       582             0.0000000000
      5515      1839  TIP3      OH2             0.0682396015      -36.5270857466       -4.1459146635  WZ2       584             0.0000000000
      5516      1839  TIP3      H1              0.2799796015      -37.2334757466       -4.7561646635  WZ2       584             0.0000000000
      5517      1839  TIP3      H2             -0.0430103985      -36.9644857466       -3.3017946635  WZ2       584             0.0000000000
      5518      1840  TIP3      OH2             4.7492396015      -21.9600557466      -19.9365346635  WZ2       587             0.0000000000
      5519      1840  TIP3      H1              5.6823096015      -21.8021857466      -19.7926946635  WZ2       587             0.0000000000
      5520      1840  TIP3      H2              4.4851196015      -21.2847557466      -20.5613846635  WZ2       587             0.0000000000
      5521      1841  TIP3      OH2            -1.6822703985      -27.3236757466      -20.4537246635  WZ2       588             0.0000000000
      5522      1841  TIP3      H1             -0.7683503985      -27.2447857466      -20.1803346635  WZ2       588             0.0000000000
      5523      1841  TIP3      H2             -1.6749603985      -28.0107157466      -21.1201646635  WZ2       588             0.0000000000
      5524      1842  TIP3      OH2            -3.0332103985      -21.9308257466      -15.3763346635  WZ2       589             0.0000000000
      5525      1842  TIP3      H1             -3.6805003985      -22.3926557466      -15.9092146635  WZ2       589             0.0000000000
      5526      1842  TIP3      H2             -2.6787503985      -22.6024957466      -14.7937146635  WZ2       589             0.0000000000
      5527      1843  TIP3      OH2            -2.1632903985      -23.8501257466      -13.5717146635  WZ2       590             0.0000000000
      5528      1843  TIP3      H1             -2.4976103985      -24.7303957466      -13.3996946635  WZ2       590             0.0000000000
      5529      1843  TIP3      H2             -1.9410503985      -23.5046257466      -12.7071546635  WZ2       590             0.0000000000
      5530      1844  TIP3      OH2            15.3851896015      -23.0404857466      -10.5912346635  WZ2       591             0.0000000000
      5531      1844  TIP3      H1             15.3638596015      -22.8556457466       -9.6522946635  WZ2       591             0.0000000000
      5532      1844  TIP3      H2             16.0758096015      -22.4720857466      -10.9320946635  WZ2       591             0.0000000000
      5533      1845  TIP3      OH2            14.9484796015      -23.4733757466       -7.6693246635  WZ2       592             0.0000000000
      5534      1845  TIP3      H1             14.4613496015      -24.2089657466       -8.0405846635  WZ2       592             0.0000000000
      5535      1845  TIP3      H2             15.4977496015      -23.8669857466       -6.9913846635  WZ2       592             0.0000000000
      5536      1846  TIP3      OH2            13.3992096015      -27.6835657466       -3.0312946635  WZ2       593             0.0000000000
      5537      1846  TIP3      H1             12.5333196015      -27.7885957466       -2.6370646635  WZ2       593             0.0000000000
      5538      1846  TIP3      H2             13.7757996015      -26.9252357466       -2.5848246635  WZ2       593             0.0000000000
      5539      1847  TIP3      OH2            14.7001796015      -29.4271957466      -17.5170446635  WZ2       594             0.0000000000
      5540      1847  TIP3      H1             15.5503196015      -29.0061057466      -17.3898846635  WZ2       594             0.0000000000
      5541      1847  TIP3      H2             14.7056896015      -30.1671857466      -16.9099046635  WZ2       594             0.0000000000
      5542      1848  TIP3      OH2            15.0947396015      -31.3734557466      -15.6934746635  WZ2       595             0.0000000000
      5543      1848  TIP3      H1             14.3681996015      -31.8531957466      -15.2957146635  WZ2       595             0.0000000000
      5544      1848  TIP3      H2             15.6760696015      -31.1679857466      -14.9613146635  WZ2       595             0.0000000000
      5545      1849  TIP3      OH2            14.8538596015      -28.5887057466      -10.7457146635  WZ2       596             0.0000000000
      5546      1849  TIP3      H1             15.6872796015      -28.9667057466      -11.0263546635  WZ2       596             0.0000000000
      5547      1849  TIP3      H2             14.9658896015      -27.6455857466      -10.8648046635  WZ2       596             0.0000000000
      5548      1850  TIP3      OH2            13.3400896015      -25.7109557466       -8.4388746635  WZ2       597             0.0000000000
      5549      1850  TIP3      H1             12.6926196015      -25.3858057466       -7.8133546635  WZ2       597             0.0000000000
      5550      1850  TIP3      H2             12.8224896015      -26.1511857466       -9.1130446635  WZ2       597             0.0000000000
      5551      1851  TIP3      OH2            15.3630496015      -31.4726057466      -19.3023446635  WZ2       598             0.0000000000
      5552      1851  TIP3      H1             14.8411596015      -31.1161957466      -20.0212546635  WZ2       598             0.0000000000
      5553      1851  TIP3      H2             15.3299696015      -30.7978257466      -18.6242546635  WZ2       598             0.0000000000
      5554      1852  TIP3      OH2            13.7119496015      -34.2330457466      -20.7516346635  WZ2       599             0.0000000000
      5555      1852  TIP3      H1             13.8083896015      -33.5663457466      -21.4316646635  WZ2       599             0.0000000000
      5556      1852  TIP3      H2             13.5719096015      -35.0484157466      -21.2330846635  WZ2       599             0.0000000000
      5557      1853  TIP3      OH2            12.8814196015      -32.8528057466      -15.1306046635  WZ2       600             0.0000000000
      5558      1853  TIP3      H1             12.7312996015      -33.7979457466      -15.1508246635  WZ2       600             0.0000000000
      5559      1853  TIP3      H2             12.5278696015      -32.5716657466      -14.2866946635  WZ2       600             0.0000000000
      5560      1854  TIP3      OH2            -2.0833403985      -30.7745857466      -11.1202246635  WZ2       601             0.0000000000
      5561      1854  TIP3      H1             -1.8990503985      -30.8564157466      -12.0559346635  WZ2       601             0.0000000000
      5562      1854  TIP3      H2             -1.2340503985      -30.8988857466      -10.6965846635  WZ2       601             0.0000000000
      5563      1855  TIP3      OH2            13.7377096015      -30.8824757466       -5.4917746635  WZ2       602             0.0000000000
      5564      1855  TIP3      H1             14.3204396015      -31.6172457466       -5.3000546635  WZ2       602             0.0000000000
      5565      1855  TIP3      H2             14.3016396015      -30.1104457466       -5.4451946635  WZ2       602             0.0000000000
      5566      1856  TIP3      OH2            15.2344196015      -32.9798957466       -4.8072346635  WZ2       603             0.0000000000
      5567      1856  TIP3      H1             14.3710896015      -33.3586857466       -4.9727646635  WZ2       603             0.0000000000
      5568      1856  TIP3      H2             15.8387896015      -33.7184157466       -4.8816546635  WZ2       603             0.0000000000
      5569      1857  TIP3      OH2            12.5918996015      -35.2702257466      -16.6680946635  WZ2       605             0.0000000000
      5570      1857  TIP3      H1             12.8716096015      -36.1771857466      -16.5439246635  WZ2       605             0.0000000000
      5571      1857  TIP3      H2             13.3510696015      -34.8360757466      -17.0571746635  WZ2       605             0.0000000000
      5572      1858  TIP3      OH2            13.2037296015      -34.6884857466      -11.2322046635  WZ2       606             0.0000000000
      5573      1858  TIP3      H1             14.1365296015      -34.4764957466      -11.2666046635  WZ2       606             0.0000000000
      5574      1858  TIP3      H2             12.9684796015      -34.5872757466      -10.3099046635  WZ2       606             0.0000000000
      5575      1859  TIP3      OH2            13.2329196015      -33.9519557466       -8.4562646635  WZ2       607             0.0000000000
      5576      1859  TIP3      H1             12.3900496015      -33.6839157466       -8.0902846635  WZ2       607             0.0000000000
      5577      1859  TIP3      H2             13.6753496015      -33.1297657466       -8.6671546635  WZ2       607             0.0000000000
      5578      1860  TIP3      OH2            -2.4858603985      -35.5040857466       -4.9793446635  WZ2       608             0.0000000000
      5579      1860  TIP3      H1             -1.5663703985      -35.6262557466       -4.7430346635  WZ2       608             0.0000000000
      5580      1860  TIP3      H2             -2.9354103985      -36.2541157466       -4.5899946635  WZ2       608             0.0000000000
      5581      1861  TIP3      OH2            -2.9605803985      -34.1926257466      -11.0190346635  WZ2       612             0.0000000000
      5582      1861  TIP3      H1             -2.4686003985      -34.4135757466      -11.8098346635  WZ2       612             0.0000000000
      5583      1861  TIP3      H2             -2.5984903985      -33.3522857466      -10.7380846635  WZ2       612             0.0000000000
      5584      1862  TIP3      OH2            12.1237896015      -22.9505457466      -15.0190546635  WZ2       616             0.0000000000
      5585      1862  TIP3      H1             12.7760796015      -23.2983357466      -15.6271446635  WZ2       616             0.0000000000
      5586      1862  TIP3      H2             12.6341696015      -22.4622257466      -14.3730846635  WZ2       616             0.0000000000
      5587      1863  TIP3      OH2            -0.4914603985      -26.0214057466       -4.4759646635  WZ2       618             0.0000000000
      5588      1863  TIP3      H1             -1.3122103985      -25.8467557466       -4.9364946635  WZ2       618             0.0000000000
      5589      1863  TIP3      H2             -0.7436803985      -26.0949357466       -3.5555246635  WZ2       618             0.0000000000
      5590      1864  TIP3      OH2             2.4628296015      -25.0472857466       -8.2175646635  WZ2       619             0.0000000000
      5591      1864  TIP3      H1              2.0379396015      -24.2374357466       -8.5001046635  WZ2       619             0.0000000000
      5592      1864  TIP3      H2              3.3671096015      -24.9618757466       -8.5195846635  WZ2       619             0.0000000000
      5593      1865  TIP3      OH2             6.7739696015      -23.6482857466       -5.2581946635  WZ2       620             0.0000000000
      5594      1865  TIP3      H1              6.9587196015      -23.9816757466       -4.3801646635  WZ2       620             0.0000000000
      5595      1865  TIP3      H2              7.6204196015      -23.3384257466       -5.5802746635  WZ2       620             0.0000000000
      5596      1866  TIP3      OH2             9.1190096015      -22.3623957466       -6.0140546635  WZ2       621             0.0000000000
      5597      1866  TIP3      H1              9.7958996015      -22.9951657466       -6.2541346635  WZ2       621             0.0000000000
      5598      1866  TIP3      H2              9.4408896015      -21.9613457466       -5.2067246635  WZ2       621             0.0000000000
      5599      1867  TIP3      OH2            -0.1355003985      -21.7908957466       -8.1700346635  WZ2       623             0.0000000000
      5600      1867  TIP3      H1             -0.8558603985      -21.3507957466       -8.6212646635  WZ2       623             0.0000000000
      5601      1867  TIP3      H2             -0.5011003985      -22.0414257466       -7.3216346635  WZ2       623             0.0000000000
      5602      1868  TIP3      OH2             2.3317596015      -22.1905057466       -9.1403146635  WZ2       624             0.0000000000
      5603      1868  TIP3      H1              1.4669796015      -22.1186557466       -8.7363046635  WZ2       624             0.0000000000
      5604      1868  TIP3      H2              2.2766596015      -21.6437757466       -9.9240646635  WZ2       624             0.0000000000
      5605      1869  TIP3      OH2             7.0423196015      -22.3026157466       -9.9647146635  WZ2       625             0.0000000000
      5606      1869  TIP3      H1              6.5857196015      -21.7736457466      -10.6188746635  WZ2       625             0.0000000000
      5607      1869  TIP3      H2              7.2051196015      -21.6994757466       -9.2394846635  WZ2       625             0.0000000000
      5608      1870  TIP3      OH2             9.3699496015      -23.4246557466       -9.0196846635  WZ2       626             0.0000000000
      5609      1870  TIP3      H1              8.4653196015      -23.2596357466       -9.2854746635  WZ2       626             0.0000000000
      5610      1870  TIP3      H2              9.7988096015      -22.5714357466       -9.0853446635  WZ2       626             0.0000000000
      5611      1871  TIP3      OH2            11.9741396015      -21.8547457466       -8.7249046635  WZ2       627             0.0000000000
      5612      1871  TIP3      H1             11.7923396015      -20.9388557466       -8.9354146635  WZ2       627             0.0000000000
      5613      1871  TIP3      H2             12.1509196015      -22.2650357466       -9.5714446635  WZ2       627             0.0000000000
      5614      1872  TIP3      OH2            -0.7206903985      -23.1676457466      -11.2598546635  WZ2       628             0.0000000000
      5615      1872  TIP3      H1             -0.7390903985      -23.5931357466      -10.4026246635  WZ2       628             0.0000000000
      5616      1872  TIP3      H2              0.0840996015      -23.4861457466      -11.6686346635  WZ2       628             0.0000000000
      5617      1873  TIP3      OH2             1.4206196015      -24.4577757466      -12.6048646635  WZ2       629             0.0000000000
      5618      1873  TIP3      H1              1.2016896015      -25.3740357466      -12.4352646635  WZ2       629             0.0000000000
      5619      1873  TIP3      H2              2.2448396015      -24.3177357466      -12.1387246635  WZ2       629             0.0000000000
      5620      1874  TIP3      OH2             3.9578696015      -23.9878457466      -11.7560646635  WZ2       630             0.0000000000
      5621      1874  TIP3      H1              4.1704396015      -24.8759457466      -12.0429746635  WZ2       630             0.0000000000
      5622      1874  TIP3      H2              4.0223796015      -24.0220757466      -10.8016646635  WZ2       630             0.0000000000
      5623      1875  TIP3      OH2            -1.4697203985      -23.9437257466      -18.0886246635  WZ2       639             0.0000000000
      5624      1875  TIP3      H1             -2.1547303985      -23.9818357466      -18.7561146635  WZ2       639             0.0000000000
      5625      1875  TIP3      H2             -1.4660003985      -23.0309657466      -17.8004146635  WZ2       639             0.0000000000
      5626      1876  TIP3      OH2             7.3946296015      -22.7342357466      -19.6910046635  WZ2       642             0.0000000000
      5627      1876  TIP3      H1              8.2606496015      -22.3674957466      -19.8691846635  WZ2       642             0.0000000000
      5628      1876  TIP3      H2              7.1479096015      -23.1734357466      -20.5049246635  WZ2       642             0.0000000000
      5629      1877  TIP3      OH2            14.1035896015      -23.1712057466      -17.0118946635  WZ2       643             0.0000000000
      5630      1877  TIP3      H1             13.9092996015      -23.9189957466      -17.5769346635  WZ2       643             0.0000000000
      5631      1877  TIP3      H2             14.0645996015      -22.4131957466      -17.5951046635  WZ2       643             0.0000000000
      5632      1878  TIP3      OH2             0.3483996015      -23.0236457466      -21.0634146635  WZ2       646             0.0000000000
      5633      1878  TIP3      H1              0.0808596015      -22.7373557466      -20.1901046635  WZ2       646             0.0000000000
      5634      1878  TIP3      H2              1.1196596015      -23.5697257466      -20.9111646635  WZ2       646             0.0000000000
      5635      1879  TIP3      OH2            13.3212096015      -24.4199657466       -4.8617146635  WZ2       648             0.0000000000
      5636      1879  TIP3      H1             12.5393996015      -24.6061657466       -5.3816546635  WZ2       648             0.0000000000
      5637      1879  TIP3      H2             13.2491996015      -23.4905357466       -4.6444646635  WZ2       648             0.0000000000
      5638      1880  TIP3      OH2            27.7272496015      -30.5335257466      -14.8309946635  WZ2       649             0.0000000000
      5639      1880  TIP3      H1             27.8163596015      -29.5897057466      -14.9632846635  WZ2       649             0.0000000000
      5640      1880  TIP3      H2             27.0890096015      -30.8088857466      -15.4890546635  WZ2       649             0.0000000000
      5641      1881  TIP3      OH2            26.6603796015      -31.2784557466      -11.4121746635  WZ2       650             0.0000000000
      5642      1881  TIP3      H1             26.6221296015      -31.9248257466      -10.7072146635  WZ2       650             0.0000000000
      5643      1881  TIP3      H2             26.3380296015      -31.7450157466      -12.1833046635  WZ2       650             0.0000000000
      5644      1882  TIP3      OH2            19.0288796015      -31.6642457466       -9.8191846635  WZ2       651             0.0000000000
      5645      1882  TIP3      H1             19.0700896015      -32.2899157466       -9.0959446635  WZ2       651             0.0000000000
      5646      1882  TIP3      H2             19.7316496015      -31.0403857466       -9.6371446635  WZ2       651             0.0000000000
      5647      1883  TIP3      OH2            19.9521896015      -27.2143557466      -11.2842746635  WZ2       653             0.0000000000
      5648      1883  TIP3      H1             19.5827096015      -28.0163057466      -11.6538446635  WZ2       653             0.0000000000
      5649      1883  TIP3      H2             20.8932996015      -27.3828657466      -11.2379346635  WZ2       653             0.0000000000
      5650      1884  TIP3      OH2            16.5622396015      -33.5540957466      -15.8913946635  WZ2       654             0.0000000000
      5651      1884  TIP3      H1             16.1145796015      -32.7082257466      -15.9097446635  WZ2       654             0.0000000000
      5652      1884  TIP3      H2             16.0013596015      -34.1336757466      -16.4068846635  WZ2       654             0.0000000000
      5653      1885  TIP3      OH2            17.2728496015      -31.3921357466      -13.7655946635  WZ2       655             0.0000000000
      5654      1885  TIP3      H1             17.4861996015      -32.1619757466      -13.2382946635  WZ2       655             0.0000000000
      5655      1885  TIP3      H2             18.0106096015      -31.3024657466      -14.3688346635  WZ2       655             0.0000000000
      5656      1886  TIP3      OH2            27.4779496015      -23.2352457466      -12.8986246635  WZ2       656             0.0000000000
      5657      1886  TIP3      H1             28.0975896015      -23.9117757466      -13.1717046635  WZ2       656             0.0000000000
      5658      1886  TIP3      H2             27.2696896015      -23.4531657466      -11.9901346635  WZ2       656             0.0000000000
      5659      1887  TIP3      OH2            25.0498196015      -28.8463157466      -11.0060746635  WZ2       657             0.0000000000
      5660      1887  TIP3      H1             25.3536096015      -29.5321757466      -11.6006646635  WZ2       657             0.0000000000
      5661      1887  TIP3      H2             25.7712196015      -28.7274457466      -10.3882746635  WZ2       657             0.0000000000
      5662      1888  TIP3      OH2            21.3453496015      -36.3504357466      -13.4061146635  WZ2       660             0.0000000000
      5663      1888  TIP3      H1             21.3884596015      -35.4905857466      -13.8244846635  WZ2       660             0.0000000000
      5664      1888  TIP3      H2             20.8877596015      -36.9029657466      -14.0397946635  WZ2       660             0.0000000000
      5665      1889  TIP3      OH2            17.9654996015      -33.9538557466      -12.6439746635  WZ2       662             0.0000000000
      5666      1889  TIP3      H1             18.6191596015      -34.5036857466      -12.2119646635  WZ2       662             0.0000000000
      5667      1889  TIP3      H2             17.9894296015      -34.2279557466      -13.5607746635  WZ2       662             0.0000000000
      5668      1890  TIP3      OH2            23.1219496015      -32.4037257466      -13.4288246635  WZ2       663             0.0000000000
      5669      1890  TIP3      H1             23.7380496015      -32.9301857466      -12.9194246635  WZ2       663             0.0000000000
      5670      1890  TIP3      H2             22.5358296015      -33.0438557466      -13.8324646635  WZ2       663             0.0000000000
      5671      1891  TIP3      OH2            27.5245196015      -27.9324857466      -15.7881246635  WZ2       666             0.0000000000
      5672      1891  TIP3      H1             27.2290296015      -28.2552557466      -16.6394346635  WZ2       666             0.0000000000
      5673      1891  TIP3      H2             27.2002996015      -27.0328157466      -15.7468646635  WZ2       666             0.0000000000
      5674      1892  TIP3      OH2            22.7246796015      -29.7570257466       -9.0446646635  WZ2       667             0.0000000000
      5675      1892  TIP3      H1             21.9845896015      -29.1588757466       -8.9411446635  WZ2       667             0.0000000000
      5676      1892  TIP3      H2             23.4386296015      -29.2030657466       -9.3603046635  WZ2       667             0.0000000000
      5677      1893  TIP3      OH2            19.7492696015      -35.5404157466      -11.3798146635  WZ2       669             0.0000000000
      5678      1893  TIP3      H1             20.3628996015      -34.9076557466      -11.0065746635  WZ2       669             0.0000000000
      5679      1893  TIP3      H2             20.2613396015      -36.0129157466      -12.0361246635  WZ2       669             0.0000000000
      5680      1894  TIP3      OH2            21.1321096015      -27.7927257466       -8.2575146635  WZ2       670             0.0000000000
      5681      1894  TIP3      H1             21.1268696015      -26.9133757466       -8.6355846635  WZ2       670             0.0000000000
      5682      1894  TIP3      H2             20.2785196015      -27.8763157466       -7.8325246635  WZ2       670             0.0000000000
      5683      1895  TIP3      OH2            17.2531996015      -28.1219357466      -17.4755846635  WZ2       671             0.0000000000
      5684      1895  TIP3      H1             16.9812896015      -27.8928357466      -18.3642946635  WZ2       671             0.0000000000
      5685      1895  TIP3      H2             17.2987696015      -27.2840557466      -17.0150546635  WZ2       671             0.0000000000
      5686      1896  TIP3      OH2            29.1302896015      -24.7189957466      -14.1375746635  WZ2       675             0.0000000000
      5687      1896  TIP3      H1             29.5555196015      -25.4262057466      -14.6226146635  WZ2       675             0.0000000000
      5688      1896  TIP3      H2             29.4472896015      -23.9177257466      -14.5543546635  WZ2       675             0.0000000000
      5689      1897  TIP3      OH2            26.4484996015      -31.2895257466      -17.3789646635  WZ2       678             0.0000000000
      5690      1897  TIP3      H1             25.7370496015      -30.7545557466      -17.7309146635  WZ2       678             0.0000000000
      5691      1897  TIP3      H2             27.1394596015      -31.2343157466      -18.0390746635  WZ2       678             0.0000000000
      5692      1898  TIP3      OH2            21.4996396015      -30.4495757466      -14.5448746635  WZ2       683             0.0000000000
      5693      1898  TIP3      H1             21.1691596015      -30.8202357466      -15.3631746635  WZ2       683             0.0000000000
      5694      1898  TIP3      H2             22.0880496015      -31.1201757466      -14.1980446635  WZ2       683             0.0000000000
      5695      1899  TIP3      OH2            22.8663896015      -27.0215157466      -11.8636546635  WZ2       684             0.0000000000
      5696      1899  TIP3      H1             22.7715196015      -27.6002057466      -12.6201946635  WZ2       684             0.0000000000
      5697      1899  TIP3      H2             23.5957496015      -27.3929457466      -11.3673746635  WZ2       684             0.0000000000
      5698      1900  TIP3      OH2            21.8661896015      -31.6810157466      -10.9113746635  WZ2       685             0.0000000000
      5699      1900  TIP3      H1             22.4314396015      -31.5595957466      -11.6742546635  WZ2       685             0.0000000000
      5700      1900  TIP3      H2             22.1850796015      -31.0435157466      -10.2725246635  WZ2       685             0.0000000000
      5701      1901  TIP3      OH2            28.1754096015      -26.1778257466      -10.1773246635  WZ2       686             0.0000000000
      5702      1901  TIP3      H1             27.9350696015      -25.5155157466       -9.5294046635  WZ2       686             0.0000000000
      5703      1901  TIP3      H2             27.9772296015      -27.0123057466       -9.7523646635  WZ2       686             0.0000000000
      5704      1902  TIP3      OH2            22.7462596015      -27.2817457466       -6.1941846635  WZ2       687             0.0000000000
      5705      1902  TIP3      H1             22.4350096015      -26.4994257466       -5.7388646635  WZ2       687             0.0000000000
      5706      1902  TIP3      H2             22.0962796015      -27.4348357466       -6.8799846635  WZ2       687             0.0000000000
      5707      1903  TIP3      OH2            19.6662496015      -31.0836357466       -6.9656146635  WZ2       689             0.0000000000
      5708      1903  TIP3      H1             19.7365696015      -30.4329557466       -6.2671146635  WZ2       689             0.0000000000
      5709      1903  TIP3      H2             18.7754696015      -30.9808857466       -7.3005246635  WZ2       689             0.0000000000
      5710      1904  TIP3      OH2            26.4517096015      -25.1810557466      -15.3069446635  WZ2       690             0.0000000000
      5711      1904  TIP3      H1             26.9254696015      -24.8854257466      -14.5295246635  WZ2       690             0.0000000000
      5712      1904  TIP3      H2             25.8886396015      -24.4428957466      -15.5399846635  WZ2       690             0.0000000000
      5713      1905  TIP3      OH2            20.9858496015      -25.2102457466       -5.4308046635  WZ2       691             0.0000000000
      5714      1905  TIP3      H1             20.9933796015      -25.3462757466       -6.3782546635  WZ2       691             0.0000000000
      5715      1905  TIP3      H2             20.0698896015      -25.3274357466       -5.1788046635  WZ2       691             0.0000000000
      5716      1906  TIP3      OH2            20.4899096015      -31.3801457466      -16.9555946635  WZ2       693             0.0000000000
      5717      1906  TIP3      H1             20.1980396015      -30.6119757466      -17.4464646635  WZ2       693             0.0000000000
      5718      1906  TIP3      H2             19.8154296015      -32.0395257466      -17.1184546635  WZ2       693             0.0000000000
      5719      1907  TIP3      OH2            16.5829196015      -29.0172257466       -8.1406146635  WZ2       695             0.0000000000
      5720      1907  TIP3      H1             16.0817596015      -29.0452857466       -8.9556446635  WZ2       695             0.0000000000
      5721      1907  TIP3      H2             16.5882896015      -29.9229057466       -7.8308846635  WZ2       695             0.0000000000
      5722      1908  TIP3      OH2            16.3331896015      -26.2368457466      -11.2565946635  WZ2       696             0.0000000000
      5723      1908  TIP3      H1             17.2792496015      -26.3811457466      -11.2756446635  WZ2       696             0.0000000000
      5724      1908  TIP3      H2             16.2208196015      -25.4525657466      -10.7194746635  WZ2       696             0.0000000000
      5725      1909  TIP3      OH2            25.5094396015      -25.9969557466       -6.6980846635  WZ2       698             0.0000000000
      5726      1909  TIP3      H1             25.5968996015      -25.1704957466       -6.2231746635  WZ2       698             0.0000000000
      5727      1909  TIP3      H2             24.6459496015      -26.3265757466       -6.4491546635  WZ2       698             0.0000000000
      5728      1910  TIP3      OH2            25.9240196015      -22.2245857466      -16.8920246635  WZ2       699             0.0000000000
      5729      1910  TIP3      H1             25.8486196015      -22.3458657466      -17.8385046635  WZ2       699             0.0000000000
      5730      1910  TIP3      H2             25.9568896015      -21.2753157466      -16.7735646635  WZ2       699             0.0000000000
      5731      1911  TIP3      OH2            19.5773996015      -23.4358857466      -15.1111246635  WZ2       700             0.0000000000
      5732      1911  TIP3      H1             19.7294396015      -23.7838457466      -14.2324746635  WZ2       700             0.0000000000
      5733      1911  TIP3      H2             18.7264396015      -23.7921557466      -15.3664046635  WZ2       700             0.0000000000
      5734      1912  TIP3      OH2            29.0256196015      -23.0705657466      -19.8897846635  WZ2       701             0.0000000000
      5735      1912  TIP3      H1             29.4004596015      -23.8149557466      -20.3605246635  WZ2       701             0.0000000000
      5736      1912  TIP3      H2             29.0299896015      -23.3405057466      -18.9714546635  WZ2       701             0.0000000000
      5737      1913  TIP3      OH2            28.6944296015      -23.1448557466      -17.1405646635  WZ2       702             0.0000000000
      5738      1913  TIP3      H1             27.7594096015      -23.0446657466      -16.9618646635  WZ2       702             0.0000000000
      5739      1913  TIP3      H2             28.9746196015      -23.8542557466      -16.5622446635  WZ2       702             0.0000000000
      5740      1914  TIP3      OH2            18.8319696015      -27.6936857466       -7.0973346635  WZ2       704             0.0000000000
      5741      1914  TIP3      H1             19.0480996015      -28.0551257466       -6.2377546635  WZ2       704             0.0000000000
      5742      1914  TIP3      H2             17.9764396015      -28.0683057466       -7.3069846635  WZ2       704             0.0000000000
      5743      1915  TIP3      OH2            21.5417796015      -34.2581857466      -10.0068946635  WZ2       710             0.0000000000
      5744      1915  TIP3      H1             20.8999896015      -34.2984557466       -9.2978846635  WZ2       710             0.0000000000
      5745      1915  TIP3      H2             21.5789796015      -33.3317157466      -10.2445946635  WZ2       710             0.0000000000
      5746      1916  TIP3      OH2            21.5386896015      -34.0371757466      -15.0948946635  WZ2       711             0.0000000000
      5747      1916  TIP3      H1             20.6459796015      -34.3775657466      -15.1535146635  WZ2       711             0.0000000000
      5748      1916  TIP3      H2             21.9893496015      -34.4140857466      -15.8505746635  WZ2       711             0.0000000000
      5749      1917  TIP3      OH2            27.0742396015      -33.6211457466      -16.2778146635  WZ2       712             0.0000000000
      5750      1917  TIP3      H1             26.6652696015      -32.8062857466      -16.5693346635  WZ2       712             0.0000000000
      5751      1917  TIP3      H2             27.7948596015      -33.7611357466      -16.8921046635  WZ2       712             0.0000000000
      5752      1918  TIP3      OH2            26.1763996015      -33.4455057466       -4.7897446635  WZ2       713             0.0000000000
      5753      1918  TIP3      H1             25.6137796015      -34.1503457466       -4.4689646635  WZ2       713             0.0000000000
      5754      1918  TIP3      H2             27.0027396015      -33.5663157466       -4.3219846635  WZ2       713             0.0000000000
      5755      1919  TIP3      OH2            19.2918296015      -33.9378357466       -8.1396946635  WZ2       715             0.0000000000
      5756      1919  TIP3      H1             19.2537696015      -33.5376757466       -7.2709846635  WZ2       715             0.0000000000
      5757      1919  TIP3      H2             18.8009396015      -34.7545957466       -8.0494046635  WZ2       715             0.0000000000
      5758      1920  TIP3      OH2            17.1741196015      -36.0754557466      -18.8651846635  WZ2       718             0.0000000000
      5759      1920  TIP3      H1             17.6482896015      -35.4844657466      -19.4500946635  WZ2       718             0.0000000000
      5760      1920  TIP3      H2             16.4567596015      -35.5451657466      -18.5181746635  WZ2       718             0.0000000000
      5761      1921  TIP3      OH2            27.3429296015      -32.5369757466       -8.7926046635  WZ2       719             0.0000000000
      5762      1921  TIP3      H1             27.6664096015      -33.1680057466       -9.4355546635  WZ2       719             0.0000000000
      5763      1921  TIP3      H2             26.9028596015      -33.0717557466       -8.1318646635  WZ2       719             0.0000000000
      5764      1922  TIP3      OH2            24.1202196015      -36.6094257466      -14.0084846635  WZ2       720             0.0000000000
      5765      1922  TIP3      H1             23.2093296015      -36.5527457466      -13.7198846635  WZ2       720             0.0000000000
      5766      1922  TIP3      H2             24.6255096015      -36.6698757466      -13.1977646635  WZ2       720             0.0000000000
      5767      1923  TIP3      OH2            18.9485596015      -34.9807957466      -15.1817246635  WZ2       721             0.0000000000
      5768      1923  TIP3      H1             18.0593596015      -34.8812457466      -15.5217646635  WZ2       721             0.0000000000
      5769      1923  TIP3      H2             19.2450496015      -35.8224957466      -15.5279346635  WZ2       721             0.0000000000
      5770      1924  TIP3      OH2            22.6017396015      -34.9805357466      -17.5252646635  WZ2       722             0.0000000000
      5771      1924  TIP3      H1             23.5332896015      -34.8515357466      -17.3469546635  WZ2       722             0.0000000000
      5772      1924  TIP3      H2             22.3867696015      -34.3111057466      -18.1747946635  WZ2       722             0.0000000000
      5773      1925  TIP3      OH2            21.2757596015      -33.7863157466      -19.9586546635  WZ2       724             0.0000000000
      5774      1925  TIP3      H1             20.7332696015      -34.1659357466      -20.6498946635  WZ2       724             0.0000000000
      5775      1925  TIP3      H2             22.1092496015      -33.5918457466      -20.3872446635  WZ2       724             0.0000000000
      5776      1926  TIP3      OH2            19.4108996015      -29.2291257466       -4.8594946635  WZ2       726             0.0000000000
      5777      1926  TIP3      H1             20.1431396015      -28.9745357466       -4.2980446635  WZ2       726             0.0000000000
      5778      1926  TIP3      H2             18.6307696015      -29.0245857466       -4.3439546635  WZ2       726             0.0000000000
      5779      1927  TIP3      OH2            25.4401896015      -33.8221257466      -12.1215246635  WZ2       727             0.0000000000
      5780      1927  TIP3      H1             26.0045296015      -34.3684657466      -12.6685646635  WZ2       727             0.0000000000
      5781      1927  TIP3      H2             25.2925296015      -34.3439357466      -11.3327646635  WZ2       727             0.0000000000
      5782      1928  TIP3      OH2            24.0667796015      -35.4335157466       -9.7074846635  WZ2       729             0.0000000000
      5783      1928  TIP3      H1             23.2313096015      -34.9795657466       -9.5972446635  WZ2       729             0.0000000000
      5784      1928  TIP3      H2             24.5908396015      -35.1576657466       -8.9554946635  WZ2       729             0.0000000000
      5785      1929  TIP3      OH2            24.6110396015      -29.2207457466      -18.0228446635  WZ2       730             0.0000000000
      5786      1929  TIP3      H1             23.8661396015      -29.7282157466      -18.3450546635  WZ2       730             0.0000000000
      5787      1929  TIP3      H2             24.4767596015      -29.1719457466      -17.0763646635  WZ2       730             0.0000000000
      5788      1930  TIP3      OH2            26.1302496015      -29.0364157466       -6.7859346635  WZ2       733             0.0000000000
      5789      1930  TIP3      H1             25.7848596015      -29.4181757466       -5.9789746635  WZ2       733             0.0000000000
      5790      1930  TIP3      H2             25.9302596015      -28.1030557466       -6.7146446635  WZ2       733             0.0000000000
      5791      1931  TIP3      OH2            19.7358696015      -29.9257457466      -12.2530546635  WZ2       735             0.0000000000
      5792      1931  TIP3      H1             20.4805896015      -29.9281757466      -12.8544046635  WZ2       735             0.0000000000
      5793      1931  TIP3      H2             19.8135296015      -30.7493657466      -11.7715446635  WZ2       735             0.0000000000
      5794      1932  TIP3      OH2            26.7364496015      -27.7623157466      -18.9973846635  WZ2       736             0.0000000000
      5795      1932  TIP3      H1             26.4412896015      -26.9355257466      -18.6159046635  WZ2       736             0.0000000000
      5796      1932  TIP3      H2             26.0334496015      -28.3816257466      -18.8012446635  WZ2       736             0.0000000000
      5797      1933  TIP3      OH2            16.7438396015      -31.4650557466       -6.9382046635  WZ2       737             0.0000000000
      5798      1933  TIP3      H1             16.9666996015      -31.8830957466       -6.1064546635  WZ2       737             0.0000000000
      5799      1933  TIP3      H2             16.1418496015      -32.0775557466       -7.3609246635  WZ2       737             0.0000000000
      5800      1934  TIP3      OH2            23.7603296015      -31.9480657466       -4.7252346635  WZ2       738             0.0000000000
      5801      1934  TIP3      H1             23.4644096015      -32.1137657466       -5.6203246635  WZ2       738             0.0000000000
      5802      1934  TIP3      H2             24.6918496015      -32.1680357466       -4.7358446635  WZ2       738             0.0000000000
      5803      1935  TIP3      OH2            28.3806096015      -26.5748657466       -6.8354346635  WZ2       739             0.0000000000
      5804      1935  TIP3      H1             27.4800396015      -26.3916057466       -7.1030446635  WZ2       739             0.0000000000
      5805      1935  TIP3      H2             28.4147196015      -26.3159357466       -5.9145546635  WZ2       739             0.0000000000
      5806      1936  TIP3      OH2            22.1108096015      -26.4079257466      -14.8489046635  WZ2       744             0.0000000000
      5807      1936  TIP3      H1             22.6380296015      -25.6344857466      -15.0490246635  WZ2       744             0.0000000000
      5808      1936  TIP3      H2             21.2306596015      -26.1830057466      -15.1505046635  WZ2       744             0.0000000000
      5809      1937  TIP3      OH2            17.8655796015      -31.5455157466      -20.2616646635  WZ2       745             0.0000000000
      5810      1937  TIP3      H1             18.4815696015      -30.9187957466      -19.8821846635  WZ2       745             0.0000000000
      5811      1937  TIP3      H2             17.0038396015      -31.2295357466      -19.9900146635  WZ2       745             0.0000000000
      5812      1938  TIP3      OH2            23.5380396015      -28.7449357466      -15.2724746635  WZ2       746             0.0000000000
      5813      1938  TIP3      H1             23.2970396015      -27.8194957466      -15.2309446635  WZ2       746             0.0000000000
      5814      1938  TIP3      H2             22.7973996015      -29.2038057466      -14.8760846635  WZ2       746             0.0000000000
      5815      1939  TIP3      OH2            24.0526996015      -24.5955757466       -8.9573646635  WZ2       747             0.0000000000
      5816      1939  TIP3      H1             24.4151696015      -23.7410157466       -9.1909246635  WZ2       747             0.0000000000
      5817      1939  TIP3      H2             24.5842196015      -24.8874157466       -8.2167346635  WZ2       747             0.0000000000
      5818      1940  TIP3      OH2            22.2211196015      -23.7231757466      -15.7272546635  WZ2       748             0.0000000000
      5819      1940  TIP3      H1             21.2711696015      -23.6174357466      -15.6759246635  WZ2       748             0.0000000000
      5820      1940  TIP3      H2             22.5729296015      -22.9024357466      -15.3825046635  WZ2       748             0.0000000000
      5821      1941  TIP3      OH2            27.5967796015      -28.4965057466       -9.2568046635  WZ2       749             0.0000000000
      5822      1941  TIP3      H1             27.1709096015      -28.7243357466       -8.4304046635  WZ2       749             0.0000000000
      5823      1941  TIP3      H2             28.1773596015      -29.2353257466       -9.4392746635  WZ2       749             0.0000000000
      5824      1942  TIP3      OH2            30.2551996015      -23.9445557466       -6.7873246635  WZ2       751             0.0000000000
      5825      1942  TIP3      H1             29.6535196015      -24.5002657466       -7.2826946635  WZ2       751             0.0000000000
      5826      1942  TIP3      H2             30.5365696015      -23.2775757466       -7.4135846635  WZ2       751             0.0000000000
      5827      1943  TIP3      OH2            18.3777896015      -36.7117857466       -7.3800646635  WZ2       753             0.0000000000
      5828      1943  TIP3      H1             17.4850196015      -36.3732457466       -7.4476646635  WZ2       753             0.0000000000
      5829      1943  TIP3      H2             18.2790696015      -37.5671757466       -6.9619846635  WZ2       753             0.0000000000
      5830      1944  TIP3      OH2            18.0289896015      -24.9073457466       -8.9451246635  WZ2       755             0.0000000000
      5831      1944  TIP3      H1             18.2460196015      -25.8391057466       -8.9761546635  WZ2       755             0.0000000000
      5832      1944  TIP3      H2             18.2753396015      -24.6328457466       -8.0618446635  WZ2       755             0.0000000000
      5833      1945  TIP3      OH2            23.8904496015      -26.4558457466      -21.7359046635  WZ2       756             0.0000000000
      5834      1945  TIP3      H1             24.1294296015      -27.2040357466      -22.2830146635  WZ2       756             0.0000000000
      5835      1945  TIP3      H2             23.6215796015      -26.8436757466      -20.9031246635  WZ2       756             0.0000000000
      5836      1946  TIP3      OH2            22.8275096015      -26.8854657466      -19.2796446635  WZ2       757             0.0000000000
      5837      1946  TIP3      H1             22.9743096015      -27.4054857466      -18.4895546635  WZ2       757             0.0000000000
      5838      1946  TIP3      H2             22.8246796015      -25.9787057466      -18.9730546635  WZ2       757             0.0000000000
      5839      1947  TIP3      OH2            19.2806196015      -29.6331357466      -18.7691046635  WZ2       758             0.0000000000
      5840      1947  TIP3      H1             18.5945496015      -29.2808857466      -18.2021346635  WZ2       758             0.0000000000
      5841      1947  TIP3      H2             19.8034096015      -28.8701757466      -19.0156746635  WZ2       758             0.0000000000
      5842      1948  TIP3      OH2            25.5652296015      -25.1881057466      -18.5302246635  WZ2       761             0.0000000000
      5843      1948  TIP3      H1             24.7488396015      -24.6911357466      -18.4777946635  WZ2       761             0.0000000000
      5844      1948  TIP3      H2             26.0948596015      -24.7127557466      -19.1703446635  WZ2       761             0.0000000000
      5845      1949  TIP3      OH2            25.0966096015      -35.5907057466      -16.5581346635  WZ2       762             0.0000000000
      5846      1949  TIP3      H1             25.9088696015      -35.0863857466      -16.5119646635  WZ2       762             0.0000000000
      5847      1949  TIP3      H2             24.8519096015      -35.7357357466      -15.6441746635  WZ2       762             0.0000000000
      5848      1950  TIP3      OH2            25.6322496015      -34.6044357466       -7.3734746635  WZ2       763             0.0000000000
      5849      1950  TIP3      H1             25.7512796015      -34.0308957466       -6.6164346635  WZ2       763             0.0000000000
      5850      1950  TIP3      H2             26.2877096015      -35.2924957466       -7.2586946635  WZ2       763             0.0000000000
      5851      1951  TIP3      OH2            22.9035396015      -24.1443857466      -18.5485346635  WZ2       765             0.0000000000
      5852      1951  TIP3      H1             23.0644096015      -23.3446357466      -19.0492746635  WZ2       765             0.0000000000
      5853      1951  TIP3      H2             22.7063196015      -23.8377857466      -17.6634746635  WZ2       765             0.0000000000
      5854      1952  TIP3      OH2            19.8965096015      -27.0192457466      -19.8723246635  WZ2       769             0.0000000000
      5855      1952  TIP3      H1             20.4886596015      -26.3197657466      -19.5960846635  WZ2       769             0.0000000000
      5856      1952  TIP3      H2             20.3558096015      -27.4522957466      -20.5918646635  WZ2       769             0.0000000000
      5857      1953  TIP3      OH2            18.2124296015      -34.3549457466      -20.7563846635  WZ2       770             0.0000000000
      5858      1953  TIP3      H1             18.1676896015      -33.4156357466      -20.5776846635  WZ2       770             0.0000000000
      5859      1953  TIP3      H2             17.3247496015      -34.5904557466      -21.0261746635  WZ2       770             0.0000000000
      5860      1954  TIP3      OH2            17.9509596015      -25.6325757466      -15.9227046635  WZ2       773             0.0000000000
      5861      1954  TIP3      H1             17.1188196015      -25.1603057466      -15.8955646635  WZ2       773             0.0000000000
      5862      1954  TIP3      H2             18.4967896015      -25.1228157466      -16.5213946635  WZ2       773             0.0000000000
      5863      1955  TIP3      OH2            17.2393296015      -23.0202057466       -4.5929046635  WZ2       774             0.0000000000
      5864      1955  TIP3      H1             17.7795496015      -23.2368057466       -3.8329846635  WZ2       774             0.0000000000
      5865      1955  TIP3      H2             16.7581296015      -23.8256057466       -4.7826546635  WZ2       774             0.0000000000
      5866      1956  TIP3      OH2            21.8366696015      -24.1007657466       -2.9724846635  WZ2       775             0.0000000000
      5867      1956  TIP3      H1             22.6043896015      -24.5596857466       -2.6315646635  WZ2       775             0.0000000000
      5868      1956  TIP3      H2             21.8152896015      -24.3267857466       -3.9023646635  WZ2       775             0.0000000000
      5869      1957  TIP3      OH2            25.9286296015      -24.5927057466      -21.5973046635  WZ2       776             0.0000000000
      5870      1957  TIP3      H1             25.2847296015      -25.2238457466      -21.2759346635  WZ2       776             0.0000000000
      5871      1957  TIP3      H2             26.6904596015      -25.1239057466      -21.8289546635  WZ2       776             0.0000000000
      5872      1958  TIP3      OH2            28.4135396015      -25.7206557466       -4.2433346635  WZ2       777             0.0000000000
      5873      1958  TIP3      H1             28.0624896015      -26.5773557466       -4.0002946635  WZ2       777             0.0000000000
      5874      1958  TIP3      H2             29.1398596015      -25.5779857466       -3.6364346635  WZ2       777             0.0000000000
      5875      1959  TIP3      OH2            17.1462796015      -29.2097957466       -3.6384746635  WZ2       779             0.0000000000
      5876      1959  TIP3      H1             17.2903296015      -30.1117257466       -3.9248046635  WZ2       779             0.0000000000
      5877      1959  TIP3      H2             16.3740196015      -28.9235857466       -4.1262446635  WZ2       779             0.0000000000
      5878      1960  TIP3      OH2            21.4876496015      -28.8662257466      -21.5060146635  WZ2       780             0.0000000000
      5879      1960  TIP3      H1             21.5520596015      -29.6602657466      -20.9753746635  WZ2       780             0.0000000000
      5880      1960  TIP3      H2             22.1405696015      -28.9849457466      -22.1958146635  WZ2       780             0.0000000000
      5881      1961  TIP3      OH2            23.8018896015      -29.2399857466       -4.2058346635  WZ2       781             0.0000000000
      5882      1961  TIP3      H1             23.4732696015      -28.9691757466       -5.0630946635  WZ2       781             0.0000000000
      5883      1961  TIP3      H2             23.9537096015      -30.1810057466       -4.2933346635  WZ2       781             0.0000000000
      5884      1962  TIP3      OH2            26.8399896015      -27.8190557466      -21.7702146635  WZ2       782             0.0000000000
      5885      1962  TIP3      H1             26.5713996015      -27.6388457466      -20.8693246635  WZ2       782             0.0000000000
      5886      1962  TIP3      H2             26.6335496015      -28.7444357466      -21.9016346635  WZ2       782             0.0000000000
      5887      1963  TIP3      OH2            17.9789296015      -32.0094657466       -4.2185446635  WZ2       784             0.0000000000
      5888      1963  TIP3      H1             18.3870496015      -32.8668057466       -4.3394846635  WZ2       784             0.0000000000
      5889      1963  TIP3      H2             17.7186896015      -31.9953357466       -3.2975146635  WZ2       784             0.0000000000
      5890      1964  TIP3      OH2            22.6370296015      -30.8936057466      -19.2002146635  WZ2       785             0.0000000000
      5891      1964  TIP3      H1             22.1772296015      -31.3777757466      -18.5143646635  WZ2       785             0.0000000000
      5892      1964  TIP3      H2             22.8918996015      -31.5620657466      -19.8361646635  WZ2       785             0.0000000000
      5893      1965  TIP3      OH2            21.9259596015      -33.0008957466       -6.8442546635  WZ2       786             0.0000000000
      5894      1965  TIP3      H1             21.3075696015      -32.3262357466       -6.5637846635  WZ2       786             0.0000000000
      5895      1965  TIP3      H2             22.2700796015      -32.6795057466       -7.6776346635  WZ2       786             0.0000000000
      5896      1966  TIP3      OH2            26.9457796015      -30.5293657466       -3.5667746635  WZ2       788             0.0000000000
      5897      1966  TIP3      H1             27.8988996015      -30.4454557466       -3.5941746635  WZ2       788             0.0000000000
      5898      1966  TIP3      H2             26.7852396015      -31.2411857466       -2.9472846635  WZ2       788             0.0000000000
      5899      1967  TIP3      OH2            22.2653296015      -35.6458157466       -5.7619446635  WZ2       790             0.0000000000
      5900      1967  TIP3      H1             22.4154196015      -36.3746857466       -6.3639746635  WZ2       790             0.0000000000
      5901      1967  TIP3      H2             22.2675696015      -34.8686457466       -6.3207246635  WZ2       790             0.0000000000
      5902      1968  TIP3      OH2            24.2597396015      -31.8366157466       -8.0296846635  WZ2       792             0.0000000000
      5903      1968  TIP3      H1             25.0102196015      -31.9928657466       -8.6029046635  WZ2       792             0.0000000000
      5904      1968  TIP3      H2             23.9205696015      -30.9849557466       -8.3051346635  WZ2       792             0.0000000000
      5905      1969  TIP3      OH2            20.7439596015      -34.4474657466       -3.8503846635  WZ2       795             0.0000000000
      5906      1969  TIP3      H1             19.9768596015      -34.9799857466       -4.0606246635  WZ2       795             0.0000000000
      5907      1969  TIP3      H2             21.4228596015      -34.7574257466       -4.4497546635  WZ2       795             0.0000000000
      5908      1970  TIP3      OH2            24.7474996015      -35.4981257466       -4.2740046635  WZ2       797             0.0000000000
      5909      1970  TIP3      H1             24.5120396015      -35.7174557466       -3.3725146635  WZ2       797             0.0000000000
      5910      1970  TIP3      H2             23.9641896015      -35.7050057466       -4.7837546635  WZ2       797             0.0000000000
      5911      1971  TIP3      OH2            18.9242396015      -36.5270857466       -4.1459146635  WZ2       800             0.0000000000
      5912      1971  TIP3      H1             19.1359796015      -37.2334757466       -4.7561646635  WZ2       800             0.0000000000
      5913      1971  TIP3      H2             18.8129896015      -36.9644857466       -3.3017946635  WZ2       800             0.0000000000
      5914      1972  TIP3      OH2            23.6052396015      -21.9600557466      -19.9365346635  WZ2       803             0.0000000000
      5915      1972  TIP3      H1             24.5383096015      -21.8021857466      -19.7926946635  WZ2       803             0.0000000000
      5916      1972  TIP3      H2             23.3411196015      -21.2847557466      -20.5613846635  WZ2       803             0.0000000000
      5917      1973  TIP3      OH2            17.1737296015      -27.3236757466      -20.4537246635  WZ2       804             0.0000000000
      5918      1973  TIP3      H1             18.0876496015      -27.2447857466      -20.1803346635  WZ2       804             0.0000000000
      5919      1973  TIP3      H2             17.1810396015      -28.0107157466      -21.1201646635  WZ2       804             0.0000000000
      5920      1974  TIP3      OH2            15.8227896015      -21.9308257466      -15.3763346635  WZ2       805             0.0000000000
      5921      1974  TIP3      H1             15.1754996015      -22.3926557466      -15.9092146635  WZ2       805             0.0000000000
      5922      1974  TIP3      H2             16.1772496015      -22.6024957466      -14.7937146635  WZ2       805             0.0000000000
      5923      1975  TIP3      OH2            16.6927096015      -23.8501257466      -13.5717146635  WZ2       806             0.0000000000
      5924      1975  TIP3      H1             16.3583896015      -24.7303957466      -13.3996946635  WZ2       806             0.0000000000
      5925      1975  TIP3      H2             16.9149496015      -23.5046257466      -12.7071546635  WZ2       806             0.0000000000
      5926      1976  TIP3      OH2            16.7726596015      -30.7745857466      -11.1202246635  WZ2       817             0.0000000000
      5927      1976  TIP3      H1             16.9569496015      -30.8564157466      -12.0559346635  WZ2       817             0.0000000000
      5928      1976  TIP3      H2             17.6219496015      -30.8988857466      -10.6965846635  WZ2       817             0.0000000000
      5929      1977  TIP3      OH2            16.3701396015      -35.5040857466       -4.9793446635  WZ2       824             0.0000000000
      5930      1977  TIP3      H1             17.2896296015      -35.6262557466       -4.7430346635  WZ2       824             0.0000000000
      5931      1977  TIP3      H2             15.9205896015      -36.2541157466       -4.5899946635  WZ2       824             0.0000000000
      5932      1978  TIP3      OH2            15.8954196015      -34.1926257466      -11.0190346635  WZ2       828             0.0000000000
      5933      1978  TIP3      H1             16.3873996015      -34.4135757466      -11.8098346635  WZ2       828             0.0000000000
      5934      1978  TIP3      H2             16.2575096015      -33.3522857466      -10.7380846635  WZ2       828             0.0000000000
      5935      1979  TIP3      OH2            18.3645396015      -26.0214057466       -4.4759646635  WZ2       834             0.0000000000
      5936      1979  TIP3      H1             17.5437896015      -25.8467557466       -4.9364946635  WZ2       834             0.0000000000
      5937      1979  TIP3      H2             18.1123196015      -26.0949357466       -3.5555246635  WZ2       834             0.0000000000
      5938      1980  TIP3      OH2            21.3188296015      -25.0472857466       -8.2175646635  WZ2       835             0.0000000000
      5939      1980  TIP3      H1             20.8939396015      -24.2374357466       -8.5001046635  WZ2       835             0.0000000000
      5940      1980  TIP3      H2             22.2231096015      -24.9618757466       -8.5195846635  WZ2       835             0.0000000000
      5941      1981  TIP3      OH2            25.6299696015      -23.6482857466       -5.2581946635  WZ2       836             0.0000000000
      5942      1981  TIP3      H1             25.8147196015      -23.9816757466       -4.3801646635  WZ2       836             0.0000000000
      5943      1981  TIP3      H2             26.4764196015      -23.3384257466       -5.5802746635  WZ2       836             0.0000000000
      5944      1982  TIP3      OH2            27.9750096015      -22.3623957466       -6.0140546635  WZ2       837             0.0000000000
      5945      1982  TIP3      H1             28.6518996015      -22.9951657466       -6.2541346635  WZ2       837             0.0000000000
      5946      1982  TIP3      H2             28.2968896015      -21.9613457466       -5.2067246635  WZ2       837             0.0000000000
      5947      1983  TIP3      OH2            18.7204996015      -21.7908957466       -8.1700346635  WZ2       839             0.0000000000
      5948      1983  TIP3      H1             18.0001396015      -21.3507957466       -8.6212646635  WZ2       839             0.0000000000
      5949      1983  TIP3      H2             18.3548996015      -22.0414257466       -7.3216346635  WZ2       839             0.0000000000
      5950      1984  TIP3      OH2            21.1877596015      -22.1905057466       -9.1403146635  WZ2       840             0.0000000000
      5951      1984  TIP3      H1             20.3229796015      -22.1186557466       -8.7363046635  WZ2       840             0.0000000000
      5952      1984  TIP3      H2             21.1326596015      -21.6437757466       -9.9240646635  WZ2       840             0.0000000000
      5953      1985  TIP3      OH2            25.8983196015      -22.3026157466       -9.9647146635  WZ2       841             0.0000000000
      5954      1985  TIP3      H1             25.4417196015      -21.7736457466      -10.6188746635  WZ2       841             0.0000000000
      5955      1985  TIP3      H2             26.0611196015      -21.6994757466       -9.2394846635  WZ2       841             0.0000000000
      5956      1986  TIP3      OH2            28.2259496015      -23.4246557466       -9.0196846635  WZ2       842             0.0000000000
      5957      1986  TIP3      H1             27.3213196015      -23.2596357466       -9.2854746635  WZ2       842             0.0000000000
      5958      1986  TIP3      H2             28.6548096015      -22.5714357466       -9.0853446635  WZ2       842             0.0000000000
      5959      1987  TIP3      OH2            30.8301396015      -21.8547457466       -8.7249046635  WZ2       843             0.0000000000
      5960      1987  TIP3      H1             30.6483396015      -20.9388557466       -8.9354146635  WZ2       843             0.0000000000
      5961      1987  TIP3      H2             31.0069196015      -22.2650357466       -9.5714446635  WZ2       843             0.0000000000
      5962      1988  TIP3      OH2            18.1353096015      -23.1676457466      -11.2598546635  WZ2       844             0.0000000000
      5963      1988  TIP3      H1             18.1169096015      -23.5931357466      -10.4026246635  WZ2       844             0.0000000000
      5964      1988  TIP3      H2             18.9400996015      -23.4861457466      -11.6686346635  WZ2       844             0.0000000000
      5965      1989  TIP3      OH2            20.2766196015      -24.4577757466      -12.6048646635  WZ2       845             0.0000000000
      5966      1989  TIP3      H1             20.0576896015      -25.3740357466      -12.4352646635  WZ2       845             0.0000000000
      5967      1989  TIP3      H2             21.1008396015      -24.3177357466      -12.1387246635  WZ2       845             0.0000000000
      5968      1990  TIP3      OH2            22.8138696015      -23.9878457466      -11.7560646635  WZ2       846             0.0000000000
      5969      1990  TIP3      H1             23.0264396015      -24.8759457466      -12.0429746635  WZ2       846             0.0000000000
      5970      1990  TIP3      H2             22.8783796015      -24.0220757466      -10.8016646635  WZ2       846             0.0000000000
      5971      1991  TIP3      OH2            17.3862796015      -23.9437257466      -18.0886246635  WZ2       855             0.0000000000
      5972      1991  TIP3      H1             16.7012696015      -23.9818357466      -18.7561146635  WZ2       855             0.0000000000
      5973      1991  TIP3      H2             17.3899996015      -23.0309657466      -17.8004146635  WZ2       855             0.0000000000
      5974      1992  TIP3      OH2            26.2506296015      -22.7342357466      -19.6910046635  WZ2       858             0.0000000000
      5975      1992  TIP3      H1             27.1166496015      -22.3674957466      -19.8691846635  WZ2       858             0.0000000000
      5976      1992  TIP3      H2             26.0039096015      -23.1734357466      -20.5049246635  WZ2       858             0.0000000000
      5977      1993  TIP3      OH2            19.2043996015      -23.0236457466      -21.0634146635  WZ2       862             0.0000000000
      5978      1993  TIP3      H1             18.9368596015      -22.7373557466      -20.1901046635  WZ2       862             0.0000000000
      5979      1993  TIP3      H2             19.9756596015      -23.5697257466      -20.9111646635  WZ2       862             0.0000000000
      5980      1994  TIP3      OH2           -28.8407503985      -11.6775257466      -14.8309946635  WZ2       932             0.0000000000
      5981      1994  TIP3      H1            -28.7516403985      -10.7337057466      -14.9632846635  WZ2       932             0.0000000000
      5982      1994  TIP3      H2            -29.4789903985      -11.9528857466      -15.4890546635  WZ2       932             0.0000000000
      5983      1995  TIP3      OH2           -29.9076203985      -12.4224557466      -11.4121746635  WZ2       933             0.0000000000
      5984      1995  TIP3      H1            -29.9458703985      -13.0688257466      -10.7072146635  WZ2       933             0.0000000000
      5985      1995  TIP3      H2            -30.2299703985      -12.8890157466      -12.1833046635  WZ2       933             0.0000000000
      5986      1996  TIP3      OH2           -37.5391203985      -12.8082457466       -9.8191846635  WZ2       934             0.0000000000
      5987      1996  TIP3      H1            -37.4979103985      -13.4339157466       -9.0959446635  WZ2       934             0.0000000000
      5988      1996  TIP3      H2            -36.8363503985      -12.1843857466       -9.6371446635  WZ2       934             0.0000000000
      5989      1997  TIP3      OH2           -26.2016003985       -9.4834157466      -13.1106646635  WZ2       935             0.0000000000
      5990      1997  TIP3      H1            -26.6423303985      -10.2038157466      -12.6601046635  WZ2       935             0.0000000000
      5991      1997  TIP3      H2            -26.2146303985       -8.7626957466      -12.4808946635  WZ2       935             0.0000000000
      5992      1998  TIP3      OH2           -36.6158103985       -8.3583557466      -11.2842746635  WZ2       936             0.0000000000
      5993      1998  TIP3      H1            -36.9852903985       -9.1603057466      -11.6538446635  WZ2       936             0.0000000000
      5994      1998  TIP3      H2            -35.6747003985       -8.5268657466      -11.2379346635  WZ2       936             0.0000000000
      5995      1999  TIP3      OH2           -40.0057603985      -14.6980957466      -15.8913946635  WZ2       937             0.0000000000
      5996      1999  TIP3      H1            -40.4534203985      -13.8522257466      -15.9097446635  WZ2       937             0.0000000000
      5997      1999  TIP3      H2            -40.5666403985      -15.2776757466      -16.4068846635  WZ2       937             0.0000000000
      5998      2000  TIP3      OH2           -39.2951503985      -12.5361357466      -13.7655946635  WZ2       938             0.0000000000
      5999      2000  TIP3      H1            -39.0818003985      -13.3059757466      -13.2382946635  WZ2       938             0.0000000000
      6000      2000  TIP3      H2            -38.5573903985      -12.4464657466      -14.3688346635  WZ2       938             0.0000000000
      6001      2001  TIP3      OH2           -29.0900503985       -4.3792457466      -12.8986246635  WZ2       939             0.0000000000
      6002      2001  TIP3      H1            -28.4704103985       -5.0557757466      -13.1717046635  WZ2       939             0.0000000000
      6003      2001  TIP3      H2            -29.2983103985       -4.5971657466      -11.9901346635  WZ2       939             0.0000000000
      6004      2002  TIP3      OH2           -31.5181803985       -9.9903157466      -11.0060746635  WZ2       940             0.0000000000
      6005      2002  TIP3      H1            -31.2143903985      -10.6761757466      -11.6006646635  WZ2       940             0.0000000000
      6006      2002  TIP3      H2            -30.7967803985       -9.8714457466      -10.3882746635  WZ2       940             0.0000000000
      6007      2003  TIP3      OH2           -22.8552003985      -18.3887857466      -10.1454546635  WZ2       941             0.0000000000
      6008      2003  TIP3      H1            -22.8059803985      -17.7786657466       -9.4095446635  WZ2       941             0.0000000000
      6009      2003  TIP3      H2            -22.4296903985      -17.9276957466      -10.8683446635  WZ2       941             0.0000000000
      6010      2004  TIP3      OH2           -28.3774803985      -15.5960757466      -10.6785946635  WZ2       942             0.0000000000
      6011      2004  TIP3      H1            -28.2348903985      -16.5423757466      -10.6584346635  WZ2       942             0.0000000000
      6012      2004  TIP3      H2            -28.4835803985      -15.3890957466      -11.6071046635  WZ2       942             0.0000000000
      6013      2005  TIP3      OH2           -35.2226503985      -17.4944357466      -13.4061146635  WZ2       943             0.0000000000
      6014      2005  TIP3      H1            -35.1795403985      -16.6345857466      -13.8244846635  WZ2       943             0.0000000000
      6015      2005  TIP3      H2            -35.6802403985      -18.0469657466      -14.0397946635  WZ2       943             0.0000000000
      6016      2006  TIP3      OH2           -27.5003803985      -17.3638757466      -15.0052846635  WZ2       944             0.0000000000
      6017      2006  TIP3      H1            -26.8539503985      -17.6925557466      -14.3805246635  WZ2       944             0.0000000000
      6018      2006  TIP3      H2            -26.9904403985      -16.8459757466      -15.6281446635  WZ2       944             0.0000000000
      6019      2007  TIP3      OH2           -38.6025003985      -15.0978557466      -12.6439746635  WZ2       945             0.0000000000
      6020      2007  TIP3      H1            -37.9488403985      -15.6476857466      -12.2119646635  WZ2       945             0.0000000000
      6021      2007  TIP3      H2            -38.5785703985      -15.3719557466      -13.5607746635  WZ2       945             0.0000000000
      6022      2008  TIP3      OH2           -33.4460503985      -13.5477257466      -13.4288246635  WZ2       946             0.0000000000
      6023      2008  TIP3      H1            -32.8299503985      -14.0741857466      -12.9194246635  WZ2       946             0.0000000000
      6024      2008  TIP3      H2            -34.0321703985      -14.1878557466      -13.8324646635  WZ2       946             0.0000000000
      6025      2009  TIP3      OH2           -22.4637403985      -16.9108657466       -7.9094746635  WZ2       947             0.0000000000
      6026      2009  TIP3      H1            -23.1522803985      -16.2527957466       -8.0048146635  WZ2       947             0.0000000000
      6027      2009  TIP3      H2            -22.4482803985      -17.1080757466       -6.9729346635  WZ2       947             0.0000000000
      6028      2010  TIP3      OH2           -36.4124603985      -18.5765957466       -9.3320346635  WZ2       948             0.0000000000
      6029      2010  TIP3      H1            -36.6312903985      -18.0465357466      -10.0984346635  WZ2       948             0.0000000000
      6030      2010  TIP3      H2            -37.0803703985      -18.3500457466       -8.6848946635  WZ2       948             0.0000000000
      6031      2011  TIP3      OH2           -29.0434803985       -9.0764857466      -15.7881246635  WZ2       949             0.0000000000
      6032      2011  TIP3      H1            -29.3389703985       -9.3992557466      -16.6394346635  WZ2       949             0.0000000000
      6033      2011  TIP3      H2            -29.3677003985       -8.1768157466      -15.7468646635  WZ2       949             0.0000000000
      6034      2012  TIP3      OH2           -33.8433203985      -10.9010257466       -9.0446646635  WZ2       950             0.0000000000
      6035      2012  TIP3      H1            -34.5834103985      -10.3028757466       -8.9411446635  WZ2       950             0.0000000000
      6036      2012  TIP3      H2            -33.1293703985      -10.3470657466       -9.3603046635  WZ2       950             0.0000000000
      6037      2013  TIP3      OH2           -25.7365403985      -18.0729457466      -13.0246946635  WZ2       951             0.0000000000
      6038      2013  TIP3      H1            -25.9517403985      -18.8386057466      -12.4920946635  WZ2       951             0.0000000000
      6039      2013  TIP3      H2            -25.0808003985      -17.6004857466      -12.5118446635  WZ2       951             0.0000000000
      6040      2014  TIP3      OH2           -36.8187303985      -16.6844157466      -11.3798146635  WZ2       952             0.0000000000
      6041      2014  TIP3      H1            -36.2051003985      -16.0516557466      -11.0065746635  WZ2       952             0.0000000000
      6042      2014  TIP3      H2            -36.3066603985      -17.1569157466      -12.0361246635  WZ2       952             0.0000000000
      6043      2015  TIP3      OH2           -35.4358903985       -8.9367257466       -8.2575146635  WZ2       953             0.0000000000
      6044      2015  TIP3      H1            -35.4411303985       -8.0573757466       -8.6355846635  WZ2       953             0.0000000000
      6045      2015  TIP3      H2            -36.2894803985       -9.0203157466       -7.8325246635  WZ2       953             0.0000000000
      6046      2016  TIP3      OH2           -39.3148003985       -9.2659357466      -17.4755846635  WZ2       954             0.0000000000
      6047      2016  TIP3      H1            -39.5867103985       -9.0368357466      -18.3642946635  WZ2       954             0.0000000000
      6048      2016  TIP3      H2            -39.2692303985       -8.4280557466      -17.0150546635  WZ2       954             0.0000000000
      6049      2017  TIP3      OH2           -25.6898303985       -7.6443457466      -10.7627346635  WZ2       955             0.0000000000
      6050      2017  TIP3      H1            -26.6314603985       -7.5859557466      -10.6010446635  WZ2       955             0.0000000000
      6051      2017  TIP3      H2            -25.4132203985       -6.7382957466      -10.8997646635  WZ2       955             0.0000000000
      6052      2018  TIP3      OH2           -25.3891303985      -19.3578157466       -9.3453446635  WZ2       956             0.0000000000
      6053      2018  TIP3      H1            -26.1252103985      -18.7471057466       -9.3832146635  WZ2       956             0.0000000000
      6054      2018  TIP3      H2            -24.7057303985      -18.9429157466       -9.8717046635  WZ2       956             0.0000000000
      6055      2019  TIP3      OH2           -32.3859903985      -21.2710857466      -11.8795446635  WZ2       957             0.0000000000
      6056      2019  TIP3      H1            -32.5035703985      -22.2194857466      -11.9337146635  WZ2       957             0.0000000000
      6057      2019  TIP3      H2            -33.2409803985      -20.9384757466      -11.6064346635  WZ2       957             0.0000000000
      6058      2020  TIP3      OH2           -27.4377103985       -5.8629957466      -14.1375746635  WZ2       958             0.0000000000
      6059      2020  TIP3      H1            -27.0124803985       -6.5702057466      -14.6226146635  WZ2       958             0.0000000000
      6060      2020  TIP3      H2            -27.1207103985       -5.0617257466      -14.5543546635  WZ2       958             0.0000000000
      6061      2021  TIP3      OH2           -26.2780603985       -7.9621457466      -15.6289146635  WZ2       959             0.0000000000
      6062      2021  TIP3      H1            -26.5355803985       -8.6521357466      -16.2403246635  WZ2       959             0.0000000000
      6063      2021  TIP3      H2            -26.2069803985       -8.4050257466      -14.7833246635  WZ2       959             0.0000000000
      6064      2022  TIP3      OH2           -24.5920403985       -9.3954757466       -7.1515646635  WZ2       960             0.0000000000
      6065      2022  TIP3      H1            -24.4524103985       -9.9872257466       -7.8908646635  WZ2       960             0.0000000000
      6066      2022  TIP3      H2            -24.4247603985       -8.5228857466       -7.5076846635  WZ2       960             0.0000000000
      6067      2023  TIP3      OH2           -30.1195003985      -12.4335257466      -17.3789646635  WZ2       961             0.0000000000
      6068      2023  TIP3      H1            -30.8309503985      -11.8985557466      -17.7309146635  WZ2       961             0.0000000000
      6069      2023  TIP3      H2            -29.4285403985      -12.3783157466      -18.0390746635  WZ2       961             0.0000000000
      6070      2024  TIP3      OH2           -30.0655803985      -13.9760957466      -20.3404646635  WZ2       962             0.0000000000
      6071      2024  TIP3      H1            -29.3645903985      -13.9534057466      -19.6890646635  WZ2       962             0.0000000000
      6072      2024  TIP3      H2            -29.7632903985      -14.6041257466      -20.9965346635  WZ2       962             0.0000000000
      6073      2025  TIP3      OH2           -22.7501103985      -13.0556757466       -9.0855246635  WZ2       963             0.0000000000
      6074      2025  TIP3      H1            -23.4027003985      -12.3611157466       -8.9964346635  WZ2       963             0.0000000000
      6075      2025  TIP3      H2            -22.2850803985      -12.8455857466       -9.8953646635  WZ2       963             0.0000000000
      6076      2026  TIP3      OH2           -26.7137303985      -12.2241957466      -16.4273746635  WZ2       964             0.0000000000
      6077      2026  TIP3      H1            -27.4456303985      -11.9958257466      -15.8543146635  WZ2       964             0.0000000000
      6078      2026  TIP3      H2            -26.2665103985      -12.9379257466      -15.9726246635  WZ2       964             0.0000000000
      6079      2027  TIP3      OH2           -26.8163803985      -14.0499357466       -7.3596746635  WZ2       965             0.0000000000
      6080      2027  TIP3      H1            -26.7364703985      -13.2864957466       -6.7878246635  WZ2       965             0.0000000000
      6081      2027  TIP3      H2            -27.4176103985      -13.7706957466       -8.0501646635  WZ2       965             0.0000000000
      6082      2028  TIP3      OH2           -35.0683603985      -11.5935757466      -14.5448746635  WZ2       966             0.0000000000
      6083      2028  TIP3      H1            -35.3988403985      -11.9642357466      -15.3631746635  WZ2       966             0.0000000000
      6084      2028  TIP3      H2            -34.4799503985      -12.2641757466      -14.1980446635  WZ2       966             0.0000000000
      6085      2029  TIP3      OH2           -33.7016103985       -8.1655157466      -11.8636546635  WZ2       967             0.0000000000
      6086      2029  TIP3      H1            -33.7964803985       -8.7442057466      -12.6201946635  WZ2       967             0.0000000000
      6087      2029  TIP3      H2            -32.9722503985       -8.5369457466      -11.3673746635  WZ2       967             0.0000000000
      6088      2030  TIP3      OH2           -34.7018103985      -12.8250157466      -10.9113746635  WZ2       968             0.0000000000
      6089      2030  TIP3      H1            -34.1365603985      -12.7035957466      -11.6742546635  WZ2       968             0.0000000000
      6090      2030  TIP3      H2            -34.3829203985      -12.1875157466      -10.2725246635  WZ2       968             0.0000000000
      6091      2031  TIP3      OH2           -28.3925903985       -7.3218257466      -10.1773246635  WZ2       969             0.0000000000
      6092      2031  TIP3      H1            -28.6329303985       -6.6595157466       -9.5294046635  WZ2       969             0.0000000000
      6093      2031  TIP3      H2            -28.5907703985       -8.1563057466       -9.7523646635  WZ2       969             0.0000000000
      6094      2032  TIP3      OH2           -33.8217403985       -8.4257457466       -6.1941846635  WZ2       970             0.0000000000
      6095      2032  TIP3      H1            -34.1329903985       -7.6434257466       -5.7388646635  WZ2       970             0.0000000000
      6096      2032  TIP3      H2            -34.4717203985       -8.5788357466       -6.8799846635  WZ2       970             0.0000000000
      6097      2033  TIP3      OH2           -27.8427803985      -13.0619057466      -18.7422546635  WZ2       971             0.0000000000
      6098      2033  TIP3      H1            -27.2632303985      -12.9118757466      -17.9953646635  WZ2       971             0.0000000000
      6099      2033  TIP3      H2            -27.4287803985      -12.5911657466      -19.4656146635  WZ2       971             0.0000000000
      6100      2034  TIP3      OH2           -36.9017503985      -12.2276357466       -6.9656146635  WZ2       972             0.0000000000
      6101      2034  TIP3      H1            -36.8314303985      -11.5769557466       -6.2671146635  WZ2       972             0.0000000000
      6102      2034  TIP3      H2            -37.7925303985      -12.1248857466       -7.3005246635  WZ2       972             0.0000000000
      6103      2035  TIP3      OH2           -30.1162903985       -6.3250557466      -15.3069446635  WZ2       973             0.0000000000
      6104      2035  TIP3      H1            -29.6425303985       -6.0294257466      -14.5295246635  WZ2       973             0.0000000000
      6105      2035  TIP3      H2            -30.6793603985       -5.5868957466      -15.5399846635  WZ2       973             0.0000000000
      6106      2036  TIP3      OH2           -35.5821503985       -6.3542457466       -5.4308046635  WZ2       974             0.0000000000
      6107      2036  TIP3      H1            -35.5746203985       -6.4902757466       -6.3782546635  WZ2       974             0.0000000000
      6108      2036  TIP3      H2            -36.4981103985       -6.4714357466       -5.1788046635  WZ2       974             0.0000000000
      6109      2037  TIP3      OH2           -24.1439403985      -21.3118657466      -18.9292846635  WZ2       975             0.0000000000
      6110      2037  TIP3      H1            -25.0438703985      -21.1729657466      -18.6342246635  WZ2       975             0.0000000000
      6111      2037  TIP3      H2            -23.8921003985      -20.4804057466      -19.3311146635  WZ2       975             0.0000000000
      6112      2038  TIP3      OH2           -36.0780903985      -12.5241457466      -16.9555946635  WZ2       976             0.0000000000
      6113      2038  TIP3      H1            -36.3699603985      -11.7559757466      -17.4464646635  WZ2       976             0.0000000000
      6114      2038  TIP3      H2            -36.7525703985      -13.1835257466      -17.1184546635  WZ2       976             0.0000000000
      6115      2039  TIP3      OH2           -22.9548003985       -6.9456257466      -20.5528946635  WZ2       977             0.0000000000
      6116      2039  TIP3      H1            -22.8814503985       -6.0066057466      -20.3823646635  WZ2       977             0.0000000000
      6117      2039  TIP3      H2            -22.0492903985       -7.2507657466      -20.6091646635  WZ2       977             0.0000000000
      6118      2040  TIP3      OH2           -39.9850803985      -10.1612257466       -8.1406146635  WZ2       978             0.0000000000
      6119      2040  TIP3      H1            -40.4862403985      -10.1892857466       -8.9556446635  WZ2       978             0.0000000000
      6120      2040  TIP3      H2            -39.9797103985      -11.0669057466       -7.8308846635  WZ2       978             0.0000000000
      6121      2041  TIP3      OH2           -40.2348103985       -7.3808457466      -11.2565946635  WZ2       979             0.0000000000
      6122      2041  TIP3      H1            -39.2887503985       -7.5251457466      -11.2756446635  WZ2       979             0.0000000000
      6123      2041  TIP3      H2            -40.3471803985       -6.5965657466      -10.7194746635  WZ2       979             0.0000000000
      6124      2042  TIP3      OH2           -22.0369603985       -6.7148757466       -5.5742246635  WZ2       980             0.0000000000
      6125      2042  TIP3      H1            -22.0862803985       -7.6700657466       -5.6114646635  WZ2       980             0.0000000000
      6126      2042  TIP3      H2            -22.8637303985       -6.4473457466       -5.1728446635  WZ2       980             0.0000000000
      6127      2043  TIP3      OH2           -31.0585603985       -7.1409557466       -6.6980846635  WZ2       981             0.0000000000
      6128      2043  TIP3      H1            -30.9711003985       -6.3144957466       -6.2231746635  WZ2       981             0.0000000000
      6129      2043  TIP3      H2            -31.9220503985       -7.4705757466       -6.4491546635  WZ2       981             0.0000000000
      6130      2044  TIP3      OH2           -30.6439803985       -3.3685857466      -16.8920246635  WZ2       982             0.0000000000
      6131      2044  TIP3      H1            -30.7193803985       -3.4898657466      -17.8385046635  WZ2       982             0.0000000000
      6132      2044  TIP3      H2            -30.6111103985       -2.4193157466      -16.7735646635  WZ2       982             0.0000000000
      6133      2045  TIP3      OH2           -36.9906003985       -4.5798857466      -15.1111246635  WZ2       983             0.0000000000
      6134      2045  TIP3      H1            -36.8385603985       -4.9278457466      -14.2324746635  WZ2       983             0.0000000000
      6135      2045  TIP3      H2            -37.8415603985       -4.9361557466      -15.3664046635  WZ2       983             0.0000000000
      6136      2046  TIP3      OH2           -27.5423803985       -4.2145657466      -19.8897846635  WZ2       984             0.0000000000
      6137      2046  TIP3      H1            -27.1675403985       -4.9589557466      -20.3605246635  WZ2       984             0.0000000000
      6138      2046  TIP3      H2            -27.5380103985       -4.4845057466      -18.9714546635  WZ2       984             0.0000000000
      6139      2047  TIP3      OH2           -27.8735703985       -4.2888557466      -17.1405646635  WZ2       985             0.0000000000
      6140      2047  TIP3      H1            -28.8085903985       -4.1886657466      -16.9618646635  WZ2       985             0.0000000000
      6141      2047  TIP3      H2            -27.5933803985       -4.9982557466      -16.5622446635  WZ2       985             0.0000000000
      6142      2048  TIP3      OH2           -24.8849803985      -15.2216257466       -5.0940046635  WZ2       986             0.0000000000
      6143      2048  TIP3      H1            -25.2923003985      -14.7410657466       -5.8146746635  WZ2       986             0.0000000000
      6144      2048  TIP3      H2            -24.8444103985      -16.1270257466       -5.4019246635  WZ2       986             0.0000000000
      6145      2049  TIP3      OH2           -37.7360303985       -8.8376857466       -7.0973346635  WZ2       987             0.0000000000
      6146      2049  TIP3      H1            -37.5199003985       -9.1991257466       -6.2377546635  WZ2       987             0.0000000000
      6147      2049  TIP3      H2            -38.5915603985       -9.2123057466       -7.3069846635  WZ2       987             0.0000000000
      6148      2050  TIP3      OH2           -35.1172303985      -20.3676357466      -11.1019146635  WZ2       988             0.0000000000
      6149      2050  TIP3      H1            -35.9788603985      -20.4548157466      -11.5096246635  WZ2       988             0.0000000000
      6150      2050  TIP3      H2            -35.1396603985      -19.5116257466      -10.6741546635  WZ2       988             0.0000000000
      6151      2051  TIP3      OH2           -30.4544503985      -20.6455957466       -7.7272146635  WZ2       989             0.0000000000
      6152      2051  TIP3      H1            -30.0341403985      -21.0608857466       -6.9741546635  WZ2       989             0.0000000000
      6153      2051  TIP3      H2            -31.3874903985      -20.8242657466       -7.6100146635  WZ2       989             0.0000000000
      6154      2052  TIP3      OH2           -27.1279603985      -16.8900757466       -6.8737646635  WZ2       990             0.0000000000
      6155      2052  TIP3      H1            -27.6420103985      -17.0158557466       -6.0761646635  WZ2       990             0.0000000000
      6156      2052  TIP3      H2            -27.2834903985      -15.9777657466       -7.1181446635  WZ2       990             0.0000000000
      6157      2053  TIP3      OH2           -26.3654703985      -12.0290757466      -21.1124646635  WZ2       991             0.0000000000
      6158      2053  TIP3      H1            -26.3233903985      -12.2516857466      -22.0424646635  WZ2       991             0.0000000000
      6159      2053  TIP3      H2            -25.5162603985      -11.6303657466      -20.9224746635  WZ2       991             0.0000000000
      6160      2054  TIP3      OH2           -35.0262203985      -15.4021857466      -10.0068946635  WZ2       993             0.0000000000
      6161      2054  TIP3      H1            -35.6680103985      -15.4424557466       -9.2978846635  WZ2       993             0.0000000000
      6162      2054  TIP3      H2            -34.9890203985      -14.4757157466      -10.2445946635  WZ2       993             0.0000000000
      6163      2055  TIP3      OH2           -35.0293103985      -15.1811757466      -15.0948946635  WZ2       994             0.0000000000
      6164      2055  TIP3      H1            -35.9220203985      -15.5215657466      -15.1535146635  WZ2       994             0.0000000000
      6165      2055  TIP3      H2            -34.5786503985      -15.5580857466      -15.8505746635  WZ2       994             0.0000000000
      6166      2056  TIP3      OH2           -29.4937603985      -14.7651457466      -16.2778146635  WZ2       995             0.0000000000
      6167      2056  TIP3      H1            -29.9027303985      -13.9502857466      -16.5693346635  WZ2       995             0.0000000000
      6168      2056  TIP3      H2            -28.7731403985      -14.9051357466      -16.8921046635  WZ2       995             0.0000000000
      6169      2057  TIP3      OH2           -30.3916003985      -14.5895057466       -4.7897446635  WZ2       996             0.0000000000
      6170      2057  TIP3      H1            -30.9542203985      -15.2943457466       -4.4689646635  WZ2       996             0.0000000000
      6171      2057  TIP3      H2            -29.5652603985      -14.7103157466       -4.3219846635  WZ2       996             0.0000000000
      6172      2058  TIP3      OH2           -28.4889903985      -15.3191057466      -13.4638446635  WZ2       997             0.0000000000
      6173      2058  TIP3      H1            -28.6845403985      -14.7134257466      -14.1787846635  WZ2       997             0.0000000000
      6174      2058  TIP3      H2            -28.3077303985      -16.1525857466      -13.8982146635  WZ2       997             0.0000000000
      6175      2059  TIP3      OH2           -37.2761703985      -15.0818357466       -8.1396946635  WZ2       998             0.0000000000
      6176      2059  TIP3      H1            -37.3142303985      -14.6816757466       -7.2709846635  WZ2       998             0.0000000000
      6177      2059  TIP3      H2            -37.7670603985      -15.8985957466       -8.0494046635  WZ2       998             0.0000000000
      6178      2060  TIP3      OH2           -29.2250703985      -13.6809757466       -8.7926046635  WZ2       1002            0.0000000000
      6179      2060  TIP3      H1            -28.9015903985      -14.3120057466       -9.4355546635  WZ2       1002            0.0000000000
      6180      2060  TIP3      H2            -29.6651403985      -14.2157557466       -8.1318646635  WZ2       1002            0.0000000000
      6181      2061  TIP3      OH2           -32.4477803985      -17.7534257466      -14.0084846635  WZ2       1003            0.0000000000
      6182      2061  TIP3      H1            -33.3586703985      -17.6967457466      -13.7198846635  WZ2       1003            0.0000000000
      6183      2061  TIP3      H2            -31.9424903985      -17.8138757466      -13.1977646635  WZ2       1003            0.0000000000
      6184      2062  TIP3      OH2           -37.6194403985      -16.1247957466      -15.1817246635  WZ2       1004            0.0000000000
      6185      2062  TIP3      H1            -38.5086403985      -16.0252457466      -15.5217646635  WZ2       1004            0.0000000000
      6186      2062  TIP3      H2            -37.3229503985      -16.9664957466      -15.5279346635  WZ2       1004            0.0000000000
      6187      2063  TIP3      OH2           -33.9662603985      -16.1245357466      -17.5252646635  WZ2       1005            0.0000000000
      6188      2063  TIP3      H1            -33.0347103985      -15.9955357466      -17.3469546635  WZ2       1005            0.0000000000
      6189      2063  TIP3      H2            -34.1812303985      -15.4551057466      -18.1747946635  WZ2       1005            0.0000000000
      6190      2064  TIP3      OH2           -28.0425903985      -18.5187957466      -10.7443046635  WZ2       1006            0.0000000000
      6191      2064  TIP3      H1            -28.7194303985      -18.3874857466      -10.0803346635  WZ2       1006            0.0000000000
      6192      2064  TIP3      H2            -28.5281003985      -18.6738457466      -11.5545346635  WZ2       1006            0.0000000000
      6193      2065  TIP3      OH2           -24.7550803985       -2.8472557466       -4.4675446635  WZ2       1008            0.0000000000
      6194      2065  TIP3      H1            -24.5552103985       -2.4230657466       -5.3020146635  WZ2       1008            0.0000000000
      6195      2065  TIP3      H2            -24.0997103985       -2.5034357466       -3.8605046635  WZ2       1008            0.0000000000
      6196      2066  TIP3      OH2           -37.1571003985      -10.3731257466       -4.8594946635  WZ2       1009            0.0000000000
      6197      2066  TIP3      H1            -36.4248603985      -10.1185357466       -4.2980446635  WZ2       1009            0.0000000000
      6198      2066  TIP3      H2            -37.9372303985      -10.1685857466       -4.3439546635  WZ2       1009            0.0000000000
      6199      2067  TIP3      OH2           -31.1278103985      -14.9661257466      -12.1215246635  WZ2       1010            0.0000000000
      6200      2067  TIP3      H1            -30.5634703985      -15.5124657466      -12.6685646635  WZ2       1010            0.0000000000
      6201      2067  TIP3      H2            -31.2754703985      -15.4879357466      -11.3327646635  WZ2       1010            0.0000000000
      6202      2068  TIP3      OH2           -36.1258403985      -18.8295157466      -15.7030446635  WZ2       1011            0.0000000000
      6203      2068  TIP3      H1            -36.4428903985      -19.7319857466      -15.7385046635  WZ2       1011            0.0000000000
      6204      2068  TIP3      H2            -35.3444303985      -18.8277757466      -16.2558846635  WZ2       1011            0.0000000000
      6205      2069  TIP3      OH2           -32.5012203985      -16.5775157466       -9.7074846635  WZ2       1012            0.0000000000
      6206      2069  TIP3      H1            -33.3366903985      -16.1235657466       -9.5972446635  WZ2       1012            0.0000000000
      6207      2069  TIP3      H2            -31.9771603985      -16.3016657466       -8.9554946635  WZ2       1012            0.0000000000
      6208      2070  TIP3      OH2           -31.9569603985      -10.3647457466      -18.0228446635  WZ2       1013            0.0000000000
      6209      2070  TIP3      H1            -32.7018603985      -10.8722157466      -18.3450546635  WZ2       1013            0.0000000000
      6210      2070  TIP3      H2            -32.0912403985      -10.3159457466      -17.0763646635  WZ2       1013            0.0000000000
      6211      2071  TIP3      OH2           -24.8070703985      -11.2319257466       -9.2360846635  WZ2       1014            0.0000000000
      6212      2071  TIP3      H1            -24.1651903985      -10.7752957466       -9.7798646635  WZ2       1014            0.0000000000
      6213      2071  TIP3      H2            -25.6373803985      -11.1186857466       -9.6986746635  WZ2       1014            0.0000000000
      6214      2072  TIP3      OH2           -28.0592803985      -17.5507557466      -19.8235846635  WZ2       1015            0.0000000000
      6215      2072  TIP3      H1            -28.9978603985      -17.4391957466      -19.9747046635  WZ2       1015            0.0000000000
      6216      2072  TIP3      H2            -27.7620703985      -16.6940657466      -19.5170146635  WZ2       1015            0.0000000000
      6217      2073  TIP3      OH2           -30.4377503985      -10.1804157466       -6.7859346635  WZ2       1016            0.0000000000
      6218      2073  TIP3      H1            -30.7831403985      -10.5621757466       -5.9789746635  WZ2       1016            0.0000000000
      6219      2073  TIP3      H2            -30.6377403985       -9.2470557466       -6.7146446635  WZ2       1016            0.0000000000
      6220      2074  TIP3      OH2           -27.3409303985      -15.6834857466      -18.1628446635  WZ2       1017            0.0000000000
      6221      2074  TIP3      H1            -26.4490303985      -15.8209857466      -17.8437246635  WZ2       1017            0.0000000000
      6222      2074  TIP3      H2            -27.2845703985      -14.8928757466      -18.6994946635  WZ2       1017            0.0000000000
      6223      2075  TIP3      OH2           -36.8321303985      -11.0697457466      -12.2530546635  WZ2       1018            0.0000000000
      6224      2075  TIP3      H1            -36.0874103985      -11.0721757466      -12.8544046635  WZ2       1018            0.0000000000
      6225      2075  TIP3      H2            -36.7544703985      -11.8933657466      -11.7715446635  WZ2       1018            0.0000000000
      6226      2076  TIP3      OH2           -29.8315503985       -8.9063157466      -18.9973846635  WZ2       1019            0.0000000000
      6227      2076  TIP3      H1            -30.1267103985       -8.0795257466      -18.6159046635  WZ2       1019            0.0000000000
      6228      2076  TIP3      H2            -30.5345503985       -9.5256257466      -18.8012446635  WZ2       1019            0.0000000000
      6229      2077  TIP3      OH2           -39.8241603985      -12.6090557466       -6.9382046635  WZ2       1020            0.0000000000
      6230      2077  TIP3      H1            -39.6013003985      -13.0270957466       -6.1064546635  WZ2       1020            0.0000000000
      6231      2077  TIP3      H2            -40.4261503985      -13.2215557466       -7.3609246635  WZ2       1020            0.0000000000
      6232      2078  TIP3      OH2           -32.8076703985      -13.0920657466       -4.7252346635  WZ2       1021            0.0000000000
      6233      2078  TIP3      H1            -33.1035903985      -13.2577657466       -5.6203246635  WZ2       1021            0.0000000000
      6234      2078  TIP3      H2            -31.8761503985      -13.3120357466       -4.7358446635  WZ2       1021            0.0000000000
      6235      2079  TIP3      OH2           -28.1873903985       -7.7188657466       -6.8354346635  WZ2       1022            0.0000000000
      6236      2079  TIP3      H1            -29.0879603985       -7.5356057466       -7.1030446635  WZ2       1022            0.0000000000
      6237      2079  TIP3      H2            -28.1532803985       -7.4599357466       -5.9145546635  WZ2       1022            0.0000000000
      6238      2080  TIP3      OH2           -22.4560603985      -15.4740757466      -18.4681746635  WZ2       1023            0.0000000000
      6239      2080  TIP3      H1            -23.0104303985      -15.8702757466      -19.1404246635  WZ2       1023            0.0000000000
      6240      2080  TIP3      H2            -22.3557003985      -14.5635557466      -18.7458446635  WZ2       1023            0.0000000000
      6241      2081  TIP3      OH2           -22.4928603985       -9.6739057466       -5.6310246635  WZ2       1024            0.0000000000
      6242      2081  TIP3      H1            -23.3440103985       -9.4355257466       -5.9983846635  WZ2       1024            0.0000000000
      6243      2081  TIP3      H2            -21.9025203985       -9.6905857466       -6.3843146635  WZ2       1024            0.0000000000
      6244      2082  TIP3      OH2           -24.1608903985       -6.6880357466      -18.0029646635  WZ2       1025            0.0000000000
      6245      2082  TIP3      H1            -24.5337803985       -7.5136557466      -17.6939046635  WZ2       1025            0.0000000000
      6246      2082  TIP3      H2            -23.8835403985       -6.8710957466      -18.9006246635  WZ2       1025            0.0000000000
      6247      2083  TIP3      OH2           -27.0005003985      -11.8800857466      -10.9817746635  WZ2       1026            0.0000000000
      6248      2083  TIP3      H1            -27.9288103985      -12.1118957466      -11.0088446635  WZ2       1026            0.0000000000
      6249      2083  TIP3      H2            -26.5493903985      -12.6571057466      -11.3118946635  WZ2       1026            0.0000000000
      6250      2084  TIP3      OH2           -34.4571903985       -7.5519257466      -14.8489046635  WZ2       1027            0.0000000000
      6251      2084  TIP3      H1            -33.9299703985       -6.7784857466      -15.0490246635  WZ2       1027            0.0000000000
      6252      2084  TIP3      H2            -35.3373403985       -7.3270057466      -15.1505046635  WZ2       1027            0.0000000000
      6253      2085  TIP3      OH2           -33.0299603985       -9.8889357466      -15.2724746635  WZ2       1029            0.0000000000
      6254      2085  TIP3      H1            -33.2709603985       -8.9634957466      -15.2309446635  WZ2       1029            0.0000000000
      6255      2085  TIP3      H2            -33.7706003985      -10.3478057466      -14.8760846635  WZ2       1029            0.0000000000
      6256      2086  TIP3      OH2           -32.5153003985       -5.7395757466       -8.9573646635  WZ2       1030            0.0000000000
      6257      2086  TIP3      H1            -32.1528303985       -4.8850157466       -9.1909246635  WZ2       1030            0.0000000000
      6258      2086  TIP3      H2            -31.9837803985       -6.0314157466       -8.2167346635  WZ2       1030            0.0000000000
      6259      2087  TIP3      OH2           -34.3468803985       -4.8671757466      -15.7272546635  WZ2       1031            0.0000000000
      6260      2087  TIP3      H1            -35.2968303985       -4.7614357466      -15.6759246635  WZ2       1031            0.0000000000
      6261      2087  TIP3      H2            -33.9950703985       -4.0464357466      -15.3825046635  WZ2       1031            0.0000000000
      6262      2088  TIP3      OH2           -28.9712203985       -9.6405057466       -9.2568046635  WZ2       1032            0.0000000000
      6263      2088  TIP3      H1            -29.3970903985       -9.8683357466       -8.4304046635  WZ2       1032            0.0000000000
      6264      2088  TIP3      H2            -28.3906403985      -10.3793257466       -9.4392746635  WZ2       1032            0.0000000000
      6265      2089  TIP3      OH2           -26.7683303985       -8.7114557466      -20.1829046635  WZ2       1033            0.0000000000
      6266      2089  TIP3      H1            -26.4150203985       -9.0914757466      -19.3785546635  WZ2       1033            0.0000000000
      6267      2089  TIP3      H2            -27.7169803985       -8.8049757466      -20.0959746635  WZ2       1033            0.0000000000
      6268      2090  TIP3      OH2           -26.3128003985       -5.0885557466       -6.7873246635  WZ2       1034            0.0000000000
      6269      2090  TIP3      H1            -26.9144803985       -5.6442657466       -7.2826946635  WZ2       1034            0.0000000000
      6270      2090  TIP3      H2            -26.0314303985       -4.4215757466       -7.4135846635  WZ2       1034            0.0000000000
      6271      2091  TIP3      OH2           -22.2648903985       -4.2322057466      -19.9818846635  WZ2       1035            0.0000000000
      6272      2091  TIP3      H1            -21.5211003985       -3.6461557466      -20.1217246635  WZ2       1035            0.0000000000
      6273      2091  TIP3      H2            -22.9590803985       -3.6636257466      -19.6486446635  WZ2       1035            0.0000000000
      6274      2092  TIP3      OH2           -38.1902103985      -17.8557857466       -7.3800646635  WZ2       1036            0.0000000000
      6275      2092  TIP3      H1            -39.0829803985      -17.5172457466       -7.4476646635  WZ2       1036            0.0000000000
      6276      2092  TIP3      H2            -38.2889303985      -18.7111757466       -6.9619846635  WZ2       1036            0.0000000000
      6277      2093  TIP3      OH2           -25.9024003985      -10.0392557466      -17.9561146635  WZ2       1037            0.0000000000
      6278      2093  TIP3      H1            -26.1796403985      -10.7673257466      -17.4000046635  WZ2       1037            0.0000000000
      6279      2093  TIP3      H2            -24.9751003985       -9.9200557466      -17.7508546635  WZ2       1037            0.0000000000
      6280      2094  TIP3      OH2           -38.5390103985       -6.0513457466       -8.9451246635  WZ2       1038            0.0000000000
      6281      2094  TIP3      H1            -38.3219803985       -6.9831057466       -8.9761546635  WZ2       1038            0.0000000000
      6282      2094  TIP3      H2            -38.2926603985       -5.7768457466       -8.0618446635  WZ2       1038            0.0000000000
      6283      2095  TIP3      OH2           -32.6775503985       -7.5998457466      -21.7359046635  WZ2       1039            0.0000000000
      6284      2095  TIP3      H1            -32.4385703985       -8.3480357466      -22.2830146635  WZ2       1039            0.0000000000
      6285      2095  TIP3      H2            -32.9464203985       -7.9876757466      -20.9031246635  WZ2       1039            0.0000000000
      6286      2096  TIP3      OH2           -33.7404903985       -8.0294657466      -19.2796446635  WZ2       1040            0.0000000000
      6287      2096  TIP3      H1            -33.5936903985       -8.5494857466      -18.4895546635  WZ2       1040            0.0000000000
      6288      2096  TIP3      H2            -33.7433203985       -7.1227057466      -18.9730546635  WZ2       1040            0.0000000000
      6289      2097  TIP3      OH2           -37.2873803985      -10.7771357466      -18.7691046635  WZ2       1041            0.0000000000
      6290      2097  TIP3      H1            -37.9734503985      -10.4248857466      -18.2021346635  WZ2       1041            0.0000000000
      6291      2097  TIP3      H2            -36.7645903985      -10.0141757466      -19.0156746635  WZ2       1041            0.0000000000
      6292      2098  TIP3      OH2           -29.4558703985      -18.1147557466       -8.4902046635  WZ2       1042            0.0000000000
      6293      2098  TIP3      H1            -28.7570803985      -18.0408857466       -7.8402346635  WZ2       1042            0.0000000000
      6294      2098  TIP3      H2            -29.8367303985      -18.9792557466       -8.3359146635  WZ2       1042            0.0000000000
      6295      2099  TIP3      OH2           -28.6713803985      -18.4625857466      -17.3929746635  WZ2       1043            0.0000000000
      6296      2099  TIP3      H1            -28.4515503985      -17.9910457466      -18.1964346635  WZ2       1043            0.0000000000
      6297      2099  TIP3      H2            -28.1129803985      -18.0683257466      -16.7229146635  WZ2       1043            0.0000000000
      6298      2100  TIP3      OH2           -31.0027703985       -6.3321057466      -18.5302246635  WZ2       1044            0.0000000000
      6299      2100  TIP3      H1            -31.8191603985       -5.8351357466      -18.4777946635  WZ2       1044            0.0000000000
      6300      2100  TIP3      H2            -30.4731403985       -5.8567557466      -19.1703446635  WZ2       1044            0.0000000000
      6301      2101  TIP3      OH2           -31.4713903985      -16.7347057466      -16.5581346635  WZ2       1045            0.0000000000
      6302      2101  TIP3      H1            -30.6591303985      -16.2303857466      -16.5119646635  WZ2       1045            0.0000000000
      6303      2101  TIP3      H2            -31.7160903985      -16.8797357466      -15.6441746635  WZ2       1045            0.0000000000
      6304      2102  TIP3      OH2           -30.9357503985      -15.7484357466       -7.3734746635  WZ2       1046            0.0000000000
      6305      2102  TIP3      H1            -30.8167203985      -15.1748957466       -6.6164346635  WZ2       1046            0.0000000000
      6306      2102  TIP3      H2            -30.2802903985      -16.4364957466       -7.2586946635  WZ2       1046            0.0000000000
      6307      2103  TIP3      OH2           -30.5877203985      -19.6534057466      -15.6200246635  WZ2       1047            0.0000000000
      6308      2103  TIP3      H1            -30.9343703985      -19.0363457466      -14.9755946635  WZ2       1047            0.0000000000
      6309      2103  TIP3      H2            -29.9290303985      -19.1528357466      -16.1014746635  WZ2       1047            0.0000000000
      6310      2104  TIP3      OH2           -33.6644603985       -5.2883857466      -18.5485346635  WZ2       1048            0.0000000000
      6311      2104  TIP3      H1            -33.5035903985       -4.4886357466      -19.0492746635  WZ2       1048            0.0000000000
      6312      2104  TIP3      H2            -33.8616803985       -4.9817857466      -17.6634746635  WZ2       1048            0.0000000000
      6313      2105  TIP3      OH2           -24.7311703985      -17.8414057466       -6.5385046635  WZ2       1050            0.0000000000
      6314      2105  TIP3      H1            -25.6475903985      -17.5792357466       -6.6261346635  WZ2       1050            0.0000000000
      6315      2105  TIP3      H2            -24.3956703985      -17.8445057466       -7.4349746635  WZ2       1050            0.0000000000
      6316      2106  TIP3      OH2           -26.1290703985      -14.0913057466      -12.4427746635  WZ2       1051            0.0000000000
      6317      2106  TIP3      H1            -26.9266303985      -14.5062857466      -12.7712746635  WZ2       1051            0.0000000000
      6318      2106  TIP3      H2            -25.6839603985      -14.7819357466      -11.9517246635  WZ2       1051            0.0000000000
      6319      2107  TIP3      OH2           -36.6714903985       -8.1632457466      -19.8723246635  WZ2       1052            0.0000000000
      6320      2107  TIP3      H1            -36.0793403985       -7.4637657466      -19.5960846635  WZ2       1052            0.0000000000
      6321      2107  TIP3      H2            -36.2121903985       -8.5962957466      -20.5918646635  WZ2       1052            0.0000000000
      6322      2108  TIP3      OH2           -25.0426103985       -4.8350557466      -10.8204246635  WZ2       1054            0.0000000000
      6323      2108  TIP3      H1            -25.1981803985       -4.1566157466      -11.4774946635  WZ2       1054            0.0000000000
      6324      2108  TIP3      H2            -24.1099703985       -4.7631257466      -10.6173646635  WZ2       1054            0.0000000000
      6325      2109  TIP3      OH2           -38.6170403985       -6.7765757466      -15.9227046635  WZ2       1056            0.0000000000
      6326      2109  TIP3      H1            -39.4491803985       -6.3043057466      -15.8955646635  WZ2       1056            0.0000000000
      6327      2109  TIP3      H2            -38.0712103985       -6.2668157466      -16.5213946635  WZ2       1056            0.0000000000
      6328      2110  TIP3      OH2           -39.3286703985       -4.1642057466       -4.5929046635  WZ2       1057            0.0000000000
      6329      2110  TIP3      H1            -38.7884503985       -4.3808057466       -3.8329846635  WZ2       1057            0.0000000000
      6330      2110  TIP3      H2            -39.8098703985       -4.9696057466       -4.7826546635  WZ2       1057            0.0000000000
      6331      2111  TIP3      OH2           -34.7313303985       -5.2447657466       -2.9724846635  WZ2       1058            0.0000000000
      6332      2111  TIP3      H1            -33.9636103985       -5.7036857466       -2.6315646635  WZ2       1058            0.0000000000
      6333      2111  TIP3      H2            -34.7527103985       -5.4707857466       -3.9023646635  WZ2       1058            0.0000000000
      6334      2112  TIP3      OH2           -30.6393703985       -5.7367057466      -21.5973046635  WZ2       1059            0.0000000000
      6335      2112  TIP3      H1            -31.2832703985       -6.3678457466      -21.2759346635  WZ2       1059            0.0000000000
      6336      2112  TIP3      H2            -29.8775403985       -6.2679057466      -21.8289546635  WZ2       1059            0.0000000000
      6337      2113  TIP3      OH2           -28.1544603985       -6.8646557466       -4.2433346635  WZ2       1060            0.0000000000
      6338      2113  TIP3      H1            -28.5055103985       -7.7213557466       -4.0002946635  WZ2       1060            0.0000000000
      6339      2113  TIP3      H2            -27.4281403985       -6.7219857466       -3.6364346635  WZ2       1060            0.0000000000
      6340      2114  TIP3      OH2           -26.0350803985       -5.9197157466      -21.3635046635  WZ2       1061            0.0000000000
      6341      2114  TIP3      H1            -25.7520403985       -6.7141957466      -20.9108146635  WZ2       1061            0.0000000000
      6342      2114  TIP3      H2            -25.2952903985       -5.6866157466      -21.9243946635  WZ2       1061            0.0000000000
      6343      2115  TIP3      OH2           -39.4217203985      -10.3537957466       -3.6384746635  WZ2       1062            0.0000000000
      6344      2115  TIP3      H1            -39.2776703985      -11.2557257466       -3.9248046635  WZ2       1062            0.0000000000
      6345      2115  TIP3      H2            -40.1939803985      -10.0675857466       -4.1262446635  WZ2       1062            0.0000000000
      6346      2116  TIP3      OH2           -32.7661103985      -10.3839857466       -4.2058346635  WZ2       1064            0.0000000000
      6347      2116  TIP3      H1            -33.0947303985      -10.1131757466       -5.0630946635  WZ2       1064            0.0000000000
      6348      2116  TIP3      H2            -32.6142903985      -11.3250057466       -4.2933346635  WZ2       1064            0.0000000000
      6349      2117  TIP3      OH2           -29.7280103985       -8.9630557466      -21.7702146635  WZ2       1065            0.0000000000
      6350      2117  TIP3      H1            -29.9966003985       -8.7828457466      -20.8693246635  WZ2       1065            0.0000000000
      6351      2117  TIP3      H2            -29.9344503985       -9.8884357466      -21.9016346635  WZ2       1065            0.0000000000
      6352      2118  TIP3      OH2           -27.0315903985      -10.4682557466       -6.8226046635  WZ2       1066            0.0000000000
      6353      2118  TIP3      H1            -26.2861103985       -9.8798857466       -6.9422046635  WZ2       1066            0.0000000000
      6354      2118  TIP3      H2            -27.7889103985       -9.8862857466       -6.7592946635  WZ2       1066            0.0000000000
      6355      2119  TIP3      OH2           -38.5890703985      -13.1534657466       -4.2185446635  WZ2       1067            0.0000000000
      6356      2119  TIP3      H1            -38.1809503985      -14.0108057466       -4.3394846635  WZ2       1067            0.0000000000
      6357      2119  TIP3      H2            -38.8493103985      -13.1393357466       -3.2975146635  WZ2       1067            0.0000000000
      6358      2120  TIP3      OH2           -33.9309703985      -12.0376057466      -19.2002146635  WZ2       1068            0.0000000000
      6359      2120  TIP3      H1            -34.3907703985      -12.5217757466      -18.5143646635  WZ2       1068            0.0000000000
      6360      2120  TIP3      H2            -33.6761003985      -12.7060657466      -19.8361646635  WZ2       1068            0.0000000000
      6361      2121  TIP3      OH2           -34.6420403985      -14.1448957466       -6.8442546635  WZ2       1069            0.0000000000
      6362      2121  TIP3      H1            -35.2604303985      -13.4702357466       -6.5637846635  WZ2       1069            0.0000000000
      6363      2121  TIP3      H2            -34.2979203985      -13.8235057466       -7.6776346635  WZ2       1069            0.0000000000
      6364      2122  TIP3      OH2           -29.6222203985      -11.6733657466       -3.5667746635  WZ2       1071            0.0000000000
      6365      2122  TIP3      H1            -28.6691003985      -11.5894557466       -3.5941746635  WZ2       1071            0.0000000000
      6366      2122  TIP3      H2            -29.7827603985      -12.3851857466       -2.9472846635  WZ2       1071            0.0000000000
      6367      2123  TIP3      OH2           -23.4701003985      -11.4400057466      -21.4920846635  WZ2       1072            0.0000000000
      6368      2123  TIP3      H1            -23.7436203985      -11.8644557466      -22.3052546635  WZ2       1072            0.0000000000
      6369      2123  TIP3      H2            -23.4306903985      -10.5085557466      -21.7090446635  WZ2       1072            0.0000000000
      6370      2124  TIP3      OH2           -34.3026703985      -16.7898157466       -5.7619446635  WZ2       1073            0.0000000000
      6371      2124  TIP3      H1            -34.1525803985      -17.5186857466       -6.3639746635  WZ2       1073            0.0000000000
      6372      2124  TIP3      H2            -34.3004303985      -16.0126457466       -6.3207246635  WZ2       1073            0.0000000000
      6373      2125  TIP3      OH2           -33.8901003985      -18.4202357466       -8.2692046635  WZ2       1074            0.0000000000
      6374      2125  TIP3      H1            -33.3543503985      -17.9685657466       -8.9212746635  WZ2       1074            0.0000000000
      6375      2125  TIP3      H2            -34.7421403985      -18.5282557466       -8.6917946635  WZ2       1074            0.0000000000
      6376      2126  TIP3      OH2           -32.3082603985      -12.9806157466       -8.0296846635  WZ2       1075            0.0000000000
      6377      2126  TIP3      H1            -31.5577803985      -13.1368657466       -8.6029046635  WZ2       1075            0.0000000000
      6378      2126  TIP3      H2            -32.6474303985      -12.1289557466       -8.3051346635  WZ2       1075            0.0000000000
      6379      2127  TIP3      OH2           -27.8926403985      -15.1654357466       -3.0011546635  WZ2       1076            0.0000000000
      6380      2127  TIP3      H1            -27.7005103985      -16.0964957466       -3.1127046635  WZ2       1076            0.0000000000
      6381      2127  TIP3      H2            -27.0350103985      -14.7404857466       -3.0116146635  WZ2       1076            0.0000000000
      6382      2128  TIP3      OH2           -26.5759203985      -12.3769157466       -4.9238846635  WZ2       1077            0.0000000000
      6383      2128  TIP3      H1            -26.8574203985      -11.6674557466       -5.5015046635  WZ2       1077            0.0000000000
      6384      2128  TIP3      H2            -25.6334903985      -12.4496157466       -5.0747646635  WZ2       1077            0.0000000000
      6385      2129  TIP3      OH2           -35.8240403985      -15.5914657466       -3.8503846635  WZ2       1078            0.0000000000
      6386      2129  TIP3      H1            -36.5911403985      -16.1239857466       -4.0606246635  WZ2       1078            0.0000000000
      6387      2129  TIP3      H2            -35.1451403985      -15.9014257466       -4.4497546635  WZ2       1078            0.0000000000
      6388      2130  TIP3      OH2           -33.0845503985      -20.9636657466       -7.8378446635  WZ2       1079            0.0000000000
      6389      2130  TIP3      H1            -33.1825903985      -20.0173457466       -7.9432246635  WZ2       1079            0.0000000000
      6390      2130  TIP3      H2            -33.8269303985      -21.3362857466       -8.3134946635  WZ2       1079            0.0000000000
      6391      2131  TIP3      OH2           -31.8205003985      -16.6421257466       -4.2740046635  WZ2       1080            0.0000000000
      6392      2131  TIP3      H1            -32.0559603985      -16.8614557466       -3.3725146635  WZ2       1080            0.0000000000
      6393      2131  TIP3      H2            -32.6038103985      -16.8490057466       -4.7837546635  WZ2       1080            0.0000000000
      6394      2132  TIP3      OH2           -29.1048403985      -17.5147757466       -5.1986546635  WZ2       1081            0.0000000000
      6395      2132  TIP3      H1            -30.0523003985      -17.4828057466       -5.0663246635  WZ2       1081            0.0000000000
      6396      2132  TIP3      H2            -28.7921703985      -18.1400657466       -4.5448346635  WZ2       1081            0.0000000000
      6397      2133  TIP3      OH2           -27.4706903985      -18.8806657466       -3.1934646635  WZ2       1082            0.0000000000
      6398      2133  TIP3      H1            -27.5675103985      -19.8329357466       -3.1992746635  WZ2       1082            0.0000000000
      6399      2133  TIP3      H2            -27.7923803985      -18.6119857466       -2.3329146635  WZ2       1082            0.0000000000
      6400      2134  TIP3      OH2           -37.6437603985      -17.6710857466       -4.1459146635  WZ2       1083            0.0000000000
      6401      2134  TIP3      H1            -37.4320203985      -18.3774757466       -4.7561646635  WZ2       1083            0.0000000000
      6402      2134  TIP3      H2            -37.7550103985      -18.1084857466       -3.3017946635  WZ2       1083            0.0000000000
      6403      2135  TIP3      OH2           -32.8627403985      -21.6699257466       -5.1665646635  WZ2       1084            0.0000000000
      6404      2135  TIP3      H1            -32.1509003985      -22.3097057466       -5.1806546635  WZ2       1084            0.0000000000
      6405      2135  TIP3      H2            -32.9637003985      -21.4030957466       -6.0802546635  WZ2       1084            0.0000000000
      6406      2136  TIP3      OH2           -32.5089903985      -19.9870857466       -3.1129346635  WZ2       1085            0.0000000000
      6407      2136  TIP3      H1            -32.6407703985      -20.4627057466       -3.9330846635  WZ2       1085            0.0000000000
      6408      2136  TIP3      H2            -33.1082503985      -19.2427257466       -3.1682246635  WZ2       1085            0.0000000000
      6409      2137  TIP3      OH2           -32.9627603985       -3.1040557466      -19.9365346635  WZ2       1086            0.0000000000
      6410      2137  TIP3      H1            -32.0296903985       -2.9461857466      -19.7926946635  WZ2       1086            0.0000000000
      6411      2137  TIP3      H2            -33.2268803985       -2.4287557466      -20.5613846635  WZ2       1086            0.0000000000
      6412      2138  TIP3      OH2           -39.8752903985       -4.9941257466      -13.5717146635  WZ2       1089            0.0000000000
      6413      2138  TIP3      H1            -40.2096103985       -5.8743957466      -13.3996946635  WZ2       1089            0.0000000000
      6414      2138  TIP3      H2            -39.6530503985       -4.6486257466      -12.7071546635  WZ2       1089            0.0000000000
      6415      2139  TIP3      OH2           -22.3268103985       -4.1844857466      -10.5912346635  WZ2       1090            0.0000000000
      6416      2139  TIP3      H1            -22.3481403985       -3.9996457466       -9.6522946635  WZ2       1090            0.0000000000
      6417      2139  TIP3      H2            -21.6361903985       -3.6160857466      -10.9320946635  WZ2       1090            0.0000000000
      6418      2140  TIP3      OH2           -22.7635203985       -4.6173757466       -7.6693246635  WZ2       1091            0.0000000000
      6419      2140  TIP3      H1            -23.2506503985       -5.3529657466       -8.0405846635  WZ2       1091            0.0000000000
      6420      2140  TIP3      H2            -22.2142503985       -5.0109857466       -6.9913846635  WZ2       1091            0.0000000000
      6421      2141  TIP3      OH2           -24.3127903985       -8.8275657466       -3.0312946635  WZ2       1092            0.0000000000
      6422      2141  TIP3      H1            -25.1786803985       -8.9325957466       -2.6370646635  WZ2       1092            0.0000000000
      6423      2141  TIP3      H2            -23.9362003985       -8.0692357466       -2.5848246635  WZ2       1092            0.0000000000
      6424      2142  TIP3      OH2           -23.0118203985      -10.5711957466      -17.5170446635  WZ2       1093            0.0000000000
      6425      2142  TIP3      H1            -22.1616803985      -10.1501057466      -17.3898846635  WZ2       1093            0.0000000000
      6426      2142  TIP3      H2            -23.0063103985      -11.3111857466      -16.9099046635  WZ2       1093            0.0000000000
      6427      2143  TIP3      OH2           -22.6172603985      -12.5174557466      -15.6934746635  WZ2       1094            0.0000000000
      6428      2143  TIP3      H1            -23.3438003985      -12.9971957466      -15.2957146635  WZ2       1094            0.0000000000
      6429      2143  TIP3      H2            -22.0359303985      -12.3119857466      -14.9613146635  WZ2       1094            0.0000000000
      6430      2144  TIP3      OH2           -22.8581403985       -9.7327057466      -10.7457146635  WZ2       1095            0.0000000000
      6431      2144  TIP3      H1            -22.0247203985      -10.1107057466      -11.0263546635  WZ2       1095            0.0000000000
      6432      2144  TIP3      H2            -22.7461103985       -8.7895857466      -10.8648046635  WZ2       1095            0.0000000000
      6433      2145  TIP3      OH2           -24.3719103985       -6.8549557466       -8.4388746635  WZ2       1096            0.0000000000
      6434      2145  TIP3      H1            -25.0193803985       -6.5298057466       -7.8133546635  WZ2       1096            0.0000000000
      6435      2145  TIP3      H2            -24.8895103985       -7.2951857466       -9.1130446635  WZ2       1096            0.0000000000
      6436      2146  TIP3      OH2           -22.3489503985      -12.6166057466      -19.3023446635  WZ2       1097            0.0000000000
      6437      2146  TIP3      H1            -22.8708403985      -12.2601957466      -20.0212546635  WZ2       1097            0.0000000000
      6438      2146  TIP3      H2            -22.3820303985      -11.9418257466      -18.6242546635  WZ2       1097            0.0000000000
      6439      2147  TIP3      OH2           -24.0000503985      -15.3770457466      -20.7516346635  WZ2       1098            0.0000000000
      6440      2147  TIP3      H1            -23.9036103985      -14.7103457466      -21.4316646635  WZ2       1098            0.0000000000
      6441      2147  TIP3      H2            -24.1400903985      -16.1924157466      -21.2330846635  WZ2       1098            0.0000000000
      6442      2148  TIP3      OH2           -24.8305803985      -13.9968057466      -15.1306046635  WZ2       1099            0.0000000000
      6443      2148  TIP3      H1            -24.9807003985      -14.9419457466      -15.1508246635  WZ2       1099            0.0000000000
      6444      2148  TIP3      H2            -25.1841303985      -13.7156657466      -14.2866946635  WZ2       1099            0.0000000000
      6445      2149  TIP3      OH2           -39.7953403985      -11.9185857466      -11.1202246635  WZ2       1100            0.0000000000
      6446      2149  TIP3      H1            -39.6110503985      -12.0004157466      -12.0559346635  WZ2       1100            0.0000000000
      6447      2149  TIP3      H2            -38.9460503985      -12.0428857466      -10.6965846635  WZ2       1100            0.0000000000
      6448      2150  TIP3      OH2           -23.9742903985      -12.0264757466       -5.4917746635  WZ2       1101            0.0000000000
      6449      2150  TIP3      H1            -23.3915603985      -12.7612457466       -5.3000546635  WZ2       1101            0.0000000000
      6450      2150  TIP3      H2            -23.4103603985      -11.2544457466       -5.4451946635  WZ2       1101            0.0000000000
      6451      2151  TIP3      OH2           -22.4775803985      -14.1238957466       -4.8072346635  WZ2       1102            0.0000000000
      6452      2151  TIP3      H1            -23.3409103985      -14.5026857466       -4.9727646635  WZ2       1102            0.0000000000
      6453      2151  TIP3      H2            -21.8732103985      -14.8624157466       -4.8816546635  WZ2       1102            0.0000000000
      6454      2152  TIP3      OH2           -24.7526703985      -17.9690657466      -21.6340846635  WZ2       1103            0.0000000000
      6455      2152  TIP3      H1            -24.1420903985      -18.3403857466      -20.9972646635  WZ2       1103            0.0000000000
      6456      2152  TIP3      H2            -25.5895203985      -18.3903757466      -21.4380846635  WZ2       1103            0.0000000000
      6457      2153  TIP3      OH2           -25.1201003985      -16.4142257466      -16.6680946635  WZ2       1104            0.0000000000
      6458      2153  TIP3      H1            -24.8403903985      -17.3211857466      -16.5439246635  WZ2       1104            0.0000000000
      6459      2153  TIP3      H2            -24.3609303985      -15.9800757466      -17.0571746635  WZ2       1104            0.0000000000
      6460      2154  TIP3      OH2           -24.5082703985      -15.8324857466      -11.2322046635  WZ2       1105            0.0000000000
      6461      2154  TIP3      H1            -23.5754703985      -15.6204957466      -11.2666046635  WZ2       1105            0.0000000000
      6462      2154  TIP3      H2            -24.7435203985      -15.7312757466      -10.3099046635  WZ2       1105            0.0000000000
      6463      2155  TIP3      OH2           -24.4790803985      -15.0959557466       -8.4562646635  WZ2       1106            0.0000000000
      6464      2155  TIP3      H1            -25.3219503985      -14.8279157466       -8.0902846635  WZ2       1106            0.0000000000
      6465      2155  TIP3      H2            -24.0366503985      -14.2737657466       -8.6671546635  WZ2       1106            0.0000000000
      6466      2156  TIP3      OH2           -40.1978603985      -16.6480857466       -4.9793446635  WZ2       1107            0.0000000000
      6467      2156  TIP3      H1            -39.2783703985      -16.7702557466       -4.7430346635  WZ2       1107            0.0000000000
      6468      2156  TIP3      H2            -40.6474103985      -17.3981157466       -4.5899946635  WZ2       1107            0.0000000000
      6469      2157  TIP3      OH2           -22.1959203985      -21.1159357466       -3.1027646635  WZ2       1108            0.0000000000
      6470      2157  TIP3      H1            -21.8462203985      -21.7695857466       -3.7082946635  WZ2       1108            0.0000000000
      6471      2157  TIP3      H2            -22.0489703985      -20.2785257466       -3.5425046635  WZ2       1108            0.0000000000
      6472      2158  TIP3      OH2           -24.5066203985      -19.1512957466      -16.6198946635  WZ2       1109            0.0000000000
      6473      2158  TIP3      H1            -24.3241203985      -19.6001457466      -15.7943946635  WZ2       1109            0.0000000000
      6474      2158  TIP3      H2            -25.1063303985      -19.7358557466      -17.0834346635  WZ2       1109            0.0000000000
      6475      2159  TIP3      OH2           -38.9766103985      -18.3359257466      -12.0880546635  WZ2       1110            0.0000000000
      6476      2159  TIP3      H1            -38.5314503985      -19.1276757466      -11.7860846635  WZ2       1110            0.0000000000
      6477      2159  TIP3      H2            -38.5103103985      -17.6194057466      -11.6574946635  WZ2       1110            0.0000000000
      6478      2160  TIP3      OH2           -40.6725803985      -15.3366257466      -11.0190346635  WZ2       1111            0.0000000000
      6479      2160  TIP3      H1            -40.1806003985      -15.5575757466      -11.8098346635  WZ2       1111            0.0000000000
      6480      2160  TIP3      H2            -40.3104903985      -14.4962857466      -10.7380846635  WZ2       1111            0.0000000000
      6481      2161  TIP3      OH2           -22.6762003985      -19.0064757466       -4.7536346635  WZ2       1112            0.0000000000
      6482      2161  TIP3      H1            -23.5936303985      -18.7357657466       -4.7892846635  WZ2       1112            0.0000000000
      6483      2161  TIP3      H2            -22.5532603985      -19.5416357466       -5.5376646635  WZ2       1112            0.0000000000
      6484      2162  TIP3      OH2           -22.6400003985      -19.0834857466      -20.0918646635  WZ2       1113            0.0000000000
      6485      2162  TIP3      H1            -22.2277403985      -19.8049157466      -20.5670646635  WZ2       1113            0.0000000000
      6486      2162  TIP3      H2            -21.9583503985      -18.4140257466      -20.0334346635  WZ2       1113            0.0000000000
      6487      2163  TIP3      OH2           -25.5882103985       -4.0945457466      -15.0190546635  WZ2       1115            0.0000000000
      6488      2163  TIP3      H1            -24.9359203985       -4.4423357466      -15.6271446635  WZ2       1115            0.0000000000
      6489      2163  TIP3      H2            -25.0778303985       -3.6062257466      -14.3730846635  WZ2       1115            0.0000000000
      6490      2164  TIP3      OH2           -38.2034603985       -7.1654057466       -4.4759646635  WZ2       1117            0.0000000000
      6491      2164  TIP3      H1            -39.0242103985       -6.9907557466       -4.9364946635  WZ2       1117            0.0000000000
      6492      2164  TIP3      H2            -38.4556803985       -7.2389357466       -3.5555246635  WZ2       1117            0.0000000000
      6493      2165  TIP3      OH2           -35.2491703985       -6.1912857466       -8.2175646635  WZ2       1118            0.0000000000
      6494      2165  TIP3      H1            -35.6740603985       -5.3814357466       -8.5001046635  WZ2       1118            0.0000000000
      6495      2165  TIP3      H2            -34.3448903985       -6.1058757466       -8.5195846635  WZ2       1118            0.0000000000
      6496      2166  TIP3      OH2           -30.9380303985       -4.7922857466       -5.2581946635  WZ2       1119            0.0000000000
      6497      2166  TIP3      H1            -30.7532803985       -5.1256757466       -4.3801646635  WZ2       1119            0.0000000000
      6498      2166  TIP3      H2            -30.0915803985       -4.4824257466       -5.5802746635  WZ2       1119            0.0000000000
      6499      2167  TIP3      OH2           -28.5929903985       -3.5063957466       -6.0140546635  WZ2       1120            0.0000000000
      6500      2167  TIP3      H1            -27.9161003985       -4.1391657466       -6.2541346635  WZ2       1120            0.0000000000
      6501      2167  TIP3      H2            -28.2711103985       -3.1053457466       -5.2067246635  WZ2       1120            0.0000000000
      6502      2168  TIP3      OH2           -23.6756103985      -20.9168457466       -6.9345546635  WZ2       1121            0.0000000000
      6503      2168  TIP3      H1            -24.4882603985      -20.5918157466       -7.3220846635  WZ2       1121            0.0000000000
      6504      2168  TIP3      H2            -23.4427603985      -21.6769957466       -7.4676446635  WZ2       1121            0.0000000000
      6505      2169  TIP3      OH2           -37.8475003985       -2.9348957466       -8.1700346635  WZ2       1122            0.0000000000
      6506      2169  TIP3      H1            -38.5678603985       -2.4947957466       -8.6212646635  WZ2       1122            0.0000000000
      6507      2169  TIP3      H2            -38.2131003985       -3.1854257466       -7.3216346635  WZ2       1122            0.0000000000
      6508      2170  TIP3      OH2           -35.3802403985       -3.3345057466       -9.1403146635  WZ2       1123            0.0000000000
      6509      2170  TIP3      H1            -36.2450203985       -3.2626557466       -8.7363046635  WZ2       1123            0.0000000000
      6510      2170  TIP3      H2            -35.4353403985       -2.7877757466       -9.9240646635  WZ2       1123            0.0000000000
      6511      2171  TIP3      OH2           -30.6696803985       -3.4466157466       -9.9647146635  WZ2       1124            0.0000000000
      6512      2171  TIP3      H1            -31.1262803985       -2.9176457466      -10.6188746635  WZ2       1124            0.0000000000
      6513      2171  TIP3      H2            -30.5068803985       -2.8434757466       -9.2394846635  WZ2       1124            0.0000000000
      6514      2172  TIP3      OH2           -28.3420503985       -4.5686557466       -9.0196846635  WZ2       1125            0.0000000000
      6515      2172  TIP3      H1            -29.2466803985       -4.4036357466       -9.2854746635  WZ2       1125            0.0000000000
      6516      2172  TIP3      H2            -27.9131903985       -3.7154357466       -9.0853446635  WZ2       1125            0.0000000000
      6517      2173  TIP3      OH2           -25.7378603985       -2.9987457466       -8.7249046635  WZ2       1126            0.0000000000
      6518      2173  TIP3      H1            -25.9196603985       -2.0828557466       -8.9354146635  WZ2       1126            0.0000000000
      6519      2173  TIP3      H2            -25.5610803985       -3.4090357466       -9.5714446635  WZ2       1126            0.0000000000
      6520      2174  TIP3      OH2           -38.4326903985       -4.3116457466      -11.2598546635  WZ2       1127            0.0000000000
      6521      2174  TIP3      H1            -38.4510903985       -4.7371357466      -10.4026246635  WZ2       1127            0.0000000000
      6522      2174  TIP3      H2            -37.6279003985       -4.6301457466      -11.6686346635  WZ2       1127            0.0000000000
      6523      2175  TIP3      OH2           -36.2913803985       -5.6017757466      -12.6048646635  WZ2       1128            0.0000000000
      6524      2175  TIP3      H1            -36.5103103985       -6.5180357466      -12.4352646635  WZ2       1128            0.0000000000
      6525      2175  TIP3      H2            -35.4671603985       -5.4617357466      -12.1387246635  WZ2       1128            0.0000000000
      6526      2176  TIP3      OH2           -33.7541303985       -5.1318457466      -11.7560646635  WZ2       1129            0.0000000000
      6527      2176  TIP3      H1            -33.5415603985       -6.0199457466      -12.0429746635  WZ2       1129            0.0000000000
      6528      2176  TIP3      H2            -33.6896203985       -5.1660757466      -10.8016646635  WZ2       1129            0.0000000000
      6529      2177  TIP3      OH2           -30.2457603985      -19.4677857466      -12.6117346635  WZ2       1130            0.0000000000
      6530      2177  TIP3      H1            -30.9200803985      -20.0972257466      -12.3561546635  WZ2       1130            0.0000000000
      6531      2177  TIP3      H2            -29.6818403985      -19.9518957466      -13.2149446635  WZ2       1130            0.0000000000
      6532      2178  TIP3      OH2           -25.1030403985      -21.3603857466      -12.4990246635  WZ2       1131            0.0000000000
      6533      2178  TIP3      H1            -24.4992803985      -20.8128457466      -13.0009246635  WZ2       1131            0.0000000000
      6534      2178  TIP3      H2            -25.9728403985      -21.0413457466      -12.7396146635  WZ2       1131            0.0000000000
      6535      2179  TIP3      OH2           -23.3760003985      -20.2215157466      -14.1659346635  WZ2       1132            0.0000000000
      6536      2179  TIP3      H1            -22.7642503985      -20.7359457466      -14.6925746635  WZ2       1132            0.0000000000
      6537      2179  TIP3      H2            -22.9936603985      -19.3443057466      -14.1424946635  WZ2       1132            0.0000000000
      6538      2180  TIP3      OH2           -33.3397503985      -20.9070457466      -14.9764346635  WZ2       1135            0.0000000000
      6539      2180  TIP3      H1            -32.4654103985      -20.5186157466      -15.0060046635  WZ2       1135            0.0000000000
      6540      2180  TIP3      H2            -33.4756703985      -21.1222657466      -14.0537146635  WZ2       1135            0.0000000000
      6541      2181  TIP3      OH2           -27.7829103985      -20.8770657466      -13.3272646635  WZ2       1136            0.0000000000
      6542      2181  TIP3      H1            -27.7067503985      -20.7819057466      -14.2766646635  WZ2       1136            0.0000000000
      6543      2181  TIP3      H2            -28.0579903985      -21.7847757466      -13.1983546635  WZ2       1136            0.0000000000
      6544      2182  TIP3      OH2           -26.4296503985      -20.8512857466      -17.6347646635  WZ2       1137            0.0000000000
      6545      2182  TIP3      H1            -27.1325403985      -20.2363657466      -17.8446246635  WZ2       1137            0.0000000000
      6546      2182  TIP3      H2            -26.8745103985      -21.6886157466      -17.5036746635  WZ2       1137            0.0000000000
      6547      2183  TIP3      OH2           -39.1817203985       -5.0877257466      -18.0886246635  WZ2       1138            0.0000000000
      6548      2183  TIP3      H1            -39.8667303985       -5.1258357466      -18.7561146635  WZ2       1138            0.0000000000
      6549      2183  TIP3      H2            -39.1780003985       -4.1749657466      -17.8004146635  WZ2       1138            0.0000000000
      6550      2184  TIP3      OH2           -32.1957503985      -18.8266457466      -18.0866746635  WZ2       1140            0.0000000000
      6551      2184  TIP3      H1            -32.0176203985      -19.4733257466      -17.4038146635  WZ2       1140            0.0000000000
      6552      2184  TIP3      H2            -32.2491303985      -17.9928757466      -17.6195646635  WZ2       1140            0.0000000000
      6553      2185  TIP3      OH2           -30.3173703985       -3.8782357466      -19.6910046635  WZ2       1141            0.0000000000
      6554      2185  TIP3      H1            -29.4513503985       -3.5114957466      -19.8691846635  WZ2       1141            0.0000000000
      6555      2185  TIP3      H2            -30.5640903985       -4.3174357466      -20.5049246635  WZ2       1141            0.0000000000
      6556      2186  TIP3      OH2           -23.6084103985       -4.3152057466      -17.0118946635  WZ2       1142            0.0000000000
      6557      2186  TIP3      H1            -23.8027003985       -5.0629957466      -17.5769346635  WZ2       1142            0.0000000000
      6558      2186  TIP3      H2            -23.6474003985       -3.5571957466      -17.5951046635  WZ2       1142            0.0000000000
      6559      2187  TIP3      OH2           -37.9612103985      -20.3195657466       -5.2721246635  WZ2       1143            0.0000000000
      6560      2187  TIP3      H1            -38.3273903985      -21.0853057466       -4.8296546635  WZ2       1143            0.0000000000
      6561      2187  TIP3      H2            -37.0483603985      -20.2905457466       -4.9856146635  WZ2       1143            0.0000000000
      6562      2188  TIP3      OH2           -35.9881303985      -20.9691257466       -3.7364146635  WZ2       1144            0.0000000000
      6563      2188  TIP3      H1            -35.0897703985      -21.2431057466       -3.9210746635  WZ2       1144            0.0000000000
      6564      2188  TIP3      H2            -36.3748203985      -21.7115257466       -3.2721546635  WZ2       1144            0.0000000000
      6565      2189  TIP3      OH2           -37.3636003985       -4.1676457466      -21.0634146635  WZ2       1145            0.0000000000
      6566      2189  TIP3      H1            -37.6311403985       -3.8813557466      -20.1901046635  WZ2       1145            0.0000000000
      6567      2189  TIP3      H2            -36.5923403985       -4.7137257466      -20.9111646635  WZ2       1145            0.0000000000
      6568      2190  TIP3      OH2           -27.5669003985      -21.6365957466       -3.5541346635  WZ2       1146            0.0000000000
      6569      2190  TIP3      H1            -27.4901803985      -22.0625257466       -2.7003646635  WZ2       1146            0.0000000000
      6570      2190  TIP3      H2            -26.6732403985      -21.6231257466       -3.8967846635  WZ2       1146            0.0000000000
      6571      2191  TIP3      OH2           -24.3907903985       -5.5639657466       -4.8617146635  WZ2       1147            0.0000000000
      6572      2191  TIP3      H1            -25.1726003985       -5.7501657466       -5.3816546635  WZ2       1147            0.0000000000
      6573      2191  TIP3      H2            -24.4628003985       -4.6345357466       -4.6444646635  WZ2       1147            0.0000000000
      6574      2192  TIP3      OH2            -9.9847503985      -11.6775257466      -14.8309946635  WZ2       1148            0.0000000000
      6575      2192  TIP3      H1             -9.8956403985      -10.7337057466      -14.9632846635  WZ2       1148            0.0000000000
      6576      2192  TIP3      H2            -10.6229903985      -11.9528857466      -15.4890546635  WZ2       1148            0.0000000000
      6577      2193  TIP3      OH2           -11.0516203985      -12.4224557466      -11.4121746635  WZ2       1149            0.0000000000
      6578      2193  TIP3      H1            -11.0898703985      -13.0688257466      -10.7072146635  WZ2       1149            0.0000000000
      6579      2193  TIP3      H2            -11.3739703985      -12.8890157466      -12.1833046635  WZ2       1149            0.0000000000
      6580      2194  TIP3      OH2           -18.6831203985      -12.8082457466       -9.8191846635  WZ2       1150            0.0000000000
      6581      2194  TIP3      H1            -18.6419103985      -13.4339157466       -9.0959446635  WZ2       1150            0.0000000000
      6582      2194  TIP3      H2            -17.9803503985      -12.1843857466       -9.6371446635  WZ2       1150            0.0000000000
      6583      2195  TIP3      OH2            -7.3456003985       -9.4834157466      -13.1106646635  WZ2       1151            0.0000000000
      6584      2195  TIP3      H1             -7.7863303985      -10.2038157466      -12.6601046635  WZ2       1151            0.0000000000
      6585      2195  TIP3      H2             -7.3586303985       -8.7626957466      -12.4808946635  WZ2       1151            0.0000000000
      6586      2196  TIP3      OH2           -17.7598103985       -8.3583557466      -11.2842746635  WZ2       1152            0.0000000000
      6587      2196  TIP3      H1            -18.1292903985       -9.1603057466      -11.6538446635  WZ2       1152            0.0000000000
      6588      2196  TIP3      H2            -16.8187003985       -8.5268657466      -11.2379346635  WZ2       1152            0.0000000000
      6589      2197  TIP3      OH2           -21.1497603985      -14.6980957466      -15.8913946635  WZ2       1153            0.0000000000
      6590      2197  TIP3      H1            -21.5974203985      -13.8522257466      -15.9097446635  WZ2       1153            0.0000000000
      6591      2197  TIP3      H2            -21.7106403985      -15.2776757466      -16.4068846635  WZ2       1153            0.0000000000
      6592      2198  TIP3      OH2           -20.4391503985      -12.5361357466      -13.7655946635  WZ2       1154            0.0000000000
      6593      2198  TIP3      H1            -20.2258003985      -13.3059757466      -13.2382946635  WZ2       1154            0.0000000000
      6594      2198  TIP3      H2            -19.7013903985      -12.4464657466      -14.3688346635  WZ2       1154            0.0000000000
      6595      2199  TIP3      OH2           -10.2340503985       -4.3792457466      -12.8986246635  WZ2       1155            0.0000000000
      6596      2199  TIP3      H1             -9.6144103985       -5.0557757466      -13.1717046635  WZ2       1155            0.0000000000
      6597      2199  TIP3      H2            -10.4423103985       -4.5971657466      -11.9901346635  WZ2       1155            0.0000000000
      6598      2200  TIP3      OH2           -12.6621803985       -9.9903157466      -11.0060746635  WZ2       1156            0.0000000000
      6599      2200  TIP3      H1            -12.3583903985      -10.6761757466      -11.6006646635  WZ2       1156            0.0000000000
      6600      2200  TIP3      H2            -11.9407803985       -9.8714457466      -10.3882746635  WZ2       1156            0.0000000000
      6601      2201  TIP3      OH2            -3.9992003985      -18.3887857466      -10.1454546635  WZ2       1157            0.0000000000
      6602      2201  TIP3      H1             -3.9499803985      -17.7786657466       -9.4095446635  WZ2       1157            0.0000000000
      6603      2201  TIP3      H2             -3.5736903985      -17.9276957466      -10.8683446635  WZ2       1157            0.0000000000
      6604      2202  TIP3      OH2            -9.5214803985      -15.5960757466      -10.6785946635  WZ2       1158            0.0000000000
      6605      2202  TIP3      H1             -9.3788903985      -16.5423757466      -10.6584346635  WZ2       1158            0.0000000000
      6606      2202  TIP3      H2             -9.6275803985      -15.3890957466      -11.6071046635  WZ2       1158            0.0000000000
      6607      2203  TIP3      OH2           -16.3666503985      -17.4944357466      -13.4061146635  WZ2       1159            0.0000000000
      6608      2203  TIP3      H1            -16.3235403985      -16.6345857466      -13.8244846635  WZ2       1159            0.0000000000
      6609      2203  TIP3      H2            -16.8242403985      -18.0469657466      -14.0397946635  WZ2       1159            0.0000000000
      6610      2204  TIP3      OH2            -8.6443803985      -17.3638757466      -15.0052846635  WZ2       1160            0.0000000000
      6611      2204  TIP3      H1             -7.9979503985      -17.6925557466      -14.3805246635  WZ2       1160            0.0000000000
      6612      2204  TIP3      H2             -8.1344403985      -16.8459757466      -15.6281446635  WZ2       1160            0.0000000000
      6613      2205  TIP3      OH2           -19.7465003985      -15.0978557466      -12.6439746635  WZ2       1161            0.0000000000
      6614      2205  TIP3      H1            -19.0928403985      -15.6476857466      -12.2119646635  WZ2       1161            0.0000000000
      6615      2205  TIP3      H2            -19.7225703985      -15.3719557466      -13.5607746635  WZ2       1161            0.0000000000
      6616      2206  TIP3      OH2           -14.5900503985      -13.5477257466      -13.4288246635  WZ2       1162            0.0000000000
      6617      2206  TIP3      H1            -13.9739503985      -14.0741857466      -12.9194246635  WZ2       1162            0.0000000000
      6618      2206  TIP3      H2            -15.1761703985      -14.1878557466      -13.8324646635  WZ2       1162            0.0000000000
      6619      2207  TIP3      OH2            -3.6077403985      -16.9108657466       -7.9094746635  WZ2       1163            0.0000000000
      6620      2207  TIP3      H1             -4.2962803985      -16.2527957466       -8.0048146635  WZ2       1163            0.0000000000
      6621      2207  TIP3      H2             -3.5922803985      -17.1080757466       -6.9729346635  WZ2       1163            0.0000000000
      6622      2208  TIP3      OH2           -17.5564603985      -18.5765957466       -9.3320346635  WZ2       1164            0.0000000000
      6623      2208  TIP3      H1            -17.7752903985      -18.0465357466      -10.0984346635  WZ2       1164            0.0000000000
      6624      2208  TIP3      H2            -18.2243703985      -18.3500457466       -8.6848946635  WZ2       1164            0.0000000000
      6625      2209  TIP3      OH2           -10.1874803985       -9.0764857466      -15.7881246635  WZ2       1165            0.0000000000
      6626      2209  TIP3      H1            -10.4829703985       -9.3992557466      -16.6394346635  WZ2       1165            0.0000000000
      6627      2209  TIP3      H2            -10.5117003985       -8.1768157466      -15.7468646635  WZ2       1165            0.0000000000
      6628      2210  TIP3      OH2           -14.9873203985      -10.9010257466       -9.0446646635  WZ2       1166            0.0000000000
      6629      2210  TIP3      H1            -15.7274103985      -10.3028757466       -8.9411446635  WZ2       1166            0.0000000000
      6630      2210  TIP3      H2            -14.2733703985      -10.3470657466       -9.3603046635  WZ2       1166            0.0000000000
      6631      2211  TIP3      OH2            -6.8805403985      -18.0729457466      -13.0246946635  WZ2       1167            0.0000000000
      6632      2211  TIP3      H1             -7.0957403985      -18.8386057466      -12.4920946635  WZ2       1167            0.0000000000
      6633      2211  TIP3      H2             -6.2248003985      -17.6004857466      -12.5118446635  WZ2       1167            0.0000000000
      6634      2212  TIP3      OH2           -17.9627303985      -16.6844157466      -11.3798146635  WZ2       1168            0.0000000000
      6635      2212  TIP3      H1            -17.3491003985      -16.0516557466      -11.0065746635  WZ2       1168            0.0000000000
      6636      2212  TIP3      H2            -17.4506603985      -17.1569157466      -12.0361246635  WZ2       1168            0.0000000000
      6637      2213  TIP3      OH2           -16.5798903985       -8.9367257466       -8.2575146635  WZ2       1169            0.0000000000
      6638      2213  TIP3      H1            -16.5851303985       -8.0573757466       -8.6355846635  WZ2       1169            0.0000000000
      6639      2213  TIP3      H2            -17.4334803985       -9.0203157466       -7.8325246635  WZ2       1169            0.0000000000
      6640      2214  TIP3      OH2           -20.4588003985       -9.2659357466      -17.4755846635  WZ2       1170            0.0000000000
      6641      2214  TIP3      H1            -20.7307103985       -9.0368357466      -18.3642946635  WZ2       1170            0.0000000000
      6642      2214  TIP3      H2            -20.4132303985       -8.4280557466      -17.0150546635  WZ2       1170            0.0000000000
      6643      2215  TIP3      OH2            -6.8338303985       -7.6443457466      -10.7627346635  WZ2       1171            0.0000000000
      6644      2215  TIP3      H1             -7.7754603985       -7.5859557466      -10.6010446635  WZ2       1171            0.0000000000
      6645      2215  TIP3      H2             -6.5572203985       -6.7382957466      -10.8997646635  WZ2       1171            0.0000000000
      6646      2216  TIP3      OH2            -6.5331303985      -19.3578157466       -9.3453446635  WZ2       1172            0.0000000000
      6647      2216  TIP3      H1             -7.2692103985      -18.7471057466       -9.3832146635  WZ2       1172            0.0000000000
      6648      2216  TIP3      H2             -5.8497303985      -18.9429157466       -9.8717046635  WZ2       1172            0.0000000000
      6649      2217  TIP3      OH2           -13.5299903985      -21.2710857466      -11.8795446635  WZ2       1173            0.0000000000
      6650      2217  TIP3      H1            -13.6475703985      -22.2194857466      -11.9337146635  WZ2       1173            0.0000000000
      6651      2217  TIP3      H2            -14.3849803985      -20.9384757466      -11.6064346635  WZ2       1173            0.0000000000
      6652      2218  TIP3      OH2            -8.5817103985       -5.8629957466      -14.1375746635  WZ2       1174            0.0000000000
      6653      2218  TIP3      H1             -8.1564803985       -6.5702057466      -14.6226146635  WZ2       1174            0.0000000000
      6654      2218  TIP3      H2             -8.2647103985       -5.0617257466      -14.5543546635  WZ2       1174            0.0000000000
      6655      2219  TIP3      OH2            -7.4220603985       -7.9621457466      -15.6289146635  WZ2       1175            0.0000000000
      6656      2219  TIP3      H1             -7.6795803985       -8.6521357466      -16.2403246635  WZ2       1175            0.0000000000
      6657      2219  TIP3      H2             -7.3509803985       -8.4050257466      -14.7833246635  WZ2       1175            0.0000000000
      6658      2220  TIP3      OH2            -5.7360403985       -9.3954757466       -7.1515646635  WZ2       1176            0.0000000000
      6659      2220  TIP3      H1             -5.5964103985       -9.9872257466       -7.8908646635  WZ2       1176            0.0000000000
      6660      2220  TIP3      H2             -5.5687603985       -8.5228857466       -7.5076846635  WZ2       1176            0.0000000000
      6661      2221  TIP3      OH2           -11.2635003985      -12.4335257466      -17.3789646635  WZ2       1177            0.0000000000
      6662      2221  TIP3      H1            -11.9749503985      -11.8985557466      -17.7309146635  WZ2       1177            0.0000000000
      6663      2221  TIP3      H2            -10.5725403985      -12.3783157466      -18.0390746635  WZ2       1177            0.0000000000
      6664      2222  TIP3      OH2           -11.2095803985      -13.9760957466      -20.3404646635  WZ2       1178            0.0000000000
      6665      2222  TIP3      H1            -10.5085903985      -13.9534057466      -19.6890646635  WZ2       1178            0.0000000000
      6666      2222  TIP3      H2            -10.9072903985      -14.6041257466      -20.9965346635  WZ2       1178            0.0000000000
      6667      2223  TIP3      OH2            -3.8941103985      -13.0556757466       -9.0855246635  WZ2       1179            0.0000000000
      6668      2223  TIP3      H1             -4.5467003985      -12.3611157466       -8.9964346635  WZ2       1179            0.0000000000
      6669      2223  TIP3      H2             -3.4290803985      -12.8455857466       -9.8953646635  WZ2       1179            0.0000000000
      6670      2224  TIP3      OH2            -7.8577303985      -12.2241957466      -16.4273746635  WZ2       1180            0.0000000000
      6671      2224  TIP3      H1             -8.5896303985      -11.9958257466      -15.8543146635  WZ2       1180            0.0000000000
      6672      2224  TIP3      H2             -7.4105103985      -12.9379257466      -15.9726246635  WZ2       1180            0.0000000000
      6673      2225  TIP3      OH2            -7.9603803985      -14.0499357466       -7.3596746635  WZ2       1181            0.0000000000
      6674      2225  TIP3      H1             -7.8804703985      -13.2864957466       -6.7878246635  WZ2       1181            0.0000000000
      6675      2225  TIP3      H2             -8.5616103985      -13.7706957466       -8.0501646635  WZ2       1181            0.0000000000
      6676      2226  TIP3      OH2           -16.2123603985      -11.5935757466      -14.5448746635  WZ2       1182            0.0000000000
      6677      2226  TIP3      H1            -16.5428403985      -11.9642357466      -15.3631746635  WZ2       1182            0.0000000000
      6678      2226  TIP3      H2            -15.6239503985      -12.2641757466      -14.1980446635  WZ2       1182            0.0000000000
      6679      2227  TIP3      OH2           -14.8456103985       -8.1655157466      -11.8636546635  WZ2       1183            0.0000000000
      6680      2227  TIP3      H1            -14.9404803985       -8.7442057466      -12.6201946635  WZ2       1183            0.0000000000
      6681      2227  TIP3      H2            -14.1162503985       -8.5369457466      -11.3673746635  WZ2       1183            0.0000000000
      6682      2228  TIP3      OH2           -15.8458103985      -12.8250157466      -10.9113746635  WZ2       1184            0.0000000000
      6683      2228  TIP3      H1            -15.2805603985      -12.7035957466      -11.6742546635  WZ2       1184            0.0000000000
      6684      2228  TIP3      H2            -15.5269203985      -12.1875157466      -10.2725246635  WZ2       1184            0.0000000000
      6685      2229  TIP3      OH2            -9.5365903985       -7.3218257466      -10.1773246635  WZ2       1185            0.0000000000
      6686      2229  TIP3      H1             -9.7769303985       -6.6595157466       -9.5294046635  WZ2       1185            0.0000000000
      6687      2229  TIP3      H2             -9.7347703985       -8.1563057466       -9.7523646635  WZ2       1185            0.0000000000
      6688      2230  TIP3      OH2           -14.9657403985       -8.4257457466       -6.1941846635  WZ2       1186            0.0000000000
      6689      2230  TIP3      H1            -15.2769903985       -7.6434257466       -5.7388646635  WZ2       1186            0.0000000000
      6690      2230  TIP3      H2            -15.6157203985       -8.5788357466       -6.8799846635  WZ2       1186            0.0000000000
      6691      2231  TIP3      OH2            -8.9867803985      -13.0619057466      -18.7422546635  WZ2       1187            0.0000000000
      6692      2231  TIP3      H1             -8.4072303985      -12.9118757466      -17.9953646635  WZ2       1187            0.0000000000
      6693      2231  TIP3      H2             -8.5727803985      -12.5911657466      -19.4656146635  WZ2       1187            0.0000000000
      6694      2232  TIP3      OH2           -18.0457503985      -12.2276357466       -6.9656146635  WZ2       1188            0.0000000000
      6695      2232  TIP3      H1            -17.9754303985      -11.5769557466       -6.2671146635  WZ2       1188            0.0000000000
      6696      2232  TIP3      H2            -18.9365303985      -12.1248857466       -7.3005246635  WZ2       1188            0.0000000000
      6697      2233  TIP3      OH2           -11.2602903985       -6.3250557466      -15.3069446635  WZ2       1189            0.0000000000
      6698      2233  TIP3      H1            -10.7865303985       -6.0294257466      -14.5295246635  WZ2       1189            0.0000000000
      6699      2233  TIP3      H2            -11.8233603985       -5.5868957466      -15.5399846635  WZ2       1189            0.0000000000
      6700      2234  TIP3      OH2           -16.7261503985       -6.3542457466       -5.4308046635  WZ2       1190            0.0000000000
      6701      2234  TIP3      H1            -16.7186203985       -6.4902757466       -6.3782546635  WZ2       1190            0.0000000000
      6702      2234  TIP3      H2            -17.6421103985       -6.4714357466       -5.1788046635  WZ2       1190            0.0000000000
      6703      2235  TIP3      OH2            -5.2879403985      -21.3118657466      -18.9292846635  WZ2       1191            0.0000000000
      6704      2235  TIP3      H1             -6.1878703985      -21.1729657466      -18.6342246635  WZ2       1191            0.0000000000
      6705      2235  TIP3      H2             -5.0361003985      -20.4804057466      -19.3311146635  WZ2       1191            0.0000000000
      6706      2236  TIP3      OH2           -17.2220903985      -12.5241457466      -16.9555946635  WZ2       1192            0.0000000000
      6707      2236  TIP3      H1            -17.5139603985      -11.7559757466      -17.4464646635  WZ2       1192            0.0000000000
      6708      2236  TIP3      H2            -17.8965703985      -13.1835257466      -17.1184546635  WZ2       1192            0.0000000000
      6709      2237  TIP3      OH2            -4.0988003985       -6.9456257466      -20.5528946635  WZ2       1193            0.0000000000
      6710      2237  TIP3      H1             -4.0254503985       -6.0066057466      -20.3823646635  WZ2       1193            0.0000000000
      6711      2237  TIP3      H2             -3.1932903985       -7.2507657466      -20.6091646635  WZ2       1193            0.0000000000
      6712      2238  TIP3      OH2           -21.1290803985      -10.1612257466       -8.1406146635  WZ2       1194            0.0000000000
      6713      2238  TIP3      H1            -21.6302403985      -10.1892857466       -8.9556446635  WZ2       1194            0.0000000000
      6714      2238  TIP3      H2            -21.1237103985      -11.0669057466       -7.8308846635  WZ2       1194            0.0000000000
      6715      2239  TIP3      OH2           -21.3788103985       -7.3808457466      -11.2565946635  WZ2       1195            0.0000000000
      6716      2239  TIP3      H1            -20.4327503985       -7.5251457466      -11.2756446635  WZ2       1195            0.0000000000
      6717      2239  TIP3      H2            -21.4911803985       -6.5965657466      -10.7194746635  WZ2       1195            0.0000000000
      6718      2240  TIP3      OH2            -3.1809603985       -6.7148757466       -5.5742246635  WZ2       1196            0.0000000000
      6719      2240  TIP3      H1             -3.2302803985       -7.6700657466       -5.6114646635  WZ2       1196            0.0000000000
      6720      2240  TIP3      H2             -4.0077303985       -6.4473457466       -5.1728446635  WZ2       1196            0.0000000000
      6721      2241  TIP3      OH2           -12.2025603985       -7.1409557466       -6.6980846635  WZ2       1197            0.0000000000
      6722      2241  TIP3      H1            -12.1151003985       -6.3144957466       -6.2231746635  WZ2       1197            0.0000000000
      6723      2241  TIP3      H2            -13.0660503985       -7.4705757466       -6.4491546635  WZ2       1197            0.0000000000
      6724      2242  TIP3      OH2           -11.7879803985       -3.3685857466      -16.8920246635  WZ2       1198            0.0000000000
      6725      2242  TIP3      H1            -11.8633803985       -3.4898657466      -17.8385046635  WZ2       1198            0.0000000000
      6726      2242  TIP3      H2            -11.7551103985       -2.4193157466      -16.7735646635  WZ2       1198            0.0000000000
      6727      2243  TIP3      OH2           -18.1346003985       -4.5798857466      -15.1111246635  WZ2       1199            0.0000000000
      6728      2243  TIP3      H1            -17.9825603985       -4.9278457466      -14.2324746635  WZ2       1199            0.0000000000
      6729      2243  TIP3      H2            -18.9855603985       -4.9361557466      -15.3664046635  WZ2       1199            0.0000000000
      6730      2244  TIP3      OH2            -8.6863803985       -4.2145657466      -19.8897846635  WZ2       1200            0.0000000000
      6731      2244  TIP3      H1             -8.3115403985       -4.9589557466      -20.3605246635  WZ2       1200            0.0000000000
      6732      2244  TIP3      H2             -8.6820103985       -4.4845057466      -18.9714546635  WZ2       1200            0.0000000000
      6733      2245  TIP3      OH2            -9.0175703985       -4.2888557466      -17.1405646635  WZ2       1201            0.0000000000
      6734      2245  TIP3      H1             -9.9525903985       -4.1886657466      -16.9618646635  WZ2       1201            0.0000000000
      6735      2245  TIP3      H2             -8.7373803985       -4.9982557466      -16.5622446635  WZ2       1201            0.0000000000
      6736      2246  TIP3      OH2            -6.0289803985      -15.2216257466       -5.0940046635  WZ2       1202            0.0000000000
      6737      2246  TIP3      H1             -6.4363003985      -14.7410657466       -5.8146746635  WZ2       1202            0.0000000000
      6738      2246  TIP3      H2             -5.9884103985      -16.1270257466       -5.4019246635  WZ2       1202            0.0000000000
      6739      2247  TIP3      OH2           -18.8800303985       -8.8376857466       -7.0973346635  WZ2       1203            0.0000000000
      6740      2247  TIP3      H1            -18.6639003985       -9.1991257466       -6.2377546635  WZ2       1203            0.0000000000
      6741      2247  TIP3      H2            -19.7355603985       -9.2123057466       -7.3069846635  WZ2       1203            0.0000000000
      6742      2248  TIP3      OH2           -16.2612303985      -20.3676357466      -11.1019146635  WZ2       1204            0.0000000000
      6743      2248  TIP3      H1            -17.1228603985      -20.4548157466      -11.5096246635  WZ2       1204            0.0000000000
      6744      2248  TIP3      H2            -16.2836603985      -19.5116257466      -10.6741546635  WZ2       1204            0.0000000000
      6745      2249  TIP3      OH2           -11.5984503985      -20.6455957466       -7.7272146635  WZ2       1205            0.0000000000
      6746      2249  TIP3      H1            -11.1781403985      -21.0608857466       -6.9741546635  WZ2       1205            0.0000000000
      6747      2249  TIP3      H2            -12.5314903985      -20.8242657466       -7.6100146635  WZ2       1205            0.0000000000
      6748      2250  TIP3      OH2            -8.2719603985      -16.8900757466       -6.8737646635  WZ2       1206            0.0000000000
      6749      2250  TIP3      H1             -8.7860103985      -17.0158557466       -6.0761646635  WZ2       1206            0.0000000000
      6750      2250  TIP3      H2             -8.4274903985      -15.9777657466       -7.1181446635  WZ2       1206            0.0000000000
      6751      2251  TIP3      OH2            -7.5094703985      -12.0290757466      -21.1124646635  WZ2       1207            0.0000000000
      6752      2251  TIP3      H1             -7.4673903985      -12.2516857466      -22.0424646635  WZ2       1207            0.0000000000
      6753      2251  TIP3      H2             -6.6602603985      -11.6303657466      -20.9224746635  WZ2       1207            0.0000000000
      6754      2252  TIP3      OH2           -11.9367203985      -18.1532557466      -20.4421346635  WZ2       1208            0.0000000000
      6755      2252  TIP3      H1            -12.1902403985      -18.1340957466      -19.5193246635  WZ2       1208            0.0000000000
      6756      2252  TIP3      H2            -12.1935103985      -19.0247157466      -20.7435146635  WZ2       1208            0.0000000000
      6757      2253  TIP3      OH2           -16.1702203985      -15.4021857466      -10.0068946635  WZ2       1209            0.0000000000
      6758      2253  TIP3      H1            -16.8120103985      -15.4424557466       -9.2978846635  WZ2       1209            0.0000000000
      6759      2253  TIP3      H2            -16.1330203985      -14.4757157466      -10.2445946635  WZ2       1209            0.0000000000
      6760      2254  TIP3      OH2           -16.1733103985      -15.1811757466      -15.0948946635  WZ2       1210            0.0000000000
      6761      2254  TIP3      H1            -17.0660203985      -15.5215657466      -15.1535146635  WZ2       1210            0.0000000000
      6762      2254  TIP3      H2            -15.7226503985      -15.5580857466      -15.8505746635  WZ2       1210            0.0000000000
      6763      2255  TIP3      OH2           -10.6377603985      -14.7651457466      -16.2778146635  WZ2       1211            0.0000000000
      6764      2255  TIP3      H1            -11.0467303985      -13.9502857466      -16.5693346635  WZ2       1211            0.0000000000
      6765      2255  TIP3      H2             -9.9171403985      -14.9051357466      -16.8921046635  WZ2       1211            0.0000000000
      6766      2256  TIP3      OH2           -11.5356003985      -14.5895057466       -4.7897446635  WZ2       1212            0.0000000000
      6767      2256  TIP3      H1            -12.0982203985      -15.2943457466       -4.4689646635  WZ2       1212            0.0000000000
      6768      2256  TIP3      H2            -10.7092603985      -14.7103157466       -4.3219846635  WZ2       1212            0.0000000000
      6769      2257  TIP3      OH2            -9.6329903985      -15.3191057466      -13.4638446635  WZ2       1213            0.0000000000
      6770      2257  TIP3      H1             -9.8285403985      -14.7134257466      -14.1787846635  WZ2       1213            0.0000000000
      6771      2257  TIP3      H2             -9.4517303985      -16.1525857466      -13.8982146635  WZ2       1213            0.0000000000
      6772      2258  TIP3      OH2           -18.4201703985      -15.0818357466       -8.1396946635  WZ2       1214            0.0000000000
      6773      2258  TIP3      H1            -18.4582303985      -14.6816757466       -7.2709846635  WZ2       1214            0.0000000000
      6774      2258  TIP3      H2            -18.9110603985      -15.8985957466       -8.0494046635  WZ2       1214            0.0000000000
      6775      2259  TIP3      OH2           -15.0544303985      -17.7076057466      -21.3410946635  WZ2       1215            0.0000000000
      6776      2259  TIP3      H1            -15.4853603985      -18.1525957466      -20.6113546635  WZ2       1215            0.0000000000
      6777      2259  TIP3      H2            -15.7725603985      -17.3359757466      -21.8533446635  WZ2       1215            0.0000000000
      6778      2260  TIP3      OH2           -21.8120903985      -17.9656557466      -14.2892246635  WZ2       1216            0.0000000000
      6779      2260  TIP3      H1            -21.1813203985      -17.9944457466      -13.5698346635  WZ2       1216            0.0000000000
      6780      2260  TIP3      H2            -21.3626603985      -18.3907857466      -15.0196346635  WZ2       1216            0.0000000000
      6781      2261  TIP3      OH2           -20.5378803985      -17.2194557466      -18.8651846635  WZ2       1217            0.0000000000
      6782      2261  TIP3      H1            -20.0637103985      -16.6284657466      -19.4500946635  WZ2       1217            0.0000000000
      6783      2261  TIP3      H2            -21.2552403985      -16.6891657466      -18.5181746635  WZ2       1217            0.0000000000
      6784      2262  TIP3      OH2           -10.3690703985      -13.6809757466       -8.7926046635  WZ2       1218            0.0000000000
      6785      2262  TIP3      H1            -10.0455903985      -14.3120057466       -9.4355546635  WZ2       1218            0.0000000000
      6786      2262  TIP3      H2            -10.8091403985      -14.2157557466       -8.1318646635  WZ2       1218            0.0000000000
      6787      2263  TIP3      OH2           -13.5917803985      -17.7534257466      -14.0084846635  WZ2       1219            0.0000000000
      6788      2263  TIP3      H1            -14.5026703985      -17.6967457466      -13.7198846635  WZ2       1219            0.0000000000
      6789      2263  TIP3      H2            -13.0864903985      -17.8138757466      -13.1977646635  WZ2       1219            0.0000000000
      6790      2264  TIP3      OH2           -18.7634403985      -16.1247957466      -15.1817246635  WZ2       1220            0.0000000000
      6791      2264  TIP3      H1            -19.6526403985      -16.0252457466      -15.5217646635  WZ2       1220            0.0000000000
      6792      2264  TIP3      H2            -18.4669503985      -16.9664957466      -15.5279346635  WZ2       1220            0.0000000000
      6793      2265  TIP3      OH2           -15.1102603985      -16.1245357466      -17.5252646635  WZ2       1221            0.0000000000
      6794      2265  TIP3      H1            -14.1787103985      -15.9955357466      -17.3469546635  WZ2       1221            0.0000000000
      6795      2265  TIP3      H2            -15.3252303985      -15.4551057466      -18.1747946635  WZ2       1221            0.0000000000
      6796      2266  TIP3      OH2            -9.1865903985      -18.5187957466      -10.7443046635  WZ2       1222            0.0000000000
      6797      2266  TIP3      H1             -9.8634303985      -18.3874857466      -10.0803346635  WZ2       1222            0.0000000000
      6798      2266  TIP3      H2             -9.6721003985      -18.6738457466      -11.5545346635  WZ2       1222            0.0000000000
      6799      2267  TIP3      OH2           -16.4362403985      -14.9303157466      -19.9586546635  WZ2       1223            0.0000000000
      6800      2267  TIP3      H1            -16.9787303985      -15.3099357466      -20.6498946635  WZ2       1223            0.0000000000
      6801      2267  TIP3      H2            -15.6027503985      -14.7358457466      -20.3872446635  WZ2       1223            0.0000000000
      6802      2268  TIP3      OH2            -5.8990803985       -2.8472557466       -4.4675446635  WZ2       1224            0.0000000000
      6803      2268  TIP3      H1             -5.6992103985       -2.4230657466       -5.3020146635  WZ2       1224            0.0000000000
      6804      2268  TIP3      H2             -5.2437103985       -2.5034357466       -3.8605046635  WZ2       1224            0.0000000000
      6805      2269  TIP3      OH2           -18.3011003985      -10.3731257466       -4.8594946635  WZ2       1225            0.0000000000
      6806      2269  TIP3      H1            -17.5688603985      -10.1185357466       -4.2980446635  WZ2       1225            0.0000000000
      6807      2269  TIP3      H2            -19.0812303985      -10.1685857466       -4.3439546635  WZ2       1225            0.0000000000
      6808      2270  TIP3      OH2           -12.2718103985      -14.9661257466      -12.1215246635  WZ2       1226            0.0000000000
      6809      2270  TIP3      H1            -11.7074703985      -15.5124657466      -12.6685646635  WZ2       1226            0.0000000000
      6810      2270  TIP3      H2            -12.4194703985      -15.4879357466      -11.3327646635  WZ2       1226            0.0000000000
      6811      2271  TIP3      OH2           -17.2698403985      -18.8295157466      -15.7030446635  WZ2       1227            0.0000000000
      6812      2271  TIP3      H1            -17.5868903985      -19.7319857466      -15.7385046635  WZ2       1227            0.0000000000
      6813      2271  TIP3      H2            -16.4884303985      -18.8277757466      -16.2558846635  WZ2       1227            0.0000000000
      6814      2272  TIP3      OH2           -13.6452203985      -16.5775157466       -9.7074846635  WZ2       1228            0.0000000000
      6815      2272  TIP3      H1            -14.4806903985      -16.1235657466       -9.5972446635  WZ2       1228            0.0000000000
      6816      2272  TIP3      H2            -13.1211603985      -16.3016657466       -8.9554946635  WZ2       1228            0.0000000000
      6817      2273  TIP3      OH2           -13.1009603985      -10.3647457466      -18.0228446635  WZ2       1229            0.0000000000
      6818      2273  TIP3      H1            -13.8458603985      -10.8722157466      -18.3450546635  WZ2       1229            0.0000000000
      6819      2273  TIP3      H2            -13.2352403985      -10.3159457466      -17.0763646635  WZ2       1229            0.0000000000
      6820      2274  TIP3      OH2            -5.9510703985      -11.2319257466       -9.2360846635  WZ2       1230            0.0000000000
      6821      2274  TIP3      H1             -5.3091903985      -10.7752957466       -9.7798646635  WZ2       1230            0.0000000000
      6822      2274  TIP3      H2             -6.7813803985      -11.1186857466       -9.6986746635  WZ2       1230            0.0000000000
      6823      2275  TIP3      OH2            -9.2032803985      -17.5507557466      -19.8235846635  WZ2       1231            0.0000000000
      6824      2275  TIP3      H1            -10.1418603985      -17.4391957466      -19.9747046635  WZ2       1231            0.0000000000
      6825      2275  TIP3      H2             -8.9060703985      -16.6940657466      -19.5170146635  WZ2       1231            0.0000000000
      6826      2276  TIP3      OH2           -11.5817503985      -10.1804157466       -6.7859346635  WZ2       1232            0.0000000000
      6827      2276  TIP3      H1            -11.9271403985      -10.5621757466       -5.9789746635  WZ2       1232            0.0000000000
      6828      2276  TIP3      H2            -11.7817403985       -9.2470557466       -6.7146446635  WZ2       1232            0.0000000000
      6829      2277  TIP3      OH2            -8.4849303985      -15.6834857466      -18.1628446635  WZ2       1233            0.0000000000
      6830      2277  TIP3      H1             -7.5930303985      -15.8209857466      -17.8437246635  WZ2       1233            0.0000000000
      6831      2277  TIP3      H2             -8.4285703985      -14.8928757466      -18.6994946635  WZ2       1233            0.0000000000
      6832      2278  TIP3      OH2           -17.9761303985      -11.0697457466      -12.2530546635  WZ2       1234            0.0000000000
      6833      2278  TIP3      H1            -17.2314103985      -11.0721757466      -12.8544046635  WZ2       1234            0.0000000000
      6834      2278  TIP3      H2            -17.8984703985      -11.8933657466      -11.7715446635  WZ2       1234            0.0000000000
      6835      2279  TIP3      OH2           -10.9755503985       -8.9063157466      -18.9973846635  WZ2       1235            0.0000000000
      6836      2279  TIP3      H1            -11.2707103985       -8.0795257466      -18.6159046635  WZ2       1235            0.0000000000
      6837      2279  TIP3      H2            -11.6785503985       -9.5256257466      -18.8012446635  WZ2       1235            0.0000000000
      6838      2280  TIP3      OH2           -20.9681603985      -12.6090557466       -6.9382046635  WZ2       1236            0.0000000000
      6839      2280  TIP3      H1            -20.7453003985      -13.0270957466       -6.1064546635  WZ2       1236            0.0000000000
      6840      2280  TIP3      H2            -21.5701503985      -13.2215557466       -7.3609246635  WZ2       1236            0.0000000000
      6841      2281  TIP3      OH2           -13.9516703985      -13.0920657466       -4.7252346635  WZ2       1237            0.0000000000
      6842      2281  TIP3      H1            -14.2475903985      -13.2577657466       -5.6203246635  WZ2       1237            0.0000000000
      6843      2281  TIP3      H2            -13.0201503985      -13.3120357466       -4.7358446635  WZ2       1237            0.0000000000
      6844      2282  TIP3      OH2            -9.3313903985       -7.7188657466       -6.8354346635  WZ2       1238            0.0000000000
      6845      2282  TIP3      H1            -10.2319603985       -7.5356057466       -7.1030446635  WZ2       1238            0.0000000000
      6846      2282  TIP3      H2             -9.2972803985       -7.4599357466       -5.9145546635  WZ2       1238            0.0000000000
      6847      2283  TIP3      OH2            -3.6000603985      -15.4740757466      -18.4681746635  WZ2       1239            0.0000000000
      6848      2283  TIP3      H1             -4.1544303985      -15.8702757466      -19.1404246635  WZ2       1239            0.0000000000
      6849      2283  TIP3      H2             -3.4997003985      -14.5635557466      -18.7458446635  WZ2       1239            0.0000000000
      6850      2284  TIP3      OH2            -3.6368603985       -9.6739057466       -5.6310246635  WZ2       1240            0.0000000000
      6851      2284  TIP3      H1             -4.4880103985       -9.4355257466       -5.9983846635  WZ2       1240            0.0000000000
      6852      2284  TIP3      H2             -3.0465203985       -9.6905857466       -6.3843146635  WZ2       1240            0.0000000000
      6853      2285  TIP3      OH2            -5.3048903985       -6.6880357466      -18.0029646635  WZ2       1241            0.0000000000
      6854      2285  TIP3      H1             -5.6777803985       -7.5136557466      -17.6939046635  WZ2       1241            0.0000000000
      6855      2285  TIP3      H2             -5.0275403985       -6.8710957466      -18.9006246635  WZ2       1241            0.0000000000
      6856      2286  TIP3      OH2            -8.1445003985      -11.8800857466      -10.9817746635  WZ2       1242            0.0000000000
      6857      2286  TIP3      H1             -9.0728103985      -12.1118957466      -11.0088446635  WZ2       1242            0.0000000000
      6858      2286  TIP3      H2             -7.6933903985      -12.6571057466      -11.3118946635  WZ2       1242            0.0000000000
      6859      2287  TIP3      OH2           -15.6011903985       -7.5519257466      -14.8489046635  WZ2       1243            0.0000000000
      6860      2287  TIP3      H1            -15.0739703985       -6.7784857466      -15.0490246635  WZ2       1243            0.0000000000
      6861      2287  TIP3      H2            -16.4813403985       -7.3270057466      -15.1505046635  WZ2       1243            0.0000000000
      6862      2288  TIP3      OH2           -19.8464203985      -12.6895157466      -20.2616646635  WZ2       1244            0.0000000000
      6863      2288  TIP3      H1            -19.2304303985      -12.0627957466      -19.8821846635  WZ2       1244            0.0000000000
      6864      2288  TIP3      H2            -20.7081603985      -12.3735357466      -19.9900146635  WZ2       1244            0.0000000000
      6865      2289  TIP3      OH2           -14.1739603985       -9.8889357466      -15.2724746635  WZ2       1245            0.0000000000
      6866      2289  TIP3      H1            -14.4149603985       -8.9634957466      -15.2309446635  WZ2       1245            0.0000000000
      6867      2289  TIP3      H2            -14.9146003985      -10.3478057466      -14.8760846635  WZ2       1245            0.0000000000
      6868      2290  TIP3      OH2           -13.6593003985       -5.7395757466       -8.9573646635  WZ2       1246            0.0000000000
      6869      2290  TIP3      H1            -13.2968303985       -4.8850157466       -9.1909246635  WZ2       1246            0.0000000000
      6870      2290  TIP3      H2            -13.1277803985       -6.0314157466       -8.2167346635  WZ2       1246            0.0000000000
      6871      2291  TIP3      OH2           -15.4908803985       -4.8671757466      -15.7272546635  WZ2       1247            0.0000000000
      6872      2291  TIP3      H1            -16.4408303985       -4.7614357466      -15.6759246635  WZ2       1247            0.0000000000
      6873      2291  TIP3      H2            -15.1390703985       -4.0464357466      -15.3825046635  WZ2       1247            0.0000000000
      6874      2292  TIP3      OH2           -10.1152203985       -9.6405057466       -9.2568046635  WZ2       1248            0.0000000000
      6875      2292  TIP3      H1            -10.5410903985       -9.8683357466       -8.4304046635  WZ2       1248            0.0000000000
      6876      2292  TIP3      H2             -9.5346403985      -10.3793257466       -9.4392746635  WZ2       1248            0.0000000000
      6877      2293  TIP3      OH2            -7.9123303985       -8.7114557466      -20.1829046635  WZ2       1249            0.0000000000
      6878      2293  TIP3      H1             -7.5590203985       -9.0914757466      -19.3785546635  WZ2       1249            0.0000000000
      6879      2293  TIP3      H2             -8.8609803985       -8.8049757466      -20.0959746635  WZ2       1249            0.0000000000
      6880      2294  TIP3      OH2            -7.4568003985       -5.0885557466       -6.7873246635  WZ2       1250            0.0000000000
      6881      2294  TIP3      H1             -8.0584803985       -5.6442657466       -7.2826946635  WZ2       1250            0.0000000000
      6882      2294  TIP3      H2             -7.1754303985       -4.4215757466       -7.4135846635  WZ2       1250            0.0000000000
      6883      2295  TIP3      OH2            -3.4088903985       -4.2322057466      -19.9818846635  WZ2       1251            0.0000000000
      6884      2295  TIP3      H1             -2.6651003985       -3.6461557466      -20.1217246635  WZ2       1251            0.0000000000
      6885      2295  TIP3      H2             -4.1030803985       -3.6636257466      -19.6486446635  WZ2       1251            0.0000000000
      6886      2296  TIP3      OH2           -19.3342103985      -17.8557857466       -7.3800646635  WZ2       1252            0.0000000000
      6887      2296  TIP3      H1            -20.2269803985      -17.5172457466       -7.4476646635  WZ2       1252            0.0000000000
      6888      2296  TIP3      H2            -19.4329303985      -18.7111757466       -6.9619846635  WZ2       1252            0.0000000000
      6889      2297  TIP3      OH2            -7.0464003985      -10.0392557466      -17.9561146635  WZ2       1253            0.0000000000
      6890      2297  TIP3      H1             -7.3236403985      -10.7673257466      -17.4000046635  WZ2       1253            0.0000000000
      6891      2297  TIP3      H2             -6.1191003985       -9.9200557466      -17.7508546635  WZ2       1253            0.0000000000
      6892      2298  TIP3      OH2           -19.6830103985       -6.0513457466       -8.9451246635  WZ2       1254            0.0000000000
      6893      2298  TIP3      H1            -19.4659803985       -6.9831057466       -8.9761546635  WZ2       1254            0.0000000000
      6894      2298  TIP3      H2            -19.4366603985       -5.7768457466       -8.0618446635  WZ2       1254            0.0000000000
      6895      2299  TIP3      OH2           -13.8215503985       -7.5998457466      -21.7359046635  WZ2       1255            0.0000000000
      6896      2299  TIP3      H1            -13.5825703985       -8.3480357466      -22.2830146635  WZ2       1255            0.0000000000
      6897      2299  TIP3      H2            -14.0904203985       -7.9876757466      -20.9031246635  WZ2       1255            0.0000000000
      6898      2300  TIP3      OH2           -14.8844903985       -8.0294657466      -19.2796446635  WZ2       1256            0.0000000000
      6899      2300  TIP3      H1            -14.7376903985       -8.5494857466      -18.4895546635  WZ2       1256            0.0000000000
      6900      2300  TIP3      H2            -14.8873203985       -7.1227057466      -18.9730546635  WZ2       1256            0.0000000000
      6901      2301  TIP3      OH2           -18.4313803985      -10.7771357466      -18.7691046635  WZ2       1257            0.0000000000
      6902      2301  TIP3      H1            -19.1174503985      -10.4248857466      -18.2021346635  WZ2       1257            0.0000000000
      6903      2301  TIP3      H2            -17.9085903985      -10.0141757466      -19.0156746635  WZ2       1257            0.0000000000
      6904      2302  TIP3      OH2           -10.5998703985      -18.1147557466       -8.4902046635  WZ2       1258            0.0000000000
      6905      2302  TIP3      H1             -9.9010803985      -18.0408857466       -7.8402346635  WZ2       1258            0.0000000000
      6906      2302  TIP3      H2            -10.9807303985      -18.9792557466       -8.3359146635  WZ2       1258            0.0000000000
      6907      2303  TIP3      OH2            -9.8153803985      -18.4625857466      -17.3929746635  WZ2       1259            0.0000000000
      6908      2303  TIP3      H1             -9.5955503985      -17.9910457466      -18.1964346635  WZ2       1259            0.0000000000
      6909      2303  TIP3      H2             -9.2569803985      -18.0683257466      -16.7229146635  WZ2       1259            0.0000000000
      6910      2304  TIP3      OH2           -12.1467703985       -6.3321057466      -18.5302246635  WZ2       1260            0.0000000000
      6911      2304  TIP3      H1            -12.9631603985       -5.8351357466      -18.4777946635  WZ2       1260            0.0000000000
      6912      2304  TIP3      H2            -11.6171403985       -5.8567557466      -19.1703446635  WZ2       1260            0.0000000000
      6913      2305  TIP3      OH2           -12.6153903985      -16.7347057466      -16.5581346635  WZ2       1261            0.0000000000
      6914      2305  TIP3      H1            -11.8031303985      -16.2303857466      -16.5119646635  WZ2       1261            0.0000000000
      6915      2305  TIP3      H2            -12.8600903985      -16.8797357466      -15.6441746635  WZ2       1261            0.0000000000
      6916      2306  TIP3      OH2           -12.0797503985      -15.7484357466       -7.3734746635  WZ2       1262            0.0000000000
      6917      2306  TIP3      H1            -11.9607203985      -15.1748957466       -6.6164346635  WZ2       1262            0.0000000000
      6918      2306  TIP3      H2            -11.4242903985      -16.4364957466       -7.2586946635  WZ2       1262            0.0000000000
      6919      2307  TIP3      OH2           -11.7317203985      -19.6534057466      -15.6200246635  WZ2       1263            0.0000000000
      6920      2307  TIP3      H1            -12.0783703985      -19.0363457466      -14.9755946635  WZ2       1263            0.0000000000
      6921      2307  TIP3      H2            -11.0730303985      -19.1528357466      -16.1014746635  WZ2       1263            0.0000000000
      6922      2308  TIP3      OH2           -14.8084603985       -5.2883857466      -18.5485346635  WZ2       1264            0.0000000000
      6923      2308  TIP3      H1            -14.6475903985       -4.4886357466      -19.0492746635  WZ2       1264            0.0000000000
      6924      2308  TIP3      H2            -15.0056803985       -4.9817857466      -17.6634746635  WZ2       1264            0.0000000000
      6925      2309  TIP3      OH2           -16.0740203985      -18.5904657466      -18.9327746635  WZ2       1265            0.0000000000
      6926      2309  TIP3      H1            -16.1575403985      -17.7021557466      -18.5861346635  WZ2       1265            0.0000000000
      6927      2309  TIP3      H2            -15.1839903985      -18.8557957466      -18.7010946635  WZ2       1265            0.0000000000
      6928      2310  TIP3      OH2            -5.8751703985      -17.8414057466       -6.5385046635  WZ2       1266            0.0000000000
      6929      2310  TIP3      H1             -6.7915903985      -17.5792357466       -6.6261346635  WZ2       1266            0.0000000000
      6930      2310  TIP3      H2             -5.5396703985      -17.8445057466       -7.4349746635  WZ2       1266            0.0000000000
      6931      2311  TIP3      OH2            -7.2730703985      -14.0913057466      -12.4427746635  WZ2       1267            0.0000000000
      6932      2311  TIP3      H1             -8.0706303985      -14.5062857466      -12.7712746635  WZ2       1267            0.0000000000
      6933      2311  TIP3      H2             -6.8279603985      -14.7819357466      -11.9517246635  WZ2       1267            0.0000000000
      6934      2312  TIP3      OH2           -17.8154903985       -8.1632457466      -19.8723246635  WZ2       1268            0.0000000000
      6935      2312  TIP3      H1            -17.2233403985       -7.4637657466      -19.5960846635  WZ2       1268            0.0000000000
      6936      2312  TIP3      H2            -17.3561903985       -8.5962957466      -20.5918646635  WZ2       1268            0.0000000000
      6937      2313  TIP3      OH2           -19.4995703985      -15.4989457466      -20.7563846635  WZ2       1269            0.0000000000
      6938      2313  TIP3      H1            -19.5443103985      -14.5596357466      -20.5776846635  WZ2       1269            0.0000000000
      6939      2313  TIP3      H2            -20.3872503985      -15.7344557466      -21.0261746635  WZ2       1269            0.0000000000
      6940      2314  TIP3      OH2            -6.1866103985       -4.8350557466      -10.8204246635  WZ2       1270            0.0000000000
      6941      2314  TIP3      H1             -6.3421803985       -4.1566157466      -11.4774946635  WZ2       1270            0.0000000000
      6942      2314  TIP3      H2             -5.2539703985       -4.7631257466      -10.6173646635  WZ2       1270            0.0000000000
      6943      2315  TIP3      OH2           -18.6913703985      -20.7172857466      -12.0832846635  WZ2       1271            0.0000000000
      6944      2315  TIP3      H1            -18.9203903985      -20.6580357466      -13.0107846635  WZ2       1271            0.0000000000
      6945      2315  TIP3      H2            -19.1340303985      -21.5087357466      -11.7768746635  WZ2       1271            0.0000000000
      6946      2316  TIP3      OH2           -19.7610403985       -6.7765757466      -15.9227046635  WZ2       1272            0.0000000000
      6947      2316  TIP3      H1            -20.5931803985       -6.3043057466      -15.8955646635  WZ2       1272            0.0000000000
      6948      2316  TIP3      H2            -19.2152103985       -6.2668157466      -16.5213946635  WZ2       1272            0.0000000000
      6949      2317  TIP3      OH2           -20.4726703985       -4.1642057466       -4.5929046635  WZ2       1273            0.0000000000
      6950      2317  TIP3      H1            -19.9324503985       -4.3808057466       -3.8329846635  WZ2       1273            0.0000000000
      6951      2317  TIP3      H2            -20.9538703985       -4.9696057466       -4.7826546635  WZ2       1273            0.0000000000
      6952      2318  TIP3      OH2           -15.8753303985       -5.2447657466       -2.9724846635  WZ2       1274            0.0000000000
      6953      2318  TIP3      H1            -15.1076103985       -5.7036857466       -2.6315646635  WZ2       1274            0.0000000000
      6954      2318  TIP3      H2            -15.8967103985       -5.4707857466       -3.9023646635  WZ2       1274            0.0000000000
      6955      2319  TIP3      OH2           -11.7833703985       -5.7367057466      -21.5973046635  WZ2       1275            0.0000000000
      6956      2319  TIP3      H1            -12.4272703985       -6.3678457466      -21.2759346635  WZ2       1275            0.0000000000
      6957      2319  TIP3      H2            -11.0215403985       -6.2679057466      -21.8289546635  WZ2       1275            0.0000000000
      6958      2320  TIP3      OH2            -9.2984603985       -6.8646557466       -4.2433346635  WZ2       1276            0.0000000000
      6959      2320  TIP3      H1             -9.6495103985       -7.7213557466       -4.0002946635  WZ2       1276            0.0000000000
      6960      2320  TIP3      H2             -8.5721403985       -6.7219857466       -3.6364346635  WZ2       1276            0.0000000000
      6961      2321  TIP3      OH2            -7.1790803985       -5.9197157466      -21.3635046635  WZ2       1277            0.0000000000
      6962      2321  TIP3      H1             -6.8960403985       -6.7141957466      -20.9108146635  WZ2       1277            0.0000000000
      6963      2321  TIP3      H2             -6.4392903985       -5.6866157466      -21.9243946635  WZ2       1277            0.0000000000
      6964      2322  TIP3      OH2           -20.5657203985      -10.3537957466       -3.6384746635  WZ2       1278            0.0000000000
      6965      2322  TIP3      H1            -20.4216703985      -11.2557257466       -3.9248046635  WZ2       1278            0.0000000000
      6966      2322  TIP3      H2            -21.3379803985      -10.0675857466       -4.1262446635  WZ2       1278            0.0000000000
      6967      2323  TIP3      OH2           -16.2243503985      -10.0102257466      -21.5060146635  WZ2       1279            0.0000000000
      6968      2323  TIP3      H1            -16.1599403985      -10.8042657466      -20.9753746635  WZ2       1279            0.0000000000
      6969      2323  TIP3      H2            -15.5714303985      -10.1289457466      -22.1958146635  WZ2       1279            0.0000000000
      6970      2324  TIP3      OH2           -13.9101103985      -10.3839857466       -4.2058346635  WZ2       1280            0.0000000000
      6971      2324  TIP3      H1            -14.2387303985      -10.1131757466       -5.0630946635  WZ2       1280            0.0000000000
      6972      2324  TIP3      H2            -13.7582903985      -11.3250057466       -4.2933346635  WZ2       1280            0.0000000000
      6973      2325  TIP3      OH2           -10.8720103985       -8.9630557466      -21.7702146635  WZ2       1281            0.0000000000
      6974      2325  TIP3      H1            -11.1406003985       -8.7828457466      -20.8693246635  WZ2       1281            0.0000000000
      6975      2325  TIP3      H2            -11.0784503985       -9.8884357466      -21.9016346635  WZ2       1281            0.0000000000
      6976      2326  TIP3      OH2            -8.1755903985      -10.4682557466       -6.8226046635  WZ2       1282            0.0000000000
      6977      2326  TIP3      H1             -7.4301103985       -9.8798857466       -6.9422046635  WZ2       1282            0.0000000000
      6978      2326  TIP3      H2             -8.9329103985       -9.8862857466       -6.7592946635  WZ2       1282            0.0000000000
      6979      2327  TIP3      OH2           -19.7330703985      -13.1534657466       -4.2185446635  WZ2       1283            0.0000000000
      6980      2327  TIP3      H1            -19.3249503985      -14.0108057466       -4.3394846635  WZ2       1283            0.0000000000
      6981      2327  TIP3      H2            -19.9933103985      -13.1393357466       -3.2975146635  WZ2       1283            0.0000000000
      6982      2328  TIP3      OH2           -15.0749703985      -12.0376057466      -19.2002146635  WZ2       1284            0.0000000000
      6983      2328  TIP3      H1            -15.5347703985      -12.5217757466      -18.5143646635  WZ2       1284            0.0000000000
      6984      2328  TIP3      H2            -14.8201003985      -12.7060657466      -19.8361646635  WZ2       1284            0.0000000000
      6985      2329  TIP3      OH2           -15.7860403985      -14.1448957466       -6.8442546635  WZ2       1285            0.0000000000
      6986      2329  TIP3      H1            -16.4044303985      -13.4702357466       -6.5637846635  WZ2       1285            0.0000000000
      6987      2329  TIP3      H2            -15.4419203985      -13.8235057466       -7.6776346635  WZ2       1285            0.0000000000
      6988      2330  TIP3      OH2           -14.0039303985      -13.7944257466      -20.9378946635  WZ2       1286            0.0000000000
      6989      2330  TIP3      H1            -14.1844303985      -13.9493057466      -21.8650646635  WZ2       1286            0.0000000000
      6990      2330  TIP3      H2            -13.0538803985      -13.6865557466      -20.8931046635  WZ2       1286            0.0000000000
      6991      2331  TIP3      OH2           -10.7662203985      -11.6733657466       -3.5667746635  WZ2       1287            0.0000000000
      6992      2331  TIP3      H1             -9.8131003985      -11.5894557466       -3.5941746635  WZ2       1287            0.0000000000
      6993      2331  TIP3      H2            -10.9267603985      -12.3851857466       -2.9472846635  WZ2       1287            0.0000000000
      6994      2332  TIP3      OH2            -4.6141003985      -11.4400057466      -21.4920846635  WZ2       1288            0.0000000000
      6995      2332  TIP3      H1             -4.8876203985      -11.8644557466      -22.3052546635  WZ2       1288            0.0000000000
      6996      2332  TIP3      H2             -4.5746903985      -10.5085557466      -21.7090446635  WZ2       1288            0.0000000000
      6997      2333  TIP3      OH2           -15.4466703985      -16.7898157466       -5.7619446635  WZ2       1289            0.0000000000
      6998      2333  TIP3      H1            -15.2965803985      -17.5186857466       -6.3639746635  WZ2       1289            0.0000000000
      6999      2333  TIP3      H2            -15.4444303985      -16.0126457466       -6.3207246635  WZ2       1289            0.0000000000
      7000      2334  TIP3      OH2           -15.0341003985      -18.4202357466       -8.2692046635  WZ2       1290            0.0000000000
      7001      2334  TIP3      H1            -14.4983503985      -17.9685657466       -8.9212746635  WZ2       1290            0.0000000000
      7002      2334  TIP3      H2            -15.8861403985      -18.5282557466       -8.6917946635  WZ2       1290            0.0000000000
      7003      2335  TIP3      OH2           -13.4522603985      -12.9806157466       -8.0296846635  WZ2       1291            0.0000000000
      7004      2335  TIP3      H1            -12.7017803985      -13.1368657466       -8.6029046635  WZ2       1291            0.0000000000
      7005      2335  TIP3      H2            -13.7914303985      -12.1289557466       -8.3051346635  WZ2       1291            0.0000000000
      7006      2336  TIP3      OH2            -9.0366403985      -15.1654357466       -3.0011546635  WZ2       1292            0.0000000000
      7007      2336  TIP3      H1             -8.8445103985      -16.0964957466       -3.1127046635  WZ2       1292            0.0000000000
      7008      2336  TIP3      H2             -8.1790103985      -14.7404857466       -3.0116146635  WZ2       1292            0.0000000000
      7009      2337  TIP3      OH2            -7.7199203985      -12.3769157466       -4.9238846635  WZ2       1293            0.0000000000
      7010      2337  TIP3      H1             -8.0014203985      -11.6674557466       -5.5015046635  WZ2       1293            0.0000000000
      7011      2337  TIP3      H2             -6.7774903985      -12.4496157466       -5.0747646635  WZ2       1293            0.0000000000
      7012      2338  TIP3      OH2           -16.9680403985      -15.5914657466       -3.8503846635  WZ2       1294            0.0000000000
      7013      2338  TIP3      H1            -17.7351403985      -16.1239857466       -4.0606246635  WZ2       1294            0.0000000000
      7014      2338  TIP3      H2            -16.2891403985      -15.9014257466       -4.4497546635  WZ2       1294            0.0000000000
      7015      2339  TIP3      OH2           -14.2285503985      -20.9636657466       -7.8378446635  WZ2       1295            0.0000000000
      7016      2339  TIP3      H1            -14.3265903985      -20.0173457466       -7.9432246635  WZ2       1295            0.0000000000
      7017      2339  TIP3      H2            -14.9709303985      -21.3362857466       -8.3134946635  WZ2       1295            0.0000000000
      7018      2340  TIP3      OH2           -12.9645003985      -16.6421257466       -4.2740046635  WZ2       1296            0.0000000000
      7019      2340  TIP3      H1            -13.1999603985      -16.8614557466       -3.3725146635  WZ2       1296            0.0000000000
      7020      2340  TIP3      H2            -13.7478103985      -16.8490057466       -4.7837546635  WZ2       1296            0.0000000000
      7021      2341  TIP3      OH2           -10.2488403985      -17.5147757466       -5.1986546635  WZ2       1297            0.0000000000
      7022      2341  TIP3      H1            -11.1963003985      -17.4828057466       -5.0663246635  WZ2       1297            0.0000000000
      7023      2341  TIP3      H2             -9.9361703985      -18.1400657466       -4.5448346635  WZ2       1297            0.0000000000
      7024      2342  TIP3      OH2            -8.6146903985      -18.8806657466       -3.1934646635  WZ2       1298            0.0000000000
      7025      2342  TIP3      H1             -8.7115103985      -19.8329357466       -3.1992746635  WZ2       1298            0.0000000000
      7026      2342  TIP3      H2             -8.9363803985      -18.6119857466       -2.3329146635  WZ2       1298            0.0000000000
      7027      2343  TIP3      OH2           -18.7877603985      -17.6710857466       -4.1459146635  WZ2       1299            0.0000000000
      7028      2343  TIP3      H1            -18.5760203985      -18.3774757466       -4.7561646635  WZ2       1299            0.0000000000
      7029      2343  TIP3      H2            -18.8990103985      -18.1084857466       -3.3017946635  WZ2       1299            0.0000000000
      7030      2344  TIP3      OH2           -14.0067403985      -21.6699257466       -5.1665646635  WZ2       1300            0.0000000000
      7031      2344  TIP3      H1            -13.2949003985      -22.3097057466       -5.1806546635  WZ2       1300            0.0000000000
      7032      2344  TIP3      H2            -14.1077003985      -21.4030957466       -6.0802546635  WZ2       1300            0.0000000000
      7033      2345  TIP3      OH2           -13.6529903985      -19.9870857466       -3.1129346635  WZ2       1301            0.0000000000
      7034      2345  TIP3      H1            -13.7847703985      -20.4627057466       -3.9330846635  WZ2       1301            0.0000000000
      7035      2345  TIP3      H2            -14.2522503985      -19.2427257466       -3.1682246635  WZ2       1301            0.0000000000
      7036      2346  TIP3      OH2           -14.1067603985       -3.1040557466      -19.9365346635  WZ2       1302            0.0000000000
      7037      2346  TIP3      H1            -13.1736903985       -2.9461857466      -19.7926946635  WZ2       1302            0.0000000000
      7038      2346  TIP3      H2            -14.3708803985       -2.4287557466      -20.5613846635  WZ2       1302            0.0000000000
      7039      2347  TIP3      OH2           -20.5382703985       -8.4676757466      -20.4537246635  WZ2       1303            0.0000000000
      7040      2347  TIP3      H1            -19.6243503985       -8.3887857466      -20.1803346635  WZ2       1303            0.0000000000
      7041      2347  TIP3      H2            -20.5309603985       -9.1547157466      -21.1201646635  WZ2       1303            0.0000000000
      7042      2348  TIP3      OH2           -21.8892103985       -3.0748257466      -15.3763346635  WZ2       1304            0.0000000000
      7043      2348  TIP3      H1            -22.5365003985       -3.5366557466      -15.9092146635  WZ2       1304            0.0000000000
      7044      2348  TIP3      H2            -21.5347503985       -3.7464957466      -14.7937146635  WZ2       1304            0.0000000000
      7045      2349  TIP3      OH2           -21.0192903985       -4.9941257466      -13.5717146635  WZ2       1305            0.0000000000
      7046      2349  TIP3      H1            -21.3536103985       -5.8743957466      -13.3996946635  WZ2       1305            0.0000000000
      7047      2349  TIP3      H2            -20.7970503985       -4.6486257466      -12.7071546635  WZ2       1305            0.0000000000
      7048      2350  TIP3      OH2            -3.4708103985       -4.1844857466      -10.5912346635  WZ2       1306            0.0000000000
      7049      2350  TIP3      H1             -3.4921403985       -3.9996457466       -9.6522946635  WZ2       1306            0.0000000000
      7050      2350  TIP3      H2             -2.7801903985       -3.6160857466      -10.9320946635  WZ2       1306            0.0000000000
      7051      2351  TIP3      OH2            -3.9075203985       -4.6173757466       -7.6693246635  WZ2       1307            0.0000000000
      7052      2351  TIP3      H1             -4.3946503985       -5.3529657466       -8.0405846635  WZ2       1307            0.0000000000
      7053      2351  TIP3      H2             -3.3582503985       -5.0109857466       -6.9913846635  WZ2       1307            0.0000000000
      7054      2352  TIP3      OH2            -5.4567903985       -8.8275657466       -3.0312946635  WZ2       1308            0.0000000000
      7055      2352  TIP3      H1             -6.3226803985       -8.9325957466       -2.6370646635  WZ2       1308            0.0000000000
      7056      2352  TIP3      H2             -5.0802003985       -8.0692357466       -2.5848246635  WZ2       1308            0.0000000000
      7057      2353  TIP3      OH2            -4.1558203985      -10.5711957466      -17.5170446635  WZ2       1309            0.0000000000
      7058      2353  TIP3      H1             -3.3056803985      -10.1501057466      -17.3898846635  WZ2       1309            0.0000000000
      7059      2353  TIP3      H2             -4.1503103985      -11.3111857466      -16.9099046635  WZ2       1309            0.0000000000
      7060      2354  TIP3      OH2            -3.7612603985      -12.5174557466      -15.6934746635  WZ2       1310            0.0000000000
      7061      2354  TIP3      H1             -4.4878003985      -12.9971957466      -15.2957146635  WZ2       1310            0.0000000000
      7062      2354  TIP3      H2             -3.1799303985      -12.3119857466      -14.9613146635  WZ2       1310            0.0000000000
      7063      2355  TIP3      OH2            -4.0021403985       -9.7327057466      -10.7457146635  WZ2       1311            0.0000000000
      7064      2355  TIP3      H1             -3.1687203985      -10.1107057466      -11.0263546635  WZ2       1311            0.0000000000
      7065      2355  TIP3      H2             -3.8901103985       -8.7895857466      -10.8648046635  WZ2       1311            0.0000000000
      7066      2356  TIP3      OH2            -5.5159103985       -6.8549557466       -8.4388746635  WZ2       1312            0.0000000000
      7067      2356  TIP3      H1             -6.1633803985       -6.5298057466       -7.8133546635  WZ2       1312            0.0000000000
      7068      2356  TIP3      H2             -6.0335103985       -7.2951857466       -9.1130446635  WZ2       1312            0.0000000000
      7069      2357  TIP3      OH2            -3.4929503985      -12.6166057466      -19.3023446635  WZ2       1313            0.0000000000
      7070      2357  TIP3      H1             -4.0148403985      -12.2601957466      -20.0212546635  WZ2       1313            0.0000000000
      7071      2357  TIP3      H2             -3.5260303985      -11.9418257466      -18.6242546635  WZ2       1313            0.0000000000
      7072      2358  TIP3      OH2            -5.1440503985      -15.3770457466      -20.7516346635  WZ2       1314            0.0000000000
      7073      2358  TIP3      H1             -5.0476103985      -14.7103457466      -21.4316646635  WZ2       1314            0.0000000000
      7074      2358  TIP3      H2             -5.2840903985      -16.1924157466      -21.2330846635  WZ2       1314            0.0000000000
      7075      2359  TIP3      OH2            -5.9745803985      -13.9968057466      -15.1306046635  WZ2       1315            0.0000000000
      7076      2359  TIP3      H1             -6.1247003985      -14.9419457466      -15.1508246635  WZ2       1315            0.0000000000
      7077      2359  TIP3      H2             -6.3281303985      -13.7156657466      -14.2866946635  WZ2       1315            0.0000000000
      7078      2360  TIP3      OH2           -20.9393403985      -11.9185857466      -11.1202246635  WZ2       1316            0.0000000000
      7079      2360  TIP3      H1            -20.7550503985      -12.0004157466      -12.0559346635  WZ2       1316            0.0000000000
      7080      2360  TIP3      H2            -20.0900503985      -12.0428857466      -10.6965846635  WZ2       1316            0.0000000000
      7081      2361  TIP3      OH2            -5.1182903985      -12.0264757466       -5.4917746635  WZ2       1317            0.0000000000
      7082      2361  TIP3      H1             -4.5355603985      -12.7612457466       -5.3000546635  WZ2       1317            0.0000000000
      7083      2361  TIP3      H2             -4.5543603985      -11.2544457466       -5.4451946635  WZ2       1317            0.0000000000
      7084      2362  TIP3      OH2            -3.6215803985      -14.1238957466       -4.8072346635  WZ2       1318            0.0000000000
      7085      2362  TIP3      H1             -4.4849103985      -14.5026857466       -4.9727646635  WZ2       1318            0.0000000000
      7086      2362  TIP3      H2             -3.0172103985      -14.8624157466       -4.8816546635  WZ2       1318            0.0000000000
      7087      2363  TIP3      OH2            -5.8966703985      -17.9690657466      -21.6340846635  WZ2       1319            0.0000000000
      7088      2363  TIP3      H1             -5.2860903985      -18.3403857466      -20.9972646635  WZ2       1319            0.0000000000
      7089      2363  TIP3      H2             -6.7335203985      -18.3903757466      -21.4380846635  WZ2       1319            0.0000000000
      7090      2364  TIP3      OH2            -6.2641003985      -16.4142257466      -16.6680946635  WZ2       1320            0.0000000000
      7091      2364  TIP3      H1             -5.9843903985      -17.3211857466      -16.5439246635  WZ2       1320            0.0000000000
      7092      2364  TIP3      H2             -5.5049303985      -15.9800757466      -17.0571746635  WZ2       1320            0.0000000000
      7093      2365  TIP3      OH2            -5.6522703985      -15.8324857466      -11.2322046635  WZ2       1321            0.0000000000
      7094      2365  TIP3      H1             -4.7194703985      -15.6204957466      -11.2666046635  WZ2       1321            0.0000000000
      7095      2365  TIP3      H2             -5.8875203985      -15.7312757466      -10.3099046635  WZ2       1321            0.0000000000
      7096      2366  TIP3      OH2            -5.6230803985      -15.0959557466       -8.4562646635  WZ2       1322            0.0000000000
      7097      2366  TIP3      H1             -6.4659503985      -14.8279157466       -8.0902846635  WZ2       1322            0.0000000000
      7098      2366  TIP3      H2             -5.1806503985      -14.2737657466       -8.6671546635  WZ2       1322            0.0000000000
      7099      2367  TIP3      OH2           -21.3418603985      -16.6480857466       -4.9793446635  WZ2       1323            0.0000000000
      7100      2367  TIP3      H1            -20.4223703985      -16.7702557466       -4.7430346635  WZ2       1323            0.0000000000
      7101      2367  TIP3      H2            -21.7914103985      -17.3981157466       -4.5899946635  WZ2       1323            0.0000000000
      7102      2368  TIP3      OH2            -3.3399203985      -21.1159357466       -3.1027646635  WZ2       1324            0.0000000000
      7103      2368  TIP3      H1             -2.9902203985      -21.7695857466       -3.7082946635  WZ2       1324            0.0000000000
      7104      2368  TIP3      H2             -3.1929703985      -20.2785257466       -3.5425046635  WZ2       1324            0.0000000000
      7105      2369  TIP3      OH2            -5.6506203985      -19.1512957466      -16.6198946635  WZ2       1325            0.0000000000
      7106      2369  TIP3      H1             -5.4681203985      -19.6001457466      -15.7943946635  WZ2       1325            0.0000000000
      7107      2369  TIP3      H2             -6.2503303985      -19.7358557466      -17.0834346635  WZ2       1325            0.0000000000
      7108      2370  TIP3      OH2           -20.1206103985      -18.3359257466      -12.0880546635  WZ2       1326            0.0000000000
      7109      2370  TIP3      H1            -19.6754503985      -19.1276757466      -11.7860846635  WZ2       1326            0.0000000000
      7110      2370  TIP3      H2            -19.6543103985      -17.6194057466      -11.6574946635  WZ2       1326            0.0000000000
      7111      2371  TIP3      OH2           -21.8165803985      -15.3366257466      -11.0190346635  WZ2       1327            0.0000000000
      7112      2371  TIP3      H1            -21.3246003985      -15.5575757466      -11.8098346635  WZ2       1327            0.0000000000
      7113      2371  TIP3      H2            -21.4544903985      -14.4962857466      -10.7380846635  WZ2       1327            0.0000000000
      7114      2372  TIP3      OH2            -3.8202003985      -19.0064757466       -4.7536346635  WZ2       1328            0.0000000000
      7115      2372  TIP3      H1             -4.7376303985      -18.7357657466       -4.7892846635  WZ2       1328            0.0000000000
      7116      2372  TIP3      H2             -3.6972603985      -19.5416357466       -5.5376646635  WZ2       1328            0.0000000000
      7117      2373  TIP3      OH2            -3.7840003985      -19.0834857466      -20.0918646635  WZ2       1329            0.0000000000
      7118      2373  TIP3      H1             -3.3717403985      -19.8049157466      -20.5670646635  WZ2       1329            0.0000000000
      7119      2373  TIP3      H2             -3.1023503985      -18.4140257466      -20.0334346635  WZ2       1329            0.0000000000
      7120      2374  TIP3      OH2           -21.5029303985      -19.0787157466      -16.9647946635  WZ2       1330            0.0000000000
      7121      2374  TIP3      H1            -22.4280903985      -18.8700557466      -17.0942446635  WZ2       1330            0.0000000000
      7122      2374  TIP3      H2            -21.0489403985      -18.5946357466      -17.6545646635  WZ2       1330            0.0000000000
      7123      2375  TIP3      OH2            -6.7322103985       -4.0945457466      -15.0190546635  WZ2       1331            0.0000000000
      7124      2375  TIP3      H1             -6.0799203985       -4.4423357466      -15.6271446635  WZ2       1331            0.0000000000
      7125      2375  TIP3      H2             -6.2218303985       -3.6062257466      -14.3730846635  WZ2       1331            0.0000000000
      7126      2376  TIP3      OH2           -21.5393903985      -20.3408157466       -8.6205446635  WZ2       1332            0.0000000000
      7127      2376  TIP3      H1            -22.2043403985      -20.5867857466       -7.9774546635  WZ2       1332            0.0000000000
      7128      2376  TIP3      H2            -21.9822603985      -19.7187757466       -9.1977446635  WZ2       1332            0.0000000000
      7129      2377  TIP3      OH2           -19.3474603985       -7.1654057466       -4.4759646635  WZ2       1333            0.0000000000
      7130      2377  TIP3      H1            -20.1682103985       -6.9907557466       -4.9364946635  WZ2       1333            0.0000000000
      7131      2377  TIP3      H2            -19.5996803985       -7.2389357466       -3.5555246635  WZ2       1333            0.0000000000
      7132      2378  TIP3      OH2           -16.3931703985       -6.1912857466       -8.2175646635  WZ2       1334            0.0000000000
      7133      2378  TIP3      H1            -16.8180603985       -5.3814357466       -8.5001046635  WZ2       1334            0.0000000000
      7134      2378  TIP3      H2            -15.4888903985       -6.1058757466       -8.5195846635  WZ2       1334            0.0000000000
      7135      2379  TIP3      OH2           -12.0820303985       -4.7922857466       -5.2581946635  WZ2       1335            0.0000000000
      7136      2379  TIP3      H1            -11.8972803985       -5.1256757466       -4.3801646635  WZ2       1335            0.0000000000
      7137      2379  TIP3      H2            -11.2355803985       -4.4824257466       -5.5802746635  WZ2       1335            0.0000000000
      7138      2380  TIP3      OH2            -9.7369903985       -3.5063957466       -6.0140546635  WZ2       1336            0.0000000000
      7139      2380  TIP3      H1             -9.0601003985       -4.1391657466       -6.2541346635  WZ2       1336            0.0000000000
      7140      2380  TIP3      H2             -9.4151103985       -3.1053457466       -5.2067246635  WZ2       1336            0.0000000000
      7141      2381  TIP3      OH2            -4.8196103985      -20.9168457466       -6.9345546635  WZ2       1337            0.0000000000
      7142      2381  TIP3      H1             -5.6322603985      -20.5918157466       -7.3220846635  WZ2       1337            0.0000000000
      7143      2381  TIP3      H2             -4.5867603985      -21.6769957466       -7.4676446635  WZ2       1337            0.0000000000
      7144      2382  TIP3      OH2           -18.9915003985       -2.9348957466       -8.1700346635  WZ2       1338            0.0000000000
      7145      2382  TIP3      H1            -19.7118603985       -2.4947957466       -8.6212646635  WZ2       1338            0.0000000000
      7146      2382  TIP3      H2            -19.3571003985       -3.1854257466       -7.3216346635  WZ2       1338            0.0000000000
      7147      2383  TIP3      OH2           -16.5242403985       -3.3345057466       -9.1403146635  WZ2       1339            0.0000000000
      7148      2383  TIP3      H1            -17.3890203985       -3.2626557466       -8.7363046635  WZ2       1339            0.0000000000
      7149      2383  TIP3      H2            -16.5793403985       -2.7877757466       -9.9240646635  WZ2       1339            0.0000000000
      7150      2384  TIP3      OH2           -11.8136803985       -3.4466157466       -9.9647146635  WZ2       1340            0.0000000000
      7151      2384  TIP3      H1            -12.2702803985       -2.9176457466      -10.6188746635  WZ2       1340            0.0000000000
      7152      2384  TIP3      H2            -11.6508803985       -2.8434757466       -9.2394846635  WZ2       1340            0.0000000000
      7153      2385  TIP3      OH2            -9.4860503985       -4.5686557466       -9.0196846635  WZ2       1341            0.0000000000
      7154      2385  TIP3      H1            -10.3906803985       -4.4036357466       -9.2854746635  WZ2       1341            0.0000000000
      7155      2385  TIP3      H2             -9.0571903985       -3.7154357466       -9.0853446635  WZ2       1341            0.0000000000
      7156      2386  TIP3      OH2            -6.8818603985       -2.9987457466       -8.7249046635  WZ2       1342            0.0000000000
      7157      2386  TIP3      H1             -7.0636603985       -2.0828557466       -8.9354146635  WZ2       1342            0.0000000000
      7158      2386  TIP3      H2             -6.7050803985       -3.4090357466       -9.5714446635  WZ2       1342            0.0000000000
      7159      2387  TIP3      OH2           -19.5766903985       -4.3116457466      -11.2598546635  WZ2       1343            0.0000000000
      7160      2387  TIP3      H1            -19.5950903985       -4.7371357466      -10.4026246635  WZ2       1343            0.0000000000
      7161      2387  TIP3      H2            -18.7719003985       -4.6301457466      -11.6686346635  WZ2       1343            0.0000000000
      7162      2388  TIP3      OH2           -17.4353803985       -5.6017757466      -12.6048646635  WZ2       1344            0.0000000000
      7163      2388  TIP3      H1            -17.6543103985       -6.5180357466      -12.4352646635  WZ2       1344            0.0000000000
      7164      2388  TIP3      H2            -16.6111603985       -5.4617357466      -12.1387246635  WZ2       1344            0.0000000000
      7165      2389  TIP3      OH2           -14.8981303985       -5.1318457466      -11.7560646635  WZ2       1345            0.0000000000
      7166      2389  TIP3      H1            -14.6855603985       -6.0199457466      -12.0429746635  WZ2       1345            0.0000000000
      7167      2389  TIP3      H2            -14.8336203985       -5.1660757466      -10.8016646635  WZ2       1345            0.0000000000
      7168      2390  TIP3      OH2           -11.3897603985      -19.4677857466      -12.6117346635  WZ2       1346            0.0000000000
      7169      2390  TIP3      H1            -12.0640803985      -20.0972257466      -12.3561546635  WZ2       1346            0.0000000000
      7170      2390  TIP3      H2            -10.8258403985      -19.9518957466      -13.2149446635  WZ2       1346            0.0000000000
      7171      2391  TIP3      OH2            -6.2470403985      -21.3603857466      -12.4990246635  WZ2       1347            0.0000000000
      7172      2391  TIP3      H1             -5.6432803985      -20.8128457466      -13.0009246635  WZ2       1347            0.0000000000
      7173      2391  TIP3      H2             -7.1168403985      -21.0413457466      -12.7396146635  WZ2       1347            0.0000000000
      7174      2392  TIP3      OH2            -4.5200003985      -20.2215157466      -14.1659346635  WZ2       1348            0.0000000000
      7175      2392  TIP3      H1             -3.9082503985      -20.7359457466      -14.6925746635  WZ2       1348            0.0000000000
      7176      2392  TIP3      H2             -4.1376603985      -19.3443057466      -14.1424946635  WZ2       1348            0.0000000000
      7177      2393  TIP3      OH2           -19.0630103985      -20.8337557466      -14.7897446635  WZ2       1349            0.0000000000
      7178      2393  TIP3      H1            -19.8400303985      -21.0682657466      -15.2971546635  WZ2       1349            0.0000000000
      7179      2393  TIP3      H2            -18.5326503985      -21.6305457466      -14.7809446635  WZ2       1349            0.0000000000
      7180      2394  TIP3      OH2           -20.2266703985      -21.0359457466      -18.9861346635  WZ2       1350            0.0000000000
      7181      2394  TIP3      H1            -19.7876003985      -20.4248957466      -19.5777846635  WZ2       1350            0.0000000000
      7182      2394  TIP3      H2            -20.8604303985      -20.4975357466      -18.5121346635  WZ2       1350            0.0000000000
      7183      2395  TIP3      OH2           -14.4837503985      -20.9070457466      -14.9764346635  WZ2       1351            0.0000000000
      7184      2395  TIP3      H1            -13.6094103985      -20.5186157466      -15.0060046635  WZ2       1351            0.0000000000
      7185      2395  TIP3      H2            -14.6196703985      -21.1222657466      -14.0537146635  WZ2       1351            0.0000000000
      7186      2396  TIP3      OH2            -8.9269103985      -20.8770657466      -13.3272646635  WZ2       1352            0.0000000000
      7187      2396  TIP3      H1             -8.8507503985      -20.7819057466      -14.2766646635  WZ2       1352            0.0000000000
      7188      2396  TIP3      H2             -9.2019903985      -21.7847757466      -13.1983546635  WZ2       1352            0.0000000000
      7189      2397  TIP3      OH2            -7.5736503985      -20.8512857466      -17.6347646635  WZ2       1353            0.0000000000
      7190      2397  TIP3      H1             -8.2765403985      -20.2363657466      -17.8446246635  WZ2       1353            0.0000000000
      7191      2397  TIP3      H2             -8.0185103985      -21.6886157466      -17.5036746635  WZ2       1353            0.0000000000
      7192      2398  TIP3      OH2           -20.3257203985       -5.0877257466      -18.0886246635  WZ2       1354            0.0000000000
      7193      2398  TIP3      H1            -21.0107303985       -5.1258357466      -18.7561146635  WZ2       1354            0.0000000000
      7194      2398  TIP3      H2            -20.3220003985       -4.1749657466      -17.8004146635  WZ2       1354            0.0000000000
      7195      2399  TIP3      OH2           -18.3657603985      -19.1197957466      -20.5437246635  WZ2       1355            0.0000000000
      7196      2399  TIP3      H1            -17.8744203985      -19.7495557466      -21.0711746635  WZ2       1355            0.0000000000
      7197      2399  TIP3      H2            -17.7421303985      -18.8238557466      -19.8806046635  WZ2       1355            0.0000000000
      7198      2400  TIP3      OH2           -13.3397503985      -18.8266457466      -18.0866746635  WZ2       1356            0.0000000000
      7199      2400  TIP3      H1            -13.1616203985      -19.4733257466      -17.4038146635  WZ2       1356            0.0000000000
      7200      2400  TIP3      H2            -13.3931303985      -17.9928757466      -17.6195646635  WZ2       1356            0.0000000000
      7201      2401  TIP3      OH2           -11.4613703985       -3.8782357466      -19.6910046635  WZ2       1357            0.0000000000
      7202      2401  TIP3      H1            -10.5953503985       -3.5114957466      -19.8691846635  WZ2       1357            0.0000000000
      7203      2401  TIP3      H2            -11.7080903985       -4.3174357466      -20.5049246635  WZ2       1357            0.0000000000
      7204      2402  TIP3      OH2            -4.7524103985       -4.3152057466      -17.0118946635  WZ2       1358            0.0000000000
      7205      2402  TIP3      H1             -4.9467003985       -5.0629957466      -17.5769346635  WZ2       1358            0.0000000000
      7206      2402  TIP3      H2             -4.7914003985       -3.5571957466      -17.5951046635  WZ2       1358            0.0000000000
      7207      2403  TIP3      OH2           -19.1052103985      -20.3195657466       -5.2721246635  WZ2       1359            0.0000000000
      7208      2403  TIP3      H1            -19.4713903985      -21.0853057466       -4.8296546635  WZ2       1359            0.0000000000
      7209      2403  TIP3      H2            -18.1923603985      -20.2905457466       -4.9856146635  WZ2       1359            0.0000000000
      7210      2404  TIP3      OH2           -17.1321303985      -20.9691257466       -3.7364146635  WZ2       1360            0.0000000000
      7211      2404  TIP3      H1            -16.2337703985      -21.2431057466       -3.9210746635  WZ2       1360            0.0000000000
      7212      2404  TIP3      H2            -17.5188203985      -21.7115257466       -3.2721546635  WZ2       1360            0.0000000000
      7213      2405  TIP3      OH2           -18.5076003985       -4.1676457466      -21.0634146635  WZ2       1361            0.0000000000
      7214      2405  TIP3      H1            -18.7751403985       -3.8813557466      -20.1901046635  WZ2       1361            0.0000000000
      7215      2405  TIP3      H2            -17.7363403985       -4.7137257466      -20.9111646635  WZ2       1361            0.0000000000
      7216      2406  TIP3      OH2            -8.7109003985      -21.6365957466       -3.5541346635  WZ2       1362            0.0000000000
      7217      2406  TIP3      H1             -8.6341803985      -22.0625257466       -2.7003646635  WZ2       1362            0.0000000000
      7218      2406  TIP3      H2             -7.8172403985      -21.6231257466       -3.8967846635  WZ2       1362            0.0000000000
      7219      2407  TIP3      OH2            -5.5347903985       -5.5639657466       -4.8617146635  WZ2       1363            0.0000000000
      7220      2407  TIP3      H1             -6.3166003985       -5.7501657466       -5.3816546635  WZ2       1363            0.0000000000
      7221      2407  TIP3      H2             -5.6068003985       -4.6345357466       -4.6444646635  WZ2       1363            0.0000000000
      7222      2408  TIP3      OH2             8.8712496015      -11.6775257466      -14.8309946635  WZ2       1364            0.0000000000
      7223      2408  TIP3      H1              8.9603596015      -10.7337057466      -14.9632846635  WZ2       1364            0.0000000000
      7224      2408  TIP3      H2              8.2330096015      -11.9528857466      -15.4890546635  WZ2       1364            0.0000000000
      7225      2409  TIP3      OH2             7.8043796015      -12.4224557466      -11.4121746635  WZ2       1365            0.0000000000
      7226      2409  TIP3      H1              7.7661296015      -13.0688257466      -10.7072146635  WZ2       1365            0.0000000000
      7227      2409  TIP3      H2              7.4820296015      -12.8890157466      -12.1833046635  WZ2       1365            0.0000000000
      7228      2410  TIP3      OH2             0.1728796015      -12.8082457466       -9.8191846635  WZ2       1366            0.0000000000
      7229      2410  TIP3      H1              0.2140896015      -13.4339157466       -9.0959446635  WZ2       1366            0.0000000000
      7230      2410  TIP3      H2              0.8756496015      -12.1843857466       -9.6371446635  WZ2       1366            0.0000000000
      7231      2411  TIP3      OH2            11.5103996015       -9.4834157466      -13.1106646635  WZ2       1367            0.0000000000
      7232      2411  TIP3      H1             11.0696696015      -10.2038157466      -12.6601046635  WZ2       1367            0.0000000000
      7233      2411  TIP3      H2             11.4973696015       -8.7626957466      -12.4808946635  WZ2       1367            0.0000000000
      7234      2412  TIP3      OH2             1.0961896015       -8.3583557466      -11.2842746635  WZ2       1368            0.0000000000
      7235      2412  TIP3      H1              0.7267096015       -9.1603057466      -11.6538446635  WZ2       1368            0.0000000000
      7236      2412  TIP3      H2              2.0372996015       -8.5268657466      -11.2379346635  WZ2       1368            0.0000000000
      7237      2413  TIP3      OH2            -2.2937603985      -14.6980957466      -15.8913946635  WZ2       1369            0.0000000000
      7238      2413  TIP3      H1             -2.7414203985      -13.8522257466      -15.9097446635  WZ2       1369            0.0000000000
      7239      2413  TIP3      H2             -2.8546403985      -15.2776757466      -16.4068846635  WZ2       1369            0.0000000000
      7240      2414  TIP3      OH2            -1.5831503985      -12.5361357466      -13.7655946635  WZ2       1370            0.0000000000
      7241      2414  TIP3      H1             -1.3698003985      -13.3059757466      -13.2382946635  WZ2       1370            0.0000000000
      7242      2414  TIP3      H2             -0.8453903985      -12.4464657466      -14.3688346635  WZ2       1370            0.0000000000
      7243      2415  TIP3      OH2             8.6219496015       -4.3792457466      -12.8986246635  WZ2       1371            0.0000000000
      7244      2415  TIP3      H1              9.2415896015       -5.0557757466      -13.1717046635  WZ2       1371            0.0000000000
      7245      2415  TIP3      H2              8.4136896015       -4.5971657466      -11.9901346635  WZ2       1371            0.0000000000
      7246      2416  TIP3      OH2             6.1938196015       -9.9903157466      -11.0060746635  WZ2       1372            0.0000000000
      7247      2416  TIP3      H1              6.4976096015      -10.6761757466      -11.6006646635  WZ2       1372            0.0000000000
      7248      2416  TIP3      H2              6.9152196015       -9.8714457466      -10.3882746635  WZ2       1372            0.0000000000
      7249      2417  TIP3      OH2            14.8567996015      -18.3887857466      -10.1454546635  WZ2       1373            0.0000000000
      7250      2417  TIP3      H1             14.9060196015      -17.7786657466       -9.4095446635  WZ2       1373            0.0000000000
      7251      2417  TIP3      H2             15.2823096015      -17.9276957466      -10.8683446635  WZ2       1373            0.0000000000
      7252      2418  TIP3      OH2             9.3345196015      -15.5960757466      -10.6785946635  WZ2       1374            0.0000000000
      7253      2418  TIP3      H1              9.4771096015      -16.5423757466      -10.6584346635  WZ2       1374            0.0000000000
      7254      2418  TIP3      H2              9.2284196015      -15.3890957466      -11.6071046635  WZ2       1374            0.0000000000
      7255      2419  TIP3      OH2             2.4893496015      -17.4944357466      -13.4061146635  WZ2       1375            0.0000000000
      7256      2419  TIP3      H1              2.5324596015      -16.6345857466      -13.8244846635  WZ2       1375            0.0000000000
      7257      2419  TIP3      H2              2.0317596015      -18.0469657466      -14.0397946635  WZ2       1375            0.0000000000
      7258      2420  TIP3      OH2            10.2116196015      -17.3638757466      -15.0052846635  WZ2       1376            0.0000000000
      7259      2420  TIP3      H1             10.8580496015      -17.6925557466      -14.3805246635  WZ2       1376            0.0000000000
      7260      2420  TIP3      H2             10.7215596015      -16.8459757466      -15.6281446635  WZ2       1376            0.0000000000
      7261      2421  TIP3      OH2            -0.8905003985      -15.0978557466      -12.6439746635  WZ2       1377            0.0000000000
      7262      2421  TIP3      H1             -0.2368403985      -15.6476857466      -12.2119646635  WZ2       1377            0.0000000000
      7263      2421  TIP3      H2             -0.8665703985      -15.3719557466      -13.5607746635  WZ2       1377            0.0000000000
      7264      2422  TIP3      OH2             4.2659496015      -13.5477257466      -13.4288246635  WZ2       1378            0.0000000000
      7265      2422  TIP3      H1              4.8820496015      -14.0741857466      -12.9194246635  WZ2       1378            0.0000000000
      7266      2422  TIP3      H2              3.6798296015      -14.1878557466      -13.8324646635  WZ2       1378            0.0000000000
      7267      2423  TIP3      OH2            15.2482596015      -16.9108657466       -7.9094746635  WZ2       1379            0.0000000000
      7268      2423  TIP3      H1             14.5597196015      -16.2527957466       -8.0048146635  WZ2       1379            0.0000000000
      7269      2423  TIP3      H2             15.2637196015      -17.1080757466       -6.9729346635  WZ2       1379            0.0000000000
      7270      2424  TIP3      OH2             1.2995396015      -18.5765957466       -9.3320346635  WZ2       1380            0.0000000000
      7271      2424  TIP3      H1              1.0807096015      -18.0465357466      -10.0984346635  WZ2       1380            0.0000000000
      7272      2424  TIP3      H2              0.6316296015      -18.3500457466       -8.6848946635  WZ2       1380            0.0000000000
      7273      2425  TIP3      OH2             8.6685196015       -9.0764857466      -15.7881246635  WZ2       1381            0.0000000000
      7274      2425  TIP3      H1              8.3730296015       -9.3992557466      -16.6394346635  WZ2       1381            0.0000000000
      7275      2425  TIP3      H2              8.3442996015       -8.1768157466      -15.7468646635  WZ2       1381            0.0000000000
      7276      2426  TIP3      OH2             3.8686796015      -10.9010257466       -9.0446646635  WZ2       1382            0.0000000000
      7277      2426  TIP3      H1              3.1285896015      -10.3028757466       -8.9411446635  WZ2       1382            0.0000000000
      7278      2426  TIP3      H2              4.5826296015      -10.3470657466       -9.3603046635  WZ2       1382            0.0000000000
      7279      2427  TIP3      OH2            11.9754596015      -18.0729457466      -13.0246946635  WZ2       1383            0.0000000000
      7280      2427  TIP3      H1             11.7602596015      -18.8386057466      -12.4920946635  WZ2       1383            0.0000000000
      7281      2427  TIP3      H2             12.6311996015      -17.6004857466      -12.5118446635  WZ2       1383            0.0000000000
      7282      2428  TIP3      OH2             0.8932696015      -16.6844157466      -11.3798146635  WZ2       1384            0.0000000000
      7283      2428  TIP3      H1              1.5068996015      -16.0516557466      -11.0065746635  WZ2       1384            0.0000000000
      7284      2428  TIP3      H2              1.4053396015      -17.1569157466      -12.0361246635  WZ2       1384            0.0000000000
      7285      2429  TIP3      OH2             2.2761096015       -8.9367257466       -8.2575146635  WZ2       1385            0.0000000000
      7286      2429  TIP3      H1              2.2708696015       -8.0573757466       -8.6355846635  WZ2       1385            0.0000000000
      7287      2429  TIP3      H2              1.4225196015       -9.0203157466       -7.8325246635  WZ2       1385            0.0000000000
      7288      2430  TIP3      OH2            -1.6028003985       -9.2659357466      -17.4755846635  WZ2       1386            0.0000000000
      7289      2430  TIP3      H1             -1.8747103985       -9.0368357466      -18.3642946635  WZ2       1386            0.0000000000
      7290      2430  TIP3      H2             -1.5572303985       -8.4280557466      -17.0150546635  WZ2       1386            0.0000000000
      7291      2431  TIP3      OH2            12.0221696015       -7.6443457466      -10.7627346635  WZ2       1387            0.0000000000
      7292      2431  TIP3      H1             11.0805396015       -7.5859557466      -10.6010446635  WZ2       1387            0.0000000000
      7293      2431  TIP3      H2             12.2987796015       -6.7382957466      -10.8997646635  WZ2       1387            0.0000000000
      7294      2432  TIP3      OH2            12.3228696015      -19.3578157466       -9.3453446635  WZ2       1388            0.0000000000
      7295      2432  TIP3      H1             11.5867896015      -18.7471057466       -9.3832146635  WZ2       1388            0.0000000000
      7296      2432  TIP3      H2             13.0062696015      -18.9429157466       -9.8717046635  WZ2       1388            0.0000000000
      7297      2433  TIP3      OH2             5.3260096015      -21.2710857466      -11.8795446635  WZ2       1389            0.0000000000
      7298      2433  TIP3      H1              5.2084296015      -22.2194857466      -11.9337146635  WZ2       1389            0.0000000000
      7299      2433  TIP3      H2              4.4710196015      -20.9384757466      -11.6064346635  WZ2       1389            0.0000000000
      7300      2434  TIP3      OH2            10.2742896015       -5.8629957466      -14.1375746635  WZ2       1390            0.0000000000
      7301      2434  TIP3      H1             10.6995196015       -6.5702057466      -14.6226146635  WZ2       1390            0.0000000000
      7302      2434  TIP3      H2             10.5912896015       -5.0617257466      -14.5543546635  WZ2       1390            0.0000000000
      7303      2435  TIP3      OH2            11.4339396015       -7.9621457466      -15.6289146635  WZ2       1391            0.0000000000
      7304      2435  TIP3      H1             11.1764196015       -8.6521357466      -16.2403246635  WZ2       1391            0.0000000000
      7305      2435  TIP3      H2             11.5050196015       -8.4050257466      -14.7833246635  WZ2       1391            0.0000000000
      7306      2436  TIP3      OH2            13.1199596015       -9.3954757466       -7.1515646635  WZ2       1392            0.0000000000
      7307      2436  TIP3      H1             13.2595896015       -9.9872257466       -7.8908646635  WZ2       1392            0.0000000000
      7308      2436  TIP3      H2             13.2872396015       -8.5228857466       -7.5076846635  WZ2       1392            0.0000000000
      7309      2437  TIP3      OH2             7.5924996015      -12.4335257466      -17.3789646635  WZ2       1393            0.0000000000
      7310      2437  TIP3      H1              6.8810496015      -11.8985557466      -17.7309146635  WZ2       1393            0.0000000000
      7311      2437  TIP3      H2              8.2834596015      -12.3783157466      -18.0390746635  WZ2       1393            0.0000000000
      7312      2438  TIP3      OH2             7.6464196015      -13.9760957466      -20.3404646635  WZ2       1394            0.0000000000
      7313      2438  TIP3      H1              8.3474096015      -13.9534057466      -19.6890646635  WZ2       1394            0.0000000000
      7314      2438  TIP3      H2              7.9487096015      -14.6041257466      -20.9965346635  WZ2       1394            0.0000000000
      7315      2439  TIP3      OH2            14.9618896015      -13.0556757466       -9.0855246635  WZ2       1395            0.0000000000
      7316      2439  TIP3      H1             14.3092996015      -12.3611157466       -8.9964346635  WZ2       1395            0.0000000000
      7317      2439  TIP3      H2             15.4269196015      -12.8455857466       -9.8953646635  WZ2       1395            0.0000000000
      7318      2440  TIP3      OH2            10.9982696015      -12.2241957466      -16.4273746635  WZ2       1396            0.0000000000
      7319      2440  TIP3      H1             10.2663696015      -11.9958257466      -15.8543146635  WZ2       1396            0.0000000000
      7320      2440  TIP3      H2             11.4454896015      -12.9379257466      -15.9726246635  WZ2       1396            0.0000000000
      7321      2441  TIP3      OH2            10.8956196015      -14.0499357466       -7.3596746635  WZ2       1397            0.0000000000
      7322      2441  TIP3      H1             10.9755296015      -13.2864957466       -6.7878246635  WZ2       1397            0.0000000000
      7323      2441  TIP3      H2             10.2943896015      -13.7706957466       -8.0501646635  WZ2       1397            0.0000000000
      7324      2442  TIP3      OH2             2.6436396015      -11.5935757466      -14.5448746635  WZ2       1398            0.0000000000
      7325      2442  TIP3      H1              2.3131596015      -11.9642357466      -15.3631746635  WZ2       1398            0.0000000000
      7326      2442  TIP3      H2              3.2320496015      -12.2641757466      -14.1980446635  WZ2       1398            0.0000000000
      7327      2443  TIP3      OH2             4.0103896015       -8.1655157466      -11.8636546635  WZ2       1399            0.0000000000
      7328      2443  TIP3      H1              3.9155196015       -8.7442057466      -12.6201946635  WZ2       1399            0.0000000000
      7329      2443  TIP3      H2              4.7397496015       -8.5369457466      -11.3673746635  WZ2       1399            0.0000000000
      7330      2444  TIP3      OH2             3.0101896015      -12.8250157466      -10.9113746635  WZ2       1400            0.0000000000
      7331      2444  TIP3      H1              3.5754396015      -12.7035957466      -11.6742546635  WZ2       1400            0.0000000000
      7332      2444  TIP3      H2              3.3290796015      -12.1875157466      -10.2725246635  WZ2       1400            0.0000000000
      7333      2445  TIP3      OH2             9.3194096015       -7.3218257466      -10.1773246635  WZ2       1401            0.0000000000
      7334      2445  TIP3      H1              9.0790696015       -6.6595157466       -9.5294046635  WZ2       1401            0.0000000000
      7335      2445  TIP3      H2              9.1212296015       -8.1563057466       -9.7523646635  WZ2       1401            0.0000000000
      7336      2446  TIP3      OH2             3.8902596015       -8.4257457466       -6.1941846635  WZ2       1402            0.0000000000
      7337      2446  TIP3      H1              3.5790096015       -7.6434257466       -5.7388646635  WZ2       1402            0.0000000000
      7338      2446  TIP3      H2              3.2402796015       -8.5788357466       -6.8799846635  WZ2       1402            0.0000000000
      7339      2447  TIP3      OH2             9.8692196015      -13.0619057466      -18.7422546635  WZ2       1403            0.0000000000
      7340      2447  TIP3      H1             10.4487696015      -12.9118757466      -17.9953646635  WZ2       1403            0.0000000000
      7341      2447  TIP3      H2             10.2832196015      -12.5911657466      -19.4656146635  WZ2       1403            0.0000000000
      7342      2448  TIP3      OH2             0.8102496015      -12.2276357466       -6.9656146635  WZ2       1404            0.0000000000
      7343      2448  TIP3      H1              0.8805696015      -11.5769557466       -6.2671146635  WZ2       1404            0.0000000000
      7344      2448  TIP3      H2             -0.0805303985      -12.1248857466       -7.3005246635  WZ2       1404            0.0000000000
      7345      2449  TIP3      OH2             7.5957096015       -6.3250557466      -15.3069446635  WZ2       1405            0.0000000000
      7346      2449  TIP3      H1              8.0694696015       -6.0294257466      -14.5295246635  WZ2       1405            0.0000000000
      7347      2449  TIP3      H2              7.0326396015       -5.5868957466      -15.5399846635  WZ2       1405            0.0000000000
      7348      2450  TIP3      OH2             2.1298496015       -6.3542457466       -5.4308046635  WZ2       1406            0.0000000000
      7349      2450  TIP3      H1              2.1373796015       -6.4902757466       -6.3782546635  WZ2       1406            0.0000000000
      7350      2450  TIP3      H2              1.2138896015       -6.4714357466       -5.1788046635  WZ2       1406            0.0000000000
      7351      2451  TIP3      OH2            13.5680596015      -21.3118657466      -18.9292846635  WZ2       1407            0.0000000000
      7352      2451  TIP3      H1             12.6681296015      -21.1729657466      -18.6342246635  WZ2       1407            0.0000000000
      7353      2451  TIP3      H2             13.8198996015      -20.4804057466      -19.3311146635  WZ2       1407            0.0000000000
      7354      2452  TIP3      OH2             1.6339096015      -12.5241457466      -16.9555946635  WZ2       1408            0.0000000000
      7355      2452  TIP3      H1              1.3420396015      -11.7559757466      -17.4464646635  WZ2       1408            0.0000000000
      7356      2452  TIP3      H2              0.9594296015      -13.1835257466      -17.1184546635  WZ2       1408            0.0000000000
      7357      2453  TIP3      OH2            14.7571996015       -6.9456257466      -20.5528946635  WZ2       1409            0.0000000000
      7358      2453  TIP3      H1             14.8305496015       -6.0066057466      -20.3823646635  WZ2       1409            0.0000000000
      7359      2453  TIP3      H2             15.6627096015       -7.2507657466      -20.6091646635  WZ2       1409            0.0000000000
      7360      2454  TIP3      OH2            -2.2730803985      -10.1612257466       -8.1406146635  WZ2       1410            0.0000000000
      7361      2454  TIP3      H1             -2.7742403985      -10.1892857466       -8.9556446635  WZ2       1410            0.0000000000
      7362      2454  TIP3      H2             -2.2677103985      -11.0669057466       -7.8308846635  WZ2       1410            0.0000000000
      7363      2455  TIP3      OH2            -2.5228103985       -7.3808457466      -11.2565946635  WZ2       1411            0.0000000000
      7364      2455  TIP3      H1             -1.5767503985       -7.5251457466      -11.2756446635  WZ2       1411            0.0000000000
      7365      2455  TIP3      H2             -2.6351803985       -6.5965657466      -10.7194746635  WZ2       1411            0.0000000000
      7366      2456  TIP3      OH2            15.6750396015       -6.7148757466       -5.5742246635  WZ2       1412            0.0000000000
      7367      2456  TIP3      H1             15.6257196015       -7.6700657466       -5.6114646635  WZ2       1412            0.0000000000
      7368      2456  TIP3      H2             14.8482696015       -6.4473457466       -5.1728446635  WZ2       1412            0.0000000000
      7369      2457  TIP3      OH2             6.6534396015       -7.1409557466       -6.6980846635  WZ2       1413            0.0000000000
      7370      2457  TIP3      H1              6.7408996015       -6.3144957466       -6.2231746635  WZ2       1413            0.0000000000
      7371      2457  TIP3      H2              5.7899496015       -7.4705757466       -6.4491546635  WZ2       1413            0.0000000000
      7372      2458  TIP3      OH2             7.0680196015       -3.3685857466      -16.8920246635  WZ2       1414            0.0000000000
      7373      2458  TIP3      H1              6.9926196015       -3.4898657466      -17.8385046635  WZ2       1414            0.0000000000
      7374      2458  TIP3      H2              7.1008896015       -2.4193157466      -16.7735646635  WZ2       1414            0.0000000000
      7375      2459  TIP3      OH2             0.7213996015       -4.5798857466      -15.1111246635  WZ2       1415            0.0000000000
      7376      2459  TIP3      H1              0.8734396015       -4.9278457466      -14.2324746635  WZ2       1415            0.0000000000
      7377      2459  TIP3      H2             -0.1295603985       -4.9361557466      -15.3664046635  WZ2       1415            0.0000000000
      7378      2460  TIP3      OH2            10.1696196015       -4.2145657466      -19.8897846635  WZ2       1416            0.0000000000
      7379      2460  TIP3      H1             10.5444596015       -4.9589557466      -20.3605246635  WZ2       1416            0.0000000000
      7380      2460  TIP3      H2             10.1739896015       -4.4845057466      -18.9714546635  WZ2       1416            0.0000000000
      7381      2461  TIP3      OH2             9.8384296015       -4.2888557466      -17.1405646635  WZ2       1417            0.0000000000
      7382      2461  TIP3      H1              8.9034096015       -4.1886657466      -16.9618646635  WZ2       1417            0.0000000000
      7383      2461  TIP3      H2             10.1186196015       -4.9982557466      -16.5622446635  WZ2       1417            0.0000000000
      7384      2462  TIP3      OH2            12.8270196015      -15.2216257466       -5.0940046635  WZ2       1418            0.0000000000
      7385      2462  TIP3      H1             12.4196996015      -14.7410657466       -5.8146746635  WZ2       1418            0.0000000000
      7386      2462  TIP3      H2             12.8675896015      -16.1270257466       -5.4019246635  WZ2       1418            0.0000000000
      7387      2463  TIP3      OH2            -0.0240303985       -8.8376857466       -7.0973346635  WZ2       1419            0.0000000000
      7388      2463  TIP3      H1              0.1920996015       -9.1991257466       -6.2377546635  WZ2       1419            0.0000000000
      7389      2463  TIP3      H2             -0.8795603985       -9.2123057466       -7.3069846635  WZ2       1419            0.0000000000
      7390      2464  TIP3      OH2             2.5947696015      -20.3676357466      -11.1019146635  WZ2       1420            0.0000000000
      7391      2464  TIP3      H1              1.7331396015      -20.4548157466      -11.5096246635  WZ2       1420            0.0000000000
      7392      2464  TIP3      H2              2.5723396015      -19.5116257466      -10.6741546635  WZ2       1420            0.0000000000
      7393      2465  TIP3      OH2             7.2575496015      -20.6455957466       -7.7272146635  WZ2       1421            0.0000000000
      7394      2465  TIP3      H1              7.6778596015      -21.0608857466       -6.9741546635  WZ2       1421            0.0000000000
      7395      2465  TIP3      H2              6.3245096015      -20.8242657466       -7.6100146635  WZ2       1421            0.0000000000
      7396      2466  TIP3      OH2            10.5840396015      -16.8900757466       -6.8737646635  WZ2       1422            0.0000000000
      7397      2466  TIP3      H1             10.0699896015      -17.0158557466       -6.0761646635  WZ2       1422            0.0000000000
      7398      2466  TIP3      H2             10.4285096015      -15.9777657466       -7.1181446635  WZ2       1422            0.0000000000
      7399      2467  TIP3      OH2            11.3465296015      -12.0290757466      -21.1124646635  WZ2       1423            0.0000000000
      7400      2467  TIP3      H1             11.3886096015      -12.2516857466      -22.0424646635  WZ2       1423            0.0000000000
      7401      2467  TIP3      H2             12.1957396015      -11.6303657466      -20.9224746635  WZ2       1423            0.0000000000
      7402      2468  TIP3      OH2             6.9192796015      -18.1532557466      -20.4421346635  WZ2       1424            0.0000000000
      7403      2468  TIP3      H1              6.6657596015      -18.1340957466      -19.5193246635  WZ2       1424            0.0000000000
      7404      2468  TIP3      H2              6.6624896015      -19.0247157466      -20.7435146635  WZ2       1424            0.0000000000
      7405      2469  TIP3      OH2             2.6857796015      -15.4021857466      -10.0068946635  WZ2       1425            0.0000000000
      7406      2469  TIP3      H1              2.0439896015      -15.4424557466       -9.2978846635  WZ2       1425            0.0000000000
      7407      2469  TIP3      H2              2.7229796015      -14.4757157466      -10.2445946635  WZ2       1425            0.0000000000
      7408      2470  TIP3      OH2             2.6826896015      -15.1811757466      -15.0948946635  WZ2       1426            0.0000000000
      7409      2470  TIP3      H1              1.7899796015      -15.5215657466      -15.1535146635  WZ2       1426            0.0000000000
      7410      2470  TIP3      H2              3.1333496015      -15.5580857466      -15.8505746635  WZ2       1426            0.0000000000
      7411      2471  TIP3      OH2             8.2182396015      -14.7651457466      -16.2778146635  WZ2       1427            0.0000000000
      7412      2471  TIP3      H1              7.8092696015      -13.9502857466      -16.5693346635  WZ2       1427            0.0000000000
      7413      2471  TIP3      H2              8.9388596015      -14.9051357466      -16.8921046635  WZ2       1427            0.0000000000
      7414      2472  TIP3      OH2             7.3203996015      -14.5895057466       -4.7897446635  WZ2       1428            0.0000000000
      7415      2472  TIP3      H1              6.7577796015      -15.2943457466       -4.4689646635  WZ2       1428            0.0000000000
      7416      2472  TIP3      H2              8.1467396015      -14.7103157466       -4.3219846635  WZ2       1428            0.0000000000
      7417      2473  TIP3      OH2             9.2230096015      -15.3191057466      -13.4638446635  WZ2       1429            0.0000000000
      7418      2473  TIP3      H1              9.0274596015      -14.7134257466      -14.1787846635  WZ2       1429            0.0000000000
      7419      2473  TIP3      H2              9.4042696015      -16.1525857466      -13.8982146635  WZ2       1429            0.0000000000
      7420      2474  TIP3      OH2             0.4358296015      -15.0818357466       -8.1396946635  WZ2       1430            0.0000000000
      7421      2474  TIP3      H1              0.3977696015      -14.6816757466       -7.2709846635  WZ2       1430            0.0000000000
      7422      2474  TIP3      H2             -0.0550603985      -15.8985957466       -8.0494046635  WZ2       1430            0.0000000000
      7423      2475  TIP3      OH2             3.8015696015      -17.7076057466      -21.3410946635  WZ2       1431            0.0000000000
      7424      2475  TIP3      H1              3.3706396015      -18.1525957466      -20.6113546635  WZ2       1431            0.0000000000
      7425      2475  TIP3      H2              3.0834396015      -17.3359757466      -21.8533446635  WZ2       1431            0.0000000000
      7426      2476  TIP3      OH2            -2.9560903985      -17.9656557466      -14.2892246635  WZ2       1432            0.0000000000
      7427      2476  TIP3      H1             -2.3253203985      -17.9944457466      -13.5698346635  WZ2       1432            0.0000000000
      7428      2476  TIP3      H2             -2.5066603985      -18.3907857466      -15.0196346635  WZ2       1432            0.0000000000
      7429      2477  TIP3      OH2            -1.6818803985      -17.2194557466      -18.8651846635  WZ2       1433            0.0000000000
      7430      2477  TIP3      H1             -1.2077103985      -16.6284657466      -19.4500946635  WZ2       1433            0.0000000000
      7431      2477  TIP3      H2             -2.3992403985      -16.6891657466      -18.5181746635  WZ2       1433            0.0000000000
      7432      2478  TIP3      OH2             8.4869296015      -13.6809757466       -8.7926046635  WZ2       1434            0.0000000000
      7433      2478  TIP3      H1              8.8104096015      -14.3120057466       -9.4355546635  WZ2       1434            0.0000000000
      7434      2478  TIP3      H2              8.0468596015      -14.2157557466       -8.1318646635  WZ2       1434            0.0000000000
      7435      2479  TIP3      OH2             5.2642196015      -17.7534257466      -14.0084846635  WZ2       1435            0.0000000000
      7436      2479  TIP3      H1              4.3533296015      -17.6967457466      -13.7198846635  WZ2       1435            0.0000000000
      7437      2479  TIP3      H2              5.7695096015      -17.8138757466      -13.1977646635  WZ2       1435            0.0000000000
      7438      2480  TIP3      OH2             0.0925596015      -16.1247957466      -15.1817246635  WZ2       1436            0.0000000000
      7439      2480  TIP3      H1             -0.7966403985      -16.0252457466      -15.5217646635  WZ2       1436            0.0000000000
      7440      2480  TIP3      H2              0.3890496015      -16.9664957466      -15.5279346635  WZ2       1436            0.0000000000
      7441      2481  TIP3      OH2             3.7457396015      -16.1245357466      -17.5252646635  WZ2       1437            0.0000000000
      7442      2481  TIP3      H1              4.6772896015      -15.9955357466      -17.3469546635  WZ2       1437            0.0000000000
      7443      2481  TIP3      H2              3.5307696015      -15.4551057466      -18.1747946635  WZ2       1437            0.0000000000
      7444      2482  TIP3      OH2             9.6694096015      -18.5187957466      -10.7443046635  WZ2       1438            0.0000000000
      7445      2482  TIP3      H1              8.9925696015      -18.3874857466      -10.0803346635  WZ2       1438            0.0000000000
      7446      2482  TIP3      H2              9.1838996015      -18.6738457466      -11.5545346635  WZ2       1438            0.0000000000
      7447      2483  TIP3      OH2             2.4197596015      -14.9303157466      -19.9586546635  WZ2       1439            0.0000000000
      7448      2483  TIP3      H1              1.8772696015      -15.3099357466      -20.6498946635  WZ2       1439            0.0000000000
      7449      2483  TIP3      H2              3.2532496015      -14.7358457466      -20.3872446635  WZ2       1439            0.0000000000
      7450      2484  TIP3      OH2            12.9569196015       -2.8472557466       -4.4675446635  WZ2       1440            0.0000000000
      7451      2484  TIP3      H1             13.1567896015       -2.4230657466       -5.3020146635  WZ2       1440            0.0000000000
      7452      2484  TIP3      H2             13.6122896015       -2.5034357466       -3.8605046635  WZ2       1440            0.0000000000
      7453      2485  TIP3      OH2             0.5548996015      -10.3731257466       -4.8594946635  WZ2       1441            0.0000000000
      7454      2485  TIP3      H1              1.2871396015      -10.1185357466       -4.2980446635  WZ2       1441            0.0000000000
      7455      2485  TIP3      H2             -0.2252303985      -10.1685857466       -4.3439546635  WZ2       1441            0.0000000000
      7456      2486  TIP3      OH2             6.5841896015      -14.9661257466      -12.1215246635  WZ2       1442            0.0000000000
      7457      2486  TIP3      H1              7.1485296015      -15.5124657466      -12.6685646635  WZ2       1442            0.0000000000
      7458      2486  TIP3      H2              6.4365296015      -15.4879357466      -11.3327646635  WZ2       1442            0.0000000000
      7459      2487  TIP3      OH2             1.5861596015      -18.8295157466      -15.7030446635  WZ2       1443            0.0000000000
      7460      2487  TIP3      H1              1.2691096015      -19.7319857466      -15.7385046635  WZ2       1443            0.0000000000
      7461      2487  TIP3      H2              2.3675696015      -18.8277757466      -16.2558846635  WZ2       1443            0.0000000000
      7462      2488  TIP3      OH2             5.2107796015      -16.5775157466       -9.7074846635  WZ2       1444            0.0000000000
      7463      2488  TIP3      H1              4.3753096015      -16.1235657466       -9.5972446635  WZ2       1444            0.0000000000
      7464      2488  TIP3      H2              5.7348396015      -16.3016657466       -8.9554946635  WZ2       1444            0.0000000000
      7465      2489  TIP3      OH2             5.7550396015      -10.3647457466      -18.0228446635  WZ2       1445            0.0000000000
      7466      2489  TIP3      H1              5.0101396015      -10.8722157466      -18.3450546635  WZ2       1445            0.0000000000
      7467      2489  TIP3      H2              5.6207596015      -10.3159457466      -17.0763646635  WZ2       1445            0.0000000000
      7468      2490  TIP3      OH2            12.9049296015      -11.2319257466       -9.2360846635  WZ2       1446            0.0000000000
      7469      2490  TIP3      H1             13.5468096015      -10.7752957466       -9.7798646635  WZ2       1446            0.0000000000
      7470      2490  TIP3      H2             12.0746196015      -11.1186857466       -9.6986746635  WZ2       1446            0.0000000000
      7471      2491  TIP3      OH2             9.6527196015      -17.5507557466      -19.8235846635  WZ2       1447            0.0000000000
      7472      2491  TIP3      H1              8.7141396015      -17.4391957466      -19.9747046635  WZ2       1447            0.0000000000
      7473      2491  TIP3      H2              9.9499296015      -16.6940657466      -19.5170146635  WZ2       1447            0.0000000000
      7474      2492  TIP3      OH2             7.2742496015      -10.1804157466       -6.7859346635  WZ2       1448            0.0000000000
      7475      2492  TIP3      H1              6.9288596015      -10.5621757466       -5.9789746635  WZ2       1448            0.0000000000
      7476      2492  TIP3      H2              7.0742596015       -9.2470557466       -6.7146446635  WZ2       1448            0.0000000000
      7477      2493  TIP3      OH2            10.3710696015      -15.6834857466      -18.1628446635  WZ2       1449            0.0000000000
      7478      2493  TIP3      H1             11.2629696015      -15.8209857466      -17.8437246635  WZ2       1449            0.0000000000
      7479      2493  TIP3      H2             10.4274296015      -14.8928757466      -18.6994946635  WZ2       1449            0.0000000000
      7480      2494  TIP3      OH2             0.8798696015      -11.0697457466      -12.2530546635  WZ2       1450            0.0000000000
      7481      2494  TIP3      H1              1.6245896015      -11.0721757466      -12.8544046635  WZ2       1450            0.0000000000
      7482      2494  TIP3      H2              0.9575296015      -11.8933657466      -11.7715446635  WZ2       1450            0.0000000000
      7483      2495  TIP3      OH2             7.8804496015       -8.9063157466      -18.9973846635  WZ2       1451            0.0000000000
      7484      2495  TIP3      H1              7.5852896015       -8.0795257466      -18.6159046635  WZ2       1451            0.0000000000
      7485      2495  TIP3      H2              7.1774496015       -9.5256257466      -18.8012446635  WZ2       1451            0.0000000000
      7486      2496  TIP3      OH2            -2.1121603985      -12.6090557466       -6.9382046635  WZ2       1452            0.0000000000
      7487      2496  TIP3      H1             -1.8893003985      -13.0270957466       -6.1064546635  WZ2       1452            0.0000000000
      7488      2496  TIP3      H2             -2.7141503985      -13.2215557466       -7.3609246635  WZ2       1452            0.0000000000
      7489      2497  TIP3      OH2             4.9043296015      -13.0920657466       -4.7252346635  WZ2       1453            0.0000000000
      7490      2497  TIP3      H1              4.6084096015      -13.2577657466       -5.6203246635  WZ2       1453            0.0000000000
      7491      2497  TIP3      H2              5.8358496015      -13.3120357466       -4.7358446635  WZ2       1453            0.0000000000
      7492      2498  TIP3      OH2             9.5246096015       -7.7188657466       -6.8354346635  WZ2       1454            0.0000000000
      7493      2498  TIP3      H1              8.6240396015       -7.5356057466       -7.1030446635  WZ2       1454            0.0000000000
      7494      2498  TIP3      H2              9.5587196015       -7.4599357466       -5.9145546635  WZ2       1454            0.0000000000
      7495      2499  TIP3      OH2            15.2559396015      -15.4740757466      -18.4681746635  WZ2       1455            0.0000000000
      7496      2499  TIP3      H1             14.7015696015      -15.8702757466      -19.1404246635  WZ2       1455            0.0000000000
      7497      2499  TIP3      H2             15.3562996015      -14.5635557466      -18.7458446635  WZ2       1455            0.0000000000
      7498      2500  TIP3      OH2            15.2191396015       -9.6739057466       -5.6310246635  WZ2       1456            0.0000000000
      7499      2500  TIP3      H1             14.3679896015       -9.4355257466       -5.9983846635  WZ2       1456            0.0000000000
      7500      2500  TIP3      H2             15.8094796015       -9.6905857466       -6.3843146635  WZ2       1456            0.0000000000
      7501      2501  TIP3      OH2            13.5511096015       -6.6880357466      -18.0029646635  WZ2       1457            0.0000000000
      7502      2501  TIP3      H1             13.1782196015       -7.5136557466      -17.6939046635  WZ2       1457            0.0000000000
      7503      2501  TIP3      H2             13.8284596015       -6.8710957466      -18.9006246635  WZ2       1457            0.0000000000
      7504      2502  TIP3      OH2            10.7114996015      -11.8800857466      -10.9817746635  WZ2       1458            0.0000000000
      7505      2502  TIP3      H1              9.7831896015      -12.1118957466      -11.0088446635  WZ2       1458            0.0000000000
      7506      2502  TIP3      H2             11.1626096015      -12.6571057466      -11.3118946635  WZ2       1458            0.0000000000
      7507      2503  TIP3      OH2             3.2548096015       -7.5519257466      -14.8489046635  WZ2       1459            0.0000000000
      7508      2503  TIP3      H1              3.7820296015       -6.7784857466      -15.0490246635  WZ2       1459            0.0000000000
      7509      2503  TIP3      H2              2.3746596015       -7.3270057466      -15.1505046635  WZ2       1459            0.0000000000
      7510      2504  TIP3      OH2            -0.9904203985      -12.6895157466      -20.2616646635  WZ2       1460            0.0000000000
      7511      2504  TIP3      H1             -0.3744303985      -12.0627957466      -19.8821846635  WZ2       1460            0.0000000000
      7512      2504  TIP3      H2             -1.8521603985      -12.3735357466      -19.9900146635  WZ2       1460            0.0000000000
      7513      2505  TIP3      OH2             4.6820396015       -9.8889357466      -15.2724746635  WZ2       1461            0.0000000000
      7514      2505  TIP3      H1              4.4410396015       -8.9634957466      -15.2309446635  WZ2       1461            0.0000000000
      7515      2505  TIP3      H2              3.9413996015      -10.3478057466      -14.8760846635  WZ2       1461            0.0000000000
      7516      2506  TIP3      OH2             5.1966996015       -5.7395757466       -8.9573646635  WZ2       1462            0.0000000000
      7517      2506  TIP3      H1              5.5591696015       -4.8850157466       -9.1909246635  WZ2       1462            0.0000000000
      7518      2506  TIP3      H2              5.7282196015       -6.0314157466       -8.2167346635  WZ2       1462            0.0000000000
      7519      2507  TIP3      OH2             3.3651196015       -4.8671757466      -15.7272546635  WZ2       1463            0.0000000000
      7520      2507  TIP3      H1              2.4151696015       -4.7614357466      -15.6759246635  WZ2       1463            0.0000000000
      7521      2507  TIP3      H2              3.7169296015       -4.0464357466      -15.3825046635  WZ2       1463            0.0000000000
      7522      2508  TIP3      OH2             8.7407796015       -9.6405057466       -9.2568046635  WZ2       1464            0.0000000000
      7523      2508  TIP3      H1              8.3149096015       -9.8683357466       -8.4304046635  WZ2       1464            0.0000000000
      7524      2508  TIP3      H2              9.3213596015      -10.3793257466       -9.4392746635  WZ2       1464            0.0000000000
      7525      2509  TIP3      OH2            10.9436696015       -8.7114557466      -20.1829046635  WZ2       1465            0.0000000000
      7526      2509  TIP3      H1             11.2969796015       -9.0914757466      -19.3785546635  WZ2       1465            0.0000000000
      7527      2509  TIP3      H2              9.9950196015       -8.8049757466      -20.0959746635  WZ2       1465            0.0000000000
      7528      2510  TIP3      OH2            11.3991996015       -5.0885557466       -6.7873246635  WZ2       1466            0.0000000000
      7529      2510  TIP3      H1             10.7975196015       -5.6442657466       -7.2826946635  WZ2       1466            0.0000000000
      7530      2510  TIP3      H2             11.6805696015       -4.4215757466       -7.4135846635  WZ2       1466            0.0000000000
      7531      2511  TIP3      OH2            15.4471096015       -4.2322057466      -19.9818846635  WZ2       1467            0.0000000000
      7532      2511  TIP3      H1             16.1908996015       -3.6461557466      -20.1217246635  WZ2       1467            0.0000000000
      7533      2511  TIP3      H2             14.7529196015       -3.6636257466      -19.6486446635  WZ2       1467            0.0000000000
      7534      2512  TIP3      OH2            -0.4782103985      -17.8557857466       -7.3800646635  WZ2       1468            0.0000000000
      7535      2512  TIP3      H1             -1.3709803985      -17.5172457466       -7.4476646635  WZ2       1468            0.0000000000
      7536      2512  TIP3      H2             -0.5769303985      -18.7111757466       -6.9619846635  WZ2       1468            0.0000000000
      7537      2513  TIP3      OH2            11.8095996015      -10.0392557466      -17.9561146635  WZ2       1469            0.0000000000
      7538      2513  TIP3      H1             11.5323596015      -10.7673257466      -17.4000046635  WZ2       1469            0.0000000000
      7539      2513  TIP3      H2             12.7368996015       -9.9200557466      -17.7508546635  WZ2       1469            0.0000000000
      7540      2514  TIP3      OH2            -0.8270103985       -6.0513457466       -8.9451246635  WZ2       1470            0.0000000000
      7541      2514  TIP3      H1             -0.6099803985       -6.9831057466       -8.9761546635  WZ2       1470            0.0000000000
      7542      2514  TIP3      H2             -0.5806603985       -5.7768457466       -8.0618446635  WZ2       1470            0.0000000000
      7543      2515  TIP3      OH2             5.0344496015       -7.5998457466      -21.7359046635  WZ2       1471            0.0000000000
      7544      2515  TIP3      H1              5.2734296015       -8.3480357466      -22.2830146635  WZ2       1471            0.0000000000
      7545      2515  TIP3      H2              4.7655796015       -7.9876757466      -20.9031246635  WZ2       1471            0.0000000000
      7546      2516  TIP3      OH2             3.9715096015       -8.0294657466      -19.2796446635  WZ2       1472            0.0000000000
      7547      2516  TIP3      H1              4.1183096015       -8.5494857466      -18.4895546635  WZ2       1472            0.0000000000
      7548      2516  TIP3      H2              3.9686796015       -7.1227057466      -18.9730546635  WZ2       1472            0.0000000000
      7549      2517  TIP3      OH2             0.4246196015      -10.7771357466      -18.7691046635  WZ2       1473            0.0000000000
      7550      2517  TIP3      H1             -0.2614503985      -10.4248857466      -18.2021346635  WZ2       1473            0.0000000000
      7551      2517  TIP3      H2              0.9474096015      -10.0141757466      -19.0156746635  WZ2       1473            0.0000000000
      7552      2518  TIP3      OH2             8.2561296015      -18.1147557466       -8.4902046635  WZ2       1474            0.0000000000
      7553      2518  TIP3      H1              8.9549196015      -18.0408857466       -7.8402346635  WZ2       1474            0.0000000000
      7554      2518  TIP3      H2              7.8752696015      -18.9792557466       -8.3359146635  WZ2       1474            0.0000000000
      7555      2519  TIP3      OH2             9.0406196015      -18.4625857466      -17.3929746635  WZ2       1475            0.0000000000
      7556      2519  TIP3      H1              9.2604496015      -17.9910457466      -18.1964346635  WZ2       1475            0.0000000000
      7557      2519  TIP3      H2              9.5990196015      -18.0683257466      -16.7229146635  WZ2       1475            0.0000000000
      7558      2520  TIP3      OH2             6.7092296015       -6.3321057466      -18.5302246635  WZ2       1476            0.0000000000
      7559      2520  TIP3      H1              5.8928396015       -5.8351357466      -18.4777946635  WZ2       1476            0.0000000000
      7560      2520  TIP3      H2              7.2388596015       -5.8567557466      -19.1703446635  WZ2       1476            0.0000000000
      7561      2521  TIP3      OH2             6.2406096015      -16.7347057466      -16.5581346635  WZ2       1477            0.0000000000
      7562      2521  TIP3      H1              7.0528696015      -16.2303857466      -16.5119646635  WZ2       1477            0.0000000000
      7563      2521  TIP3      H2              5.9959096015      -16.8797357466      -15.6441746635  WZ2       1477            0.0000000000
      7564      2522  TIP3      OH2             6.7762496015      -15.7484357466       -7.3734746635  WZ2       1478            0.0000000000
      7565      2522  TIP3      H1              6.8952796015      -15.1748957466       -6.6164346635  WZ2       1478            0.0000000000
      7566      2522  TIP3      H2              7.4317096015      -16.4364957466       -7.2586946635  WZ2       1478            0.0000000000
      7567      2523  TIP3      OH2             7.1242796015      -19.6534057466      -15.6200246635  WZ2       1479            0.0000000000
      7568      2523  TIP3      H1              6.7776296015      -19.0363457466      -14.9755946635  WZ2       1479            0.0000000000
      7569      2523  TIP3      H2              7.7829696015      -19.1528357466      -16.1014746635  WZ2       1479            0.0000000000
      7570      2524  TIP3      OH2             4.0475396015       -5.2883857466      -18.5485346635  WZ2       1480            0.0000000000
      7571      2524  TIP3      H1              4.2084096015       -4.4886357466      -19.0492746635  WZ2       1480            0.0000000000
      7572      2524  TIP3      H2              3.8503196015       -4.9817857466      -17.6634746635  WZ2       1480            0.0000000000
      7573      2525  TIP3      OH2             2.7819796015      -18.5904657466      -18.9327746635  WZ2       1481            0.0000000000
      7574      2525  TIP3      H1              2.6984596015      -17.7021557466      -18.5861346635  WZ2       1481            0.0000000000
      7575      2525  TIP3      H2              3.6720096015      -18.8557957466      -18.7010946635  WZ2       1481            0.0000000000
      7576      2526  TIP3      OH2            12.9808296015      -17.8414057466       -6.5385046635  WZ2       1482            0.0000000000
      7577      2526  TIP3      H1             12.0644096015      -17.5792357466       -6.6261346635  WZ2       1482            0.0000000000
      7578      2526  TIP3      H2             13.3163296015      -17.8445057466       -7.4349746635  WZ2       1482            0.0000000000
      7579      2527  TIP3      OH2            11.5829296015      -14.0913057466      -12.4427746635  WZ2       1483            0.0000000000
      7580      2527  TIP3      H1             10.7853696015      -14.5062857466      -12.7712746635  WZ2       1483            0.0000000000
      7581      2527  TIP3      H2             12.0280396015      -14.7819357466      -11.9517246635  WZ2       1483            0.0000000000
      7582      2528  TIP3      OH2             1.0405096015       -8.1632457466      -19.8723246635  WZ2       1484            0.0000000000
      7583      2528  TIP3      H1              1.6326596015       -7.4637657466      -19.5960846635  WZ2       1484            0.0000000000
      7584      2528  TIP3      H2              1.4998096015       -8.5962957466      -20.5918646635  WZ2       1484            0.0000000000
      7585      2529  TIP3      OH2            -0.6435703985      -15.4989457466      -20.7563846635  WZ2       1485            0.0000000000
      7586      2529  TIP3      H1             -0.6883103985      -14.5596357466      -20.5776846635  WZ2       1485            0.0000000000
      7587      2529  TIP3      H2             -1.5312503985      -15.7344557466      -21.0261746635  WZ2       1485            0.0000000000
      7588      2530  TIP3      OH2            12.6693896015       -4.8350557466      -10.8204246635  WZ2       1486            0.0000000000
      7589      2530  TIP3      H1             12.5138196015       -4.1566157466      -11.4774946635  WZ2       1486            0.0000000000
      7590      2530  TIP3      H2             13.6020296015       -4.7631257466      -10.6173646635  WZ2       1486            0.0000000000
      7591      2531  TIP3      OH2             0.1646296015      -20.7172857466      -12.0832846635  WZ2       1487            0.0000000000
      7592      2531  TIP3      H1             -0.0643903985      -20.6580357466      -13.0107846635  WZ2       1487            0.0000000000
      7593      2531  TIP3      H2             -0.2780303985      -21.5087357466      -11.7768746635  WZ2       1487            0.0000000000
      7594      2532  TIP3      OH2            -0.9050403985       -6.7765757466      -15.9227046635  WZ2       1488            0.0000000000
      7595      2532  TIP3      H1             -1.7371803985       -6.3043057466      -15.8955646635  WZ2       1488            0.0000000000
      7596      2532  TIP3      H2             -0.3592103985       -6.2668157466      -16.5213946635  WZ2       1488            0.0000000000
      7597      2533  TIP3      OH2            -1.6166703985       -4.1642057466       -4.5929046635  WZ2       1489            0.0000000000
      7598      2533  TIP3      H1             -1.0764503985       -4.3808057466       -3.8329846635  WZ2       1489            0.0000000000
      7599      2533  TIP3      H2             -2.0978703985       -4.9696057466       -4.7826546635  WZ2       1489            0.0000000000
      7600      2534  TIP3      OH2             2.9806696015       -5.2447657466       -2.9724846635  WZ2       1490            0.0000000000
      7601      2534  TIP3      H1              3.7483896015       -5.7036857466       -2.6315646635  WZ2       1490            0.0000000000
      7602      2534  TIP3      H2              2.9592896015       -5.4707857466       -3.9023646635  WZ2       1490            0.0000000000
      7603      2535  TIP3      OH2             7.0726296015       -5.7367057466      -21.5973046635  WZ2       1491            0.0000000000
      7604      2535  TIP3      H1              6.4287296015       -6.3678457466      -21.2759346635  WZ2       1491            0.0000000000
      7605      2535  TIP3      H2              7.8344596015       -6.2679057466      -21.8289546635  WZ2       1491            0.0000000000
      7606      2536  TIP3      OH2             9.5575396015       -6.8646557466       -4.2433346635  WZ2       1492            0.0000000000
      7607      2536  TIP3      H1              9.2064896015       -7.7213557466       -4.0002946635  WZ2       1492            0.0000000000
      7608      2536  TIP3      H2             10.2838596015       -6.7219857466       -3.6364346635  WZ2       1492            0.0000000000
      7609      2537  TIP3      OH2            11.6769196015       -5.9197157466      -21.3635046635  WZ2       1493            0.0000000000
      7610      2537  TIP3      H1             11.9599596015       -6.7141957466      -20.9108146635  WZ2       1493            0.0000000000
      7611      2537  TIP3      H2             12.4167096015       -5.6866157466      -21.9243946635  WZ2       1493            0.0000000000
      7612      2538  TIP3      OH2            -1.7097203985      -10.3537957466       -3.6384746635  WZ2       1494            0.0000000000
      7613      2538  TIP3      H1             -1.5656703985      -11.2557257466       -3.9248046635  WZ2       1494            0.0000000000
      7614      2538  TIP3      H2             -2.4819803985      -10.0675857466       -4.1262446635  WZ2       1494            0.0000000000
      7615      2539  TIP3      OH2             2.6316496015      -10.0102257466      -21.5060146635  WZ2       1495            0.0000000000
      7616      2539  TIP3      H1              2.6960596015      -10.8042657466      -20.9753746635  WZ2       1495            0.0000000000
      7617      2539  TIP3      H2              3.2845696015      -10.1289457466      -22.1958146635  WZ2       1495            0.0000000000
      7618      2540  TIP3      OH2             4.9458896015      -10.3839857466       -4.2058346635  WZ2       1496            0.0000000000
      7619      2540  TIP3      H1              4.6172696015      -10.1131757466       -5.0630946635  WZ2       1496            0.0000000000
      7620      2540  TIP3      H2              5.0977096015      -11.3250057466       -4.2933346635  WZ2       1496            0.0000000000
      7621      2541  TIP3      OH2             7.9839896015       -8.9630557466      -21.7702146635  WZ2       1497            0.0000000000
      7622      2541  TIP3      H1              7.7153996015       -8.7828457466      -20.8693246635  WZ2       1497            0.0000000000
      7623      2541  TIP3      H2              7.7775496015       -9.8884357466      -21.9016346635  WZ2       1497            0.0000000000
      7624      2542  TIP3      OH2            10.6804096015      -10.4682557466       -6.8226046635  WZ2       1498            0.0000000000
      7625      2542  TIP3      H1             11.4258896015       -9.8798857466       -6.9422046635  WZ2       1498            0.0000000000
      7626      2542  TIP3      H2              9.9230896015       -9.8862857466       -6.7592946635  WZ2       1498            0.0000000000
      7627      2543  TIP3      OH2            -0.8770703985      -13.1534657466       -4.2185446635  WZ2       1499            0.0000000000
      7628      2543  TIP3      H1             -0.4689503985      -14.0108057466       -4.3394846635  WZ2       1499            0.0000000000
      7629      2543  TIP3      H2             -1.1373103985      -13.1393357466       -3.2975146635  WZ2       1499            0.0000000000
      7630      2544  TIP3      OH2             3.7810296015      -12.0376057466      -19.2002146635  WZ2       1500            0.0000000000
      7631      2544  TIP3      H1              3.3212296015      -12.5217757466      -18.5143646635  WZ2       1500            0.0000000000
      7632      2544  TIP3      H2              4.0358996015      -12.7060657466      -19.8361646635  WZ2       1500            0.0000000000
      7633      2545  TIP3      OH2             3.0699596015      -14.1448957466       -6.8442546635  WZ2       1501            0.0000000000
      7634      2545  TIP3      H1              2.4515696015      -13.4702357466       -6.5637846635  WZ2       1501            0.0000000000
      7635      2545  TIP3      H2              3.4140796015      -13.8235057466       -7.6776346635  WZ2       1501            0.0000000000
      7636      2546  TIP3      OH2             4.8520696015      -13.7944257466      -20.9378946635  WZ2       1502            0.0000000000
      7637      2546  TIP3      H1              4.6715696015      -13.9493057466      -21.8650646635  WZ2       1502            0.0000000000
      7638      2546  TIP3      H2              5.8021196015      -13.6865557466      -20.8931046635  WZ2       1502            0.0000000000
      7639      2547  TIP3      OH2             8.0897796015      -11.6733657466       -3.5667746635  WZ2       1503            0.0000000000
      7640      2547  TIP3      H1              9.0428996015      -11.5894557466       -3.5941746635  WZ2       1503            0.0000000000
      7641      2547  TIP3      H2              7.9292396015      -12.3851857466       -2.9472846635  WZ2       1503            0.0000000000
      7642      2548  TIP3      OH2            14.2418996015      -11.4400057466      -21.4920846635  WZ2       1504            0.0000000000
      7643      2548  TIP3      H1             13.9683796015      -11.8644557466      -22.3052546635  WZ2       1504            0.0000000000
      7644      2548  TIP3      H2             14.2813096015      -10.5085557466      -21.7090446635  WZ2       1504            0.0000000000
      7645      2549  TIP3      OH2             3.4093296015      -16.7898157466       -5.7619446635  WZ2       1505            0.0000000000
      7646      2549  TIP3      H1              3.5594196015      -17.5186857466       -6.3639746635  WZ2       1505            0.0000000000
      7647      2549  TIP3      H2              3.4115696015      -16.0126457466       -6.3207246635  WZ2       1505            0.0000000000
      7648      2550  TIP3      OH2             3.8218996015      -18.4202357466       -8.2692046635  WZ2       1506            0.0000000000
      7649      2550  TIP3      H1              4.3576496015      -17.9685657466       -8.9212746635  WZ2       1506            0.0000000000
      7650      2550  TIP3      H2              2.9698596015      -18.5282557466       -8.6917946635  WZ2       1506            0.0000000000
      7651      2551  TIP3      OH2             5.4037396015      -12.9806157466       -8.0296846635  WZ2       1507            0.0000000000
      7652      2551  TIP3      H1              6.1542196015      -13.1368657466       -8.6029046635  WZ2       1507            0.0000000000
      7653      2551  TIP3      H2              5.0645696015      -12.1289557466       -8.3051346635  WZ2       1507            0.0000000000
      7654      2552  TIP3      OH2             9.8193596015      -15.1654357466       -3.0011546635  WZ2       1508            0.0000000000
      7655      2552  TIP3      H1             10.0114896015      -16.0964957466       -3.1127046635  WZ2       1508            0.0000000000
      7656      2552  TIP3      H2             10.6769896015      -14.7404857466       -3.0116146635  WZ2       1508            0.0000000000
      7657      2553  TIP3      OH2            11.1360796015      -12.3769157466       -4.9238846635  WZ2       1509            0.0000000000
      7658      2553  TIP3      H1             10.8545796015      -11.6674557466       -5.5015046635  WZ2       1509            0.0000000000
      7659      2553  TIP3      H2             12.0785096015      -12.4496157466       -5.0747646635  WZ2       1509            0.0000000000
      7660      2554  TIP3      OH2             1.8879596015      -15.5914657466       -3.8503846635  WZ2       1510            0.0000000000
      7661      2554  TIP3      H1              1.1208596015      -16.1239857466       -4.0606246635  WZ2       1510            0.0000000000
      7662      2554  TIP3      H2              2.5668596015      -15.9014257466       -4.4497546635  WZ2       1510            0.0000000000
      7663      2555  TIP3      OH2             4.6274496015      -20.9636657466       -7.8378446635  WZ2       1511            0.0000000000
      7664      2555  TIP3      H1              4.5294096015      -20.0173457466       -7.9432246635  WZ2       1511            0.0000000000
      7665      2555  TIP3      H2              3.8850696015      -21.3362857466       -8.3134946635  WZ2       1511            0.0000000000
      7666      2556  TIP3      OH2             5.8914996015      -16.6421257466       -4.2740046635  WZ2       1512            0.0000000000
      7667      2556  TIP3      H1              5.6560396015      -16.8614557466       -3.3725146635  WZ2       1512            0.0000000000
      7668      2556  TIP3      H2              5.1081896015      -16.8490057466       -4.7837546635  WZ2       1512            0.0000000000
      7669      2557  TIP3      OH2             8.6071596015      -17.5147757466       -5.1986546635  WZ2       1513            0.0000000000
      7670      2557  TIP3      H1              7.6596996015      -17.4828057466       -5.0663246635  WZ2       1513            0.0000000000
      7671      2557  TIP3      H2              8.9198296015      -18.1400657466       -4.5448346635  WZ2       1513            0.0000000000
      7672      2558  TIP3      OH2            10.2413096015      -18.8806657466       -3.1934646635  WZ2       1514            0.0000000000
      7673      2558  TIP3      H1             10.1444896015      -19.8329357466       -3.1992746635  WZ2       1514            0.0000000000
      7674      2558  TIP3      H2              9.9196196015      -18.6119857466       -2.3329146635  WZ2       1514            0.0000000000
      7675      2559  TIP3      OH2             0.0682396015      -17.6710857466       -4.1459146635  WZ2       1515            0.0000000000
      7676      2559  TIP3      H1              0.2799796015      -18.3774757466       -4.7561646635  WZ2       1515            0.0000000000
      7677      2559  TIP3      H2             -0.0430103985      -18.1084857466       -3.3017946635  WZ2       1515            0.0000000000
      7678      2560  TIP3      OH2             4.8492596015      -21.6699257466       -5.1665646635  WZ2       1516            0.0000000000
      7679      2560  TIP3      H1              5.5610996015      -22.3097057466       -5.1806546635  WZ2       1516            0.0000000000
      7680      2560  TIP3      H2              4.7482996015      -21.4030957466       -6.0802546635  WZ2       1516            0.0000000000
      7681      2561  TIP3      OH2             5.2030096015      -19.9870857466       -3.1129346635  WZ2       1517            0.0000000000
      7682      2561  TIP3      H1              5.0712296015      -20.4627057466       -3.9330846635  WZ2       1517            0.0000000000
      7683      2561  TIP3      H2              4.6037496015      -19.2427257466       -3.1682246635  WZ2       1517            0.0000000000
      7684      2562  TIP3      OH2             4.7492396015       -3.1040557466      -19.9365346635  WZ2       1518            0.0000000000
      7685      2562  TIP3      H1              5.6823096015       -2.9461857466      -19.7926946635  WZ2       1518            0.0000000000
      7686      2562  TIP3      H2              4.4851196015       -2.4287557466      -20.5613846635  WZ2       1518            0.0000000000
      7687      2563  TIP3      OH2            -1.6822703985       -8.4676757466      -20.4537246635  WZ2       1519            0.0000000000
      7688      2563  TIP3      H1             -0.7683503985       -8.3887857466      -20.1803346635  WZ2       1519            0.0000000000
      7689      2563  TIP3      H2             -1.6749603985       -9.1547157466      -21.1201646635  WZ2       1519            0.0000000000
      7690      2564  TIP3      OH2            -3.0332103985       -3.0748257466      -15.3763346635  WZ2       1520            0.0000000000
      7691      2564  TIP3      H1             -3.6805003985       -3.5366557466      -15.9092146635  WZ2       1520            0.0000000000
      7692      2564  TIP3      H2             -2.6787503985       -3.7464957466      -14.7937146635  WZ2       1520            0.0000000000
      7693      2565  TIP3      OH2            -2.1632903985       -4.9941257466      -13.5717146635  WZ2       1521            0.0000000000
      7694      2565  TIP3      H1             -2.4976103985       -5.8743957466      -13.3996946635  WZ2       1521            0.0000000000
      7695      2565  TIP3      H2             -1.9410503985       -4.6486257466      -12.7071546635  WZ2       1521            0.0000000000
      7696      2566  TIP3      OH2            15.3851896015       -4.1844857466      -10.5912346635  WZ2       1522            0.0000000000
      7697      2566  TIP3      H1             15.3638596015       -3.9996457466       -9.6522946635  WZ2       1522            0.0000000000
      7698      2566  TIP3      H2             16.0758096015       -3.6160857466      -10.9320946635  WZ2       1522            0.0000000000
      7699      2567  TIP3      OH2            14.9484796015       -4.6173757466       -7.6693246635  WZ2       1523            0.0000000000
      7700      2567  TIP3      H1             14.4613496015       -5.3529657466       -8.0405846635  WZ2       1523            0.0000000000
      7701      2567  TIP3      H2             15.4977496015       -5.0109857466       -6.9913846635  WZ2       1523            0.0000000000
      7702      2568  TIP3      OH2            13.3992096015       -8.8275657466       -3.0312946635  WZ2       1524            0.0000000000
      7703      2568  TIP3      H1             12.5333196015       -8.9325957466       -2.6370646635  WZ2       1524            0.0000000000
      7704      2568  TIP3      H2             13.7757996015       -8.0692357466       -2.5848246635  WZ2       1524            0.0000000000
      7705      2569  TIP3      OH2            14.7001796015      -10.5711957466      -17.5170446635  WZ2       1525            0.0000000000
      7706      2569  TIP3      H1             15.5503196015      -10.1501057466      -17.3898846635  WZ2       1525            0.0000000000
      7707      2569  TIP3      H2             14.7056896015      -11.3111857466      -16.9099046635  WZ2       1525            0.0000000000
      7708      2570  TIP3      OH2            15.0947396015      -12.5174557466      -15.6934746635  WZ2       1526            0.0000000000
      7709      2570  TIP3      H1             14.3681996015      -12.9971957466      -15.2957146635  WZ2       1526            0.0000000000
      7710      2570  TIP3      H2             15.6760696015      -12.3119857466      -14.9613146635  WZ2       1526            0.0000000000
      7711      2571  TIP3      OH2            14.8538596015       -9.7327057466      -10.7457146635  WZ2       1527            0.0000000000
      7712      2571  TIP3      H1             15.6872796015      -10.1107057466      -11.0263546635  WZ2       1527            0.0000000000
      7713      2571  TIP3      H2             14.9658896015       -8.7895857466      -10.8648046635  WZ2       1527            0.0000000000
      7714      2572  TIP3      OH2            13.3400896015       -6.8549557466       -8.4388746635  WZ2       1528            0.0000000000
      7715      2572  TIP3      H1             12.6926196015       -6.5298057466       -7.8133546635  WZ2       1528            0.0000000000
      7716      2572  TIP3      H2             12.8224896015       -7.2951857466       -9.1130446635  WZ2       1528            0.0000000000
      7717      2573  TIP3      OH2            15.3630496015      -12.6166057466      -19.3023446635  WZ2       1529            0.0000000000
      7718      2573  TIP3      H1             14.8411596015      -12.2601957466      -20.0212546635  WZ2       1529            0.0000000000
      7719      2573  TIP3      H2             15.3299696015      -11.9418257466      -18.6242546635  WZ2       1529            0.0000000000
      7720      2574  TIP3      OH2            13.7119496015      -15.3770457466      -20.7516346635  WZ2       1530            0.0000000000
      7721      2574  TIP3      H1             13.8083896015      -14.7103457466      -21.4316646635  WZ2       1530            0.0000000000
      7722      2574  TIP3      H2             13.5719096015      -16.1924157466      -21.2330846635  WZ2       1530            0.0000000000
      7723      2575  TIP3      OH2            12.8814196015      -13.9968057466      -15.1306046635  WZ2       1531            0.0000000000
      7724      2575  TIP3      H1             12.7312996015      -14.9419457466      -15.1508246635  WZ2       1531            0.0000000000
      7725      2575  TIP3      H2             12.5278696015      -13.7156657466      -14.2866946635  WZ2       1531            0.0000000000
      7726      2576  TIP3      OH2            -2.0833403985      -11.9185857466      -11.1202246635  WZ2       1532            0.0000000000
      7727      2576  TIP3      H1             -1.8990503985      -12.0004157466      -12.0559346635  WZ2       1532            0.0000000000
      7728      2576  TIP3      H2             -1.2340503985      -12.0428857466      -10.6965846635  WZ2       1532            0.0000000000
      7729      2577  TIP3      OH2            13.7377096015      -12.0264757466       -5.4917746635  WZ2       1533            0.0000000000
      7730      2577  TIP3      H1             14.3204396015      -12.7612457466       -5.3000546635  WZ2       1533            0.0000000000
      7731      2577  TIP3      H2             14.3016396015      -11.2544457466       -5.4451946635  WZ2       1533            0.0000000000
      7732      2578  TIP3      OH2            15.2344196015      -14.1238957466       -4.8072346635  WZ2       1534            0.0000000000
      7733      2578  TIP3      H1             14.3710896015      -14.5026857466       -4.9727646635  WZ2       1534            0.0000000000
      7734      2578  TIP3      H2             15.8387896015      -14.8624157466       -4.8816546635  WZ2       1534            0.0000000000
      7735      2579  TIP3      OH2            12.9593296015      -17.9690657466      -21.6340846635  WZ2       1535            0.0000000000
      7736      2579  TIP3      H1             13.5699096015      -18.3403857466      -20.9972646635  WZ2       1535            0.0000000000
      7737      2579  TIP3      H2             12.1224796015      -18.3903757466      -21.4380846635  WZ2       1535            0.0000000000
      7738      2580  TIP3      OH2            12.5918996015      -16.4142257466      -16.6680946635  WZ2       1536            0.0000000000
      7739      2580  TIP3      H1             12.8716096015      -17.3211857466      -16.5439246635  WZ2       1536            0.0000000000
      7740      2580  TIP3      H2             13.3510696015      -15.9800757466      -17.0571746635  WZ2       1536            0.0000000000
      7741      2581  TIP3      OH2            13.2037296015      -15.8324857466      -11.2322046635  WZ2       1537            0.0000000000
      7742      2581  TIP3      H1             14.1365296015      -15.6204957466      -11.2666046635  WZ2       1537            0.0000000000
      7743      2581  TIP3      H2             12.9684796015      -15.7312757466      -10.3099046635  WZ2       1537            0.0000000000
      7744      2582  TIP3      OH2            13.2329196015      -15.0959557466       -8.4562646635  WZ2       1538            0.0000000000
      7745      2582  TIP3      H1             12.3900496015      -14.8279157466       -8.0902846635  WZ2       1538            0.0000000000
      7746      2582  TIP3      H2             13.6753496015      -14.2737657466       -8.6671546635  WZ2       1538            0.0000000000
      7747      2583  TIP3      OH2            -2.4858603985      -16.6480857466       -4.9793446635  WZ2       1539            0.0000000000
      7748      2583  TIP3      H1             -1.5663703985      -16.7702557466       -4.7430346635  WZ2       1539            0.0000000000
      7749      2583  TIP3      H2             -2.9354103985      -17.3981157466       -4.5899946635  WZ2       1539            0.0000000000
      7750      2584  TIP3      OH2            15.5160796015      -21.1159357466       -3.1027646635  WZ2       1540            0.0000000000
      7751      2584  TIP3      H1             15.8657796015      -21.7695857466       -3.7082946635  WZ2       1540            0.0000000000
      7752      2584  TIP3      H2             15.6630296015      -20.2785257466       -3.5425046635  WZ2       1540            0.0000000000
      7753      2585  TIP3      OH2            13.2053796015      -19.1512957466      -16.6198946635  WZ2       1541            0.0000000000
      7754      2585  TIP3      H1             13.3878796015      -19.6001457466      -15.7943946635  WZ2       1541            0.0000000000
      7755      2585  TIP3      H2             12.6056696015      -19.7358557466      -17.0834346635  WZ2       1541            0.0000000000
      7756      2586  TIP3      OH2            -1.2646103985      -18.3359257466      -12.0880546635  WZ2       1542            0.0000000000
      7757      2586  TIP3      H1             -0.8194503985      -19.1276757466      -11.7860846635  WZ2       1542            0.0000000000
      7758      2586  TIP3      H2             -0.7983103985      -17.6194057466      -11.6574946635  WZ2       1542            0.0000000000
      7759      2587  TIP3      OH2            -2.9605803985      -15.3366257466      -11.0190346635  WZ2       1543            0.0000000000
      7760      2587  TIP3      H1             -2.4686003985      -15.5575757466      -11.8098346635  WZ2       1543            0.0000000000
      7761      2587  TIP3      H2             -2.5984903985      -14.4962857466      -10.7380846635  WZ2       1543            0.0000000000
      7762      2588  TIP3      OH2            15.0357996015      -19.0064757466       -4.7536346635  WZ2       1544            0.0000000000
      7763      2588  TIP3      H1             14.1183696015      -18.7357657466       -4.7892846635  WZ2       1544            0.0000000000
      7764      2588  TIP3      H2             15.1587396015      -19.5416357466       -5.5376646635  WZ2       1544            0.0000000000
      7765      2589  TIP3      OH2            15.0719996015      -19.0834857466      -20.0918646635  WZ2       1545            0.0000000000
      7766      2589  TIP3      H1             15.4842596015      -19.8049157466      -20.5670646635  WZ2       1545            0.0000000000
      7767      2589  TIP3      H2             15.7536496015      -18.4140257466      -20.0334346635  WZ2       1545            0.0000000000
      7768      2590  TIP3      OH2            -2.6469303985      -19.0787157466      -16.9647946635  WZ2       1546            0.0000000000
      7769      2590  TIP3      H1             -3.5720903985      -18.8700557466      -17.0942446635  WZ2       1546            0.0000000000
      7770      2590  TIP3      H2             -2.1929403985      -18.5946357466      -17.6545646635  WZ2       1546            0.0000000000
      7771      2591  TIP3      OH2            12.1237896015       -4.0945457466      -15.0190546635  WZ2       1547            0.0000000000
      7772      2591  TIP3      H1             12.7760796015       -4.4423357466      -15.6271446635  WZ2       1547            0.0000000000
      7773      2591  TIP3      H2             12.6341696015       -3.6062257466      -14.3730846635  WZ2       1547            0.0000000000
      7774      2592  TIP3      OH2            -2.6833903985      -20.3408157466       -8.6205446635  WZ2       1548            0.0000000000
      7775      2592  TIP3      H1             -3.3483403985      -20.5867857466       -7.9774546635  WZ2       1548            0.0000000000
      7776      2592  TIP3      H2             -3.1262603985      -19.7187757466       -9.1977446635  WZ2       1548            0.0000000000
      7777      2593  TIP3      OH2            -0.4914603985       -7.1654057466       -4.4759646635  WZ2       1549            0.0000000000
      7778      2593  TIP3      H1             -1.3122103985       -6.9907557466       -4.9364946635  WZ2       1549            0.0000000000
      7779      2593  TIP3      H2             -0.7436803985       -7.2389357466       -3.5555246635  WZ2       1549            0.0000000000
      7780      2594  TIP3      OH2             2.4628296015       -6.1912857466       -8.2175646635  WZ2       1550            0.0000000000
      7781      2594  TIP3      H1              2.0379396015       -5.3814357466       -8.5001046635  WZ2       1550            0.0000000000
      7782      2594  TIP3      H2              3.3671096015       -6.1058757466       -8.5195846635  WZ2       1550            0.0000000000
      7783      2595  TIP3      OH2             6.7739696015       -4.7922857466       -5.2581946635  WZ2       1551            0.0000000000
      7784      2595  TIP3      H1              6.9587196015       -5.1256757466       -4.3801646635  WZ2       1551            0.0000000000
      7785      2595  TIP3      H2              7.6204196015       -4.4824257466       -5.5802746635  WZ2       1551            0.0000000000
      7786      2596  TIP3      OH2             9.1190096015       -3.5063957466       -6.0140546635  WZ2       1552            0.0000000000
      7787      2596  TIP3      H1              9.7958996015       -4.1391657466       -6.2541346635  WZ2       1552            0.0000000000
      7788      2596  TIP3      H2              9.4408896015       -3.1053457466       -5.2067246635  WZ2       1552            0.0000000000
      7789      2597  TIP3      OH2            14.0363896015      -20.9168457466       -6.9345546635  WZ2       1553            0.0000000000
      7790      2597  TIP3      H1             13.2237396015      -20.5918157466       -7.3220846635  WZ2       1553            0.0000000000
      7791      2597  TIP3      H2             14.2692396015      -21.6769957466       -7.4676446635  WZ2       1553            0.0000000000
      7792      2598  TIP3      OH2            -0.1355003985       -2.9348957466       -8.1700346635  WZ2       1554            0.0000000000
      7793      2598  TIP3      H1             -0.8558603985       -2.4947957466       -8.6212646635  WZ2       1554            0.0000000000
      7794      2598  TIP3      H2             -0.5011003985       -3.1854257466       -7.3216346635  WZ2       1554            0.0000000000
      7795      2599  TIP3      OH2             2.3317596015       -3.3345057466       -9.1403146635  WZ2       1555            0.0000000000
      7796      2599  TIP3      H1              1.4669796015       -3.2626557466       -8.7363046635  WZ2       1555            0.0000000000
      7797      2599  TIP3      H2              2.2766596015       -2.7877757466       -9.9240646635  WZ2       1555            0.0000000000
      7798      2600  TIP3      OH2             7.0423196015       -3.4466157466       -9.9647146635  WZ2       1556            0.0000000000
      7799      2600  TIP3      H1              6.5857196015       -2.9176457466      -10.6188746635  WZ2       1556            0.0000000000
      7800      2600  TIP3      H2              7.2051196015       -2.8434757466       -9.2394846635  WZ2       1556            0.0000000000
      7801      2601  TIP3      OH2             9.3699496015       -4.5686557466       -9.0196846635  WZ2       1557            0.0000000000
      7802      2601  TIP3      H1              8.4653196015       -4.4036357466       -9.2854746635  WZ2       1557            0.0000000000
      7803      2601  TIP3      H2              9.7988096015       -3.7154357466       -9.0853446635  WZ2       1557            0.0000000000
      7804      2602  TIP3      OH2            11.9741396015       -2.9987457466       -8.7249046635  WZ2       1558            0.0000000000
      7805      2602  TIP3      H1             11.7923396015       -2.0828557466       -8.9354146635  WZ2       1558            0.0000000000
      7806      2602  TIP3      H2             12.1509196015       -3.4090357466       -9.5714446635  WZ2       1558            0.0000000000
      7807      2603  TIP3      OH2            -0.7206903985       -4.3116457466      -11.2598546635  WZ2       1559            0.0000000000
      7808      2603  TIP3      H1             -0.7390903985       -4.7371357466      -10.4026246635  WZ2       1559            0.0000000000
      7809      2603  TIP3      H2              0.0840996015       -4.6301457466      -11.6686346635  WZ2       1559            0.0000000000
      7810      2604  TIP3      OH2             1.4206196015       -5.6017757466      -12.6048646635  WZ2       1560            0.0000000000
      7811      2604  TIP3      H1              1.2016896015       -6.5180357466      -12.4352646635  WZ2       1560            0.0000000000
      7812      2604  TIP3      H2              2.2448396015       -5.4617357466      -12.1387246635  WZ2       1560            0.0000000000
      7813      2605  TIP3      OH2             3.9578696015       -5.1318457466      -11.7560646635  WZ2       1561            0.0000000000
      7814      2605  TIP3      H1              4.1704396015       -6.0199457466      -12.0429746635  WZ2       1561            0.0000000000
      7815      2605  TIP3      H2              4.0223796015       -5.1660757466      -10.8016646635  WZ2       1561            0.0000000000
      7816      2606  TIP3      OH2             7.4662396015      -19.4677857466      -12.6117346635  WZ2       1562            0.0000000000
      7817      2606  TIP3      H1              6.7919196015      -20.0972257466      -12.3561546635  WZ2       1562            0.0000000000
      7818      2606  TIP3      H2              8.0301596015      -19.9518957466      -13.2149446635  WZ2       1562            0.0000000000
      7819      2607  TIP3      OH2            12.6089596015      -21.3603857466      -12.4990246635  WZ2       1563            0.0000000000
      7820      2607  TIP3      H1             13.2127196015      -20.8128457466      -13.0009246635  WZ2       1563            0.0000000000
      7821      2607  TIP3      H2             11.7391596015      -21.0413457466      -12.7396146635  WZ2       1563            0.0000000000
      7822      2608  TIP3      OH2            14.3359996015      -20.2215157466      -14.1659346635  WZ2       1564            0.0000000000
      7823      2608  TIP3      H1             14.9477496015      -20.7359457466      -14.6925746635  WZ2       1564            0.0000000000
      7824      2608  TIP3      H2             14.7183396015      -19.3443057466      -14.1424946635  WZ2       1564            0.0000000000
      7825      2609  TIP3      OH2            -0.2070103985      -20.8337557466      -14.7897446635  WZ2       1565            0.0000000000
      7826      2609  TIP3      H1             -0.9840303985      -21.0682657466      -15.2971546635  WZ2       1565            0.0000000000
      7827      2609  TIP3      H2              0.3233496015      -21.6305457466      -14.7809446635  WZ2       1565            0.0000000000
      7828      2610  TIP3      OH2            -1.3706703985      -21.0359457466      -18.9861346635  WZ2       1566            0.0000000000
      7829      2610  TIP3      H1             -0.9316003985      -20.4248957466      -19.5777846635  WZ2       1566            0.0000000000
      7830      2610  TIP3      H2             -2.0044303985      -20.4975357466      -18.5121346635  WZ2       1566            0.0000000000
      7831      2611  TIP3      OH2             4.3722496015      -20.9070457466      -14.9764346635  WZ2       1567            0.0000000000
      7832      2611  TIP3      H1              5.2465896015      -20.5186157466      -15.0060046635  WZ2       1567            0.0000000000
      7833      2611  TIP3      H2              4.2363296015      -21.1222657466      -14.0537146635  WZ2       1567            0.0000000000
      7834      2612  TIP3      OH2             9.9290896015      -20.8770657466      -13.3272646635  WZ2       1568            0.0000000000
      7835      2612  TIP3      H1             10.0052496015      -20.7819057466      -14.2766646635  WZ2       1568            0.0000000000
      7836      2612  TIP3      H2              9.6540096015      -21.7847757466      -13.1983546635  WZ2       1568            0.0000000000
      7837      2613  TIP3      OH2            11.2823496015      -20.8512857466      -17.6347646635  WZ2       1569            0.0000000000
      7838      2613  TIP3      H1             10.5794596015      -20.2363657466      -17.8446246635  WZ2       1569            0.0000000000
      7839      2613  TIP3      H2             10.8374896015      -21.6886157466      -17.5036746635  WZ2       1569            0.0000000000
      7840      2614  TIP3      OH2            -1.4697203985       -5.0877257466      -18.0886246635  WZ2       1570            0.0000000000
      7841      2614  TIP3      H1             -2.1547303985       -5.1258357466      -18.7561146635  WZ2       1570            0.0000000000
      7842      2614  TIP3      H2             -1.4660003985       -4.1749657466      -17.8004146635  WZ2       1570            0.0000000000
      7843      2615  TIP3      OH2             0.4902396015      -19.1197957466      -20.5437246635  WZ2       1571            0.0000000000
      7844      2615  TIP3      H1              0.9815796015      -19.7495557466      -21.0711746635  WZ2       1571            0.0000000000
      7845      2615  TIP3      H2              1.1138696015      -18.8238557466      -19.8806046635  WZ2       1571            0.0000000000
      7846      2616  TIP3      OH2             5.5162496015      -18.8266457466      -18.0866746635  WZ2       1572            0.0000000000
      7847      2616  TIP3      H1              5.6943796015      -19.4733257466      -17.4038146635  WZ2       1572            0.0000000000
      7848      2616  TIP3      H2              5.4628696015      -17.9928757466      -17.6195646635  WZ2       1572            0.0000000000
      7849      2617  TIP3      OH2             7.3946296015       -3.8782357466      -19.6910046635  WZ2       1573            0.0000000000
      7850      2617  TIP3      H1              8.2606496015       -3.5114957466      -19.8691846635  WZ2       1573            0.0000000000
      7851      2617  TIP3      H2              7.1479096015       -4.3174357466      -20.5049246635  WZ2       1573            0.0000000000
      7852      2618  TIP3      OH2            14.1035896015       -4.3152057466      -17.0118946635  WZ2       1574            0.0000000000
      7853      2618  TIP3      H1             13.9092996015       -5.0629957466      -17.5769346635  WZ2       1574            0.0000000000
      7854      2618  TIP3      H2             14.0645996015       -3.5571957466      -17.5951046635  WZ2       1574            0.0000000000
      7855      2619  TIP3      OH2            -0.2492103985      -20.3195657466       -5.2721246635  WZ2       1575            0.0000000000
      7856      2619  TIP3      H1             -0.6153903985      -21.0853057466       -4.8296546635  WZ2       1575            0.0000000000
      7857      2619  TIP3      H2              0.6636396015      -20.2905457466       -4.9856146635  WZ2       1575            0.0000000000
      7858      2620  TIP3      OH2             1.7238696015      -20.9691257466       -3.7364146635  WZ2       1576            0.0000000000
      7859      2620  TIP3      H1              2.6222296015      -21.2431057466       -3.9210746635  WZ2       1576            0.0000000000
      7860      2620  TIP3      H2              1.3371796015      -21.7115257466       -3.2721546635  WZ2       1576            0.0000000000
      7861      2621  TIP3      OH2             0.3483996015       -4.1676457466      -21.0634146635  WZ2       1577            0.0000000000
      7862      2621  TIP3      H1              0.0808596015       -3.8813557466      -20.1901046635  WZ2       1577            0.0000000000
      7863      2621  TIP3      H2              1.1196596015       -4.7137257466      -20.9111646635  WZ2       1577            0.0000000000
      7864      2622  TIP3      OH2            10.1450996015      -21.6365957466       -3.5541346635  WZ2       1578            0.0000000000
      7865      2622  TIP3      H1             10.2218196015      -22.0625257466       -2.7003646635  WZ2       1578            0.0000000000
      7866      2622  TIP3      H2             11.0387596015      -21.6231257466       -3.8967846635  WZ2       1578            0.0000000000
      7867      2623  TIP3      OH2            13.3212096015       -5.5639657466       -4.8617146635  WZ2       1579            0.0000000000
      7868      2623  TIP3      H1             12.5393996015       -5.7501657466       -5.3816546635  WZ2       1579            0.0000000000
      7869      2623  TIP3      H2             13.2491996015       -4.6345357466       -4.6444646635  WZ2       1579            0.0000000000
      7870      2624  TIP3      OH2            27.7272496015      -11.6775257466      -14.8309946635  WZ2       1580            0.0000000000
      7871      2624  TIP3      H1             27.8163596015      -10.7337057466      -14.9632846635  WZ2       1580            0.0000000000
      7872      2624  TIP3      H2             27.0890096015      -11.9528857466      -15.4890546635  WZ2       1580            0.0000000000
      7873      2625  TIP3      OH2            26.6603796015      -12.4224557466      -11.4121746635  WZ2       1581            0.0000000000
      7874      2625  TIP3      H1             26.6221296015      -13.0688257466      -10.7072146635  WZ2       1581            0.0000000000
      7875      2625  TIP3      H2             26.3380296015      -12.8890157466      -12.1833046635  WZ2       1581            0.0000000000
      7876      2626  TIP3      OH2            19.0288796015      -12.8082457466       -9.8191846635  WZ2       1582            0.0000000000
      7877      2626  TIP3      H1             19.0700896015      -13.4339157466       -9.0959446635  WZ2       1582            0.0000000000
      7878      2626  TIP3      H2             19.7316496015      -12.1843857466       -9.6371446635  WZ2       1582            0.0000000000
      7879      2627  TIP3      OH2            30.3663996015       -9.4834157466      -13.1106646635  WZ2       1583            0.0000000000
      7880      2627  TIP3      H1             29.9256696015      -10.2038157466      -12.6601046635  WZ2       1583            0.0000000000
      7881      2627  TIP3      H2             30.3533696015       -8.7626957466      -12.4808946635  WZ2       1583            0.0000000000
      7882      2628  TIP3      OH2            19.9521896015       -8.3583557466      -11.2842746635  WZ2       1584            0.0000000000
      7883      2628  TIP3      H1             19.5827096015       -9.1603057466      -11.6538446635  WZ2       1584            0.0000000000
      7884      2628  TIP3      H2             20.8932996015       -8.5268657466      -11.2379346635  WZ2       1584            0.0000000000
      7885      2629  TIP3      OH2            16.5622396015      -14.6980957466      -15.8913946635  WZ2       1585            0.0000000000
      7886      2629  TIP3      H1             16.1145796015      -13.8522257466      -15.9097446635  WZ2       1585            0.0000000000
      7887      2629  TIP3      H2             16.0013596015      -15.2776757466      -16.4068846635  WZ2       1585            0.0000000000
      7888      2630  TIP3      OH2            17.2728496015      -12.5361357466      -13.7655946635  WZ2       1586            0.0000000000
      7889      2630  TIP3      H1             17.4861996015      -13.3059757466      -13.2382946635  WZ2       1586            0.0000000000
      7890      2630  TIP3      H2             18.0106096015      -12.4464657466      -14.3688346635  WZ2       1586            0.0000000000
      7891      2631  TIP3      OH2            27.4779496015       -4.3792457466      -12.8986246635  WZ2       1587            0.0000000000
      7892      2631  TIP3      H1             28.0975896015       -5.0557757466      -13.1717046635  WZ2       1587            0.0000000000
      7893      2631  TIP3      H2             27.2696896015       -4.5971657466      -11.9901346635  WZ2       1587            0.0000000000
      7894      2632  TIP3      OH2            25.0498196015       -9.9903157466      -11.0060746635  WZ2       1588            0.0000000000
      7895      2632  TIP3      H1             25.3536096015      -10.6761757466      -11.6006646635  WZ2       1588            0.0000000000
      7896      2632  TIP3      H2             25.7712196015       -9.8714457466      -10.3882746635  WZ2       1588            0.0000000000
      7897      2633  TIP3      OH2            28.1905196015      -15.5960757466      -10.6785946635  WZ2       1590            0.0000000000
      7898      2633  TIP3      H1             28.3331096015      -16.5423757466      -10.6584346635  WZ2       1590            0.0000000000
      7899      2633  TIP3      H2             28.0844196015      -15.3890957466      -11.6071046635  WZ2       1590            0.0000000000
      7900      2634  TIP3      OH2            21.3453496015      -17.4944357466      -13.4061146635  WZ2       1591            0.0000000000
      7901      2634  TIP3      H1             21.3884596015      -16.6345857466      -13.8244846635  WZ2       1591            0.0000000000
      7902      2634  TIP3      H2             20.8877596015      -18.0469657466      -14.0397946635  WZ2       1591            0.0000000000
      7903      2635  TIP3      OH2            29.0676196015      -17.3638757466      -15.0052846635  WZ2       1592            0.0000000000
      7904      2635  TIP3      H1             29.7140496015      -17.6925557466      -14.3805246635  WZ2       1592            0.0000000000
      7905      2635  TIP3      H2             29.5775596015      -16.8459757466      -15.6281446635  WZ2       1592            0.0000000000
      7906      2636  TIP3      OH2            17.9654996015      -15.0978557466      -12.6439746635  WZ2       1593            0.0000000000
      7907      2636  TIP3      H1             18.6191596015      -15.6476857466      -12.2119646635  WZ2       1593            0.0000000000
      7908      2636  TIP3      H2             17.9894296015      -15.3719557466      -13.5607746635  WZ2       1593            0.0000000000
      7909      2637  TIP3      OH2            23.1219496015      -13.5477257466      -13.4288246635  WZ2       1594            0.0000000000
      7910      2637  TIP3      H1             23.7380496015      -14.0741857466      -12.9194246635  WZ2       1594            0.0000000000
      7911      2637  TIP3      H2             22.5358296015      -14.1878557466      -13.8324646635  WZ2       1594            0.0000000000
      7912      2638  TIP3      OH2            20.1555396015      -18.5765957466       -9.3320346635  WZ2       1596            0.0000000000
      7913      2638  TIP3      H1             19.9367096015      -18.0465357466      -10.0984346635  WZ2       1596            0.0000000000
      7914      2638  TIP3      H2             19.4876296015      -18.3500457466       -8.6848946635  WZ2       1596            0.0000000000
      7915      2639  TIP3      OH2            27.5245196015       -9.0764857466      -15.7881246635  WZ2       1597            0.0000000000
      7916      2639  TIP3      H1             27.2290296015       -9.3992557466      -16.6394346635  WZ2       1597            0.0000000000
      7917      2639  TIP3      H2             27.2002996015       -8.1768157466      -15.7468646635  WZ2       1597            0.0000000000
      7918      2640  TIP3      OH2            22.7246796015      -10.9010257466       -9.0446646635  WZ2       1598            0.0000000000
      7919      2640  TIP3      H1             21.9845896015      -10.3028757466       -8.9411446635  WZ2       1598            0.0000000000
      7920      2640  TIP3      H2             23.4386296015      -10.3470657466       -9.3603046635  WZ2       1598            0.0000000000
      7921      2641  TIP3      OH2            30.8314596015      -18.0729457466      -13.0246946635  WZ2       1599            0.0000000000
      7922      2641  TIP3      H1             30.6162596015      -18.8386057466      -12.4920946635  WZ2       1599            0.0000000000
      7923      2641  TIP3      H2             31.4871996015      -17.6004857466      -12.5118446635  WZ2       1599            0.0000000000
      7924      2642  TIP3      OH2            19.7492696015      -16.6844157466      -11.3798146635  WZ2       1600            0.0000000000
      7925      2642  TIP3      H1             20.3628996015      -16.0516557466      -11.0065746635  WZ2       1600            0.0000000000
      7926      2642  TIP3      H2             20.2613396015      -17.1569157466      -12.0361246635  WZ2       1600            0.0000000000
      7927      2643  TIP3      OH2            21.1321096015       -8.9367257466       -8.2575146635  WZ2       1601            0.0000000000
      7928      2643  TIP3      H1             21.1268696015       -8.0573757466       -8.6355846635  WZ2       1601            0.0000000000
      7929      2643  TIP3      H2             20.2785196015       -9.0203157466       -7.8325246635  WZ2       1601            0.0000000000
      7930      2644  TIP3      OH2            17.2531996015       -9.2659357466      -17.4755846635  WZ2       1602            0.0000000000
      7931      2644  TIP3      H1             16.9812896015       -9.0368357466      -18.3642946635  WZ2       1602            0.0000000000
      7932      2644  TIP3      H2             17.2987696015       -8.4280557466      -17.0150546635  WZ2       1602            0.0000000000
      7933      2645  TIP3      OH2            30.8781696015       -7.6443457466      -10.7627346635  WZ2       1603            0.0000000000
      7934      2645  TIP3      H1             29.9365396015       -7.5859557466      -10.6010446635  WZ2       1603            0.0000000000
      7935      2645  TIP3      H2             31.1547796015       -6.7382957466      -10.8997646635  WZ2       1603            0.0000000000
      7936      2646  TIP3      OH2            31.1788696015      -19.3578157466       -9.3453446635  WZ2       1604            0.0000000000
      7937      2646  TIP3      H1             30.4427896015      -18.7471057466       -9.3832146635  WZ2       1604            0.0000000000
      7938      2646  TIP3      H2             31.8622696015      -18.9429157466       -9.8717046635  WZ2       1604            0.0000000000
      7939      2647  TIP3      OH2            24.1820096015      -21.2710857466      -11.8795446635  WZ2       1605            0.0000000000
      7940      2647  TIP3      H1             24.0644296015      -22.2194857466      -11.9337146635  WZ2       1605            0.0000000000
      7941      2647  TIP3      H2             23.3270196015      -20.9384757466      -11.6064346635  WZ2       1605            0.0000000000
      7942      2648  TIP3      OH2            29.1302896015       -5.8629957466      -14.1375746635  WZ2       1606            0.0000000000
      7943      2648  TIP3      H1             29.5555196015       -6.5702057466      -14.6226146635  WZ2       1606            0.0000000000
      7944      2648  TIP3      H2             29.4472896015       -5.0617257466      -14.5543546635  WZ2       1606            0.0000000000
      7945      2649  TIP3      OH2            30.2899396015       -7.9621457466      -15.6289146635  WZ2       1607            0.0000000000
      7946      2649  TIP3      H1             30.0324196015       -8.6521357466      -16.2403246635  WZ2       1607            0.0000000000
      7947      2649  TIP3      H2             30.3610196015       -8.4050257466      -14.7833246635  WZ2       1607            0.0000000000
      7948      2650  TIP3      OH2            31.9759596015       -9.3954757466       -7.1515646635  WZ2       1608            0.0000000000
      7949      2650  TIP3      H1             32.1155896015       -9.9872257466       -7.8908646635  WZ2       1608            0.0000000000
      7950      2650  TIP3      H2             32.1432396015       -8.5228857466       -7.5076846635  WZ2       1608            0.0000000000
      7951      2651  TIP3      OH2            26.4484996015      -12.4335257466      -17.3789646635  WZ2       1609            0.0000000000
      7952      2651  TIP3      H1             25.7370496015      -11.8985557466      -17.7309146635  WZ2       1609            0.0000000000
      7953      2651  TIP3      H2             27.1394596015      -12.3783157466      -18.0390746635  WZ2       1609            0.0000000000
      7954      2652  TIP3      OH2            26.5024196015      -13.9760957466      -20.3404646635  WZ2       1610            0.0000000000
      7955      2652  TIP3      H1             27.2034096015      -13.9534057466      -19.6890646635  WZ2       1610            0.0000000000
      7956      2652  TIP3      H2             26.8047096015      -14.6041257466      -20.9965346635  WZ2       1610            0.0000000000
      7957      2653  TIP3      OH2            33.8178896015      -13.0556757466       -9.0855246635  WZ2       1611            0.0000000000
      7958      2653  TIP3      H1             33.1652996015      -12.3611157466       -8.9964346635  WZ2       1611            0.0000000000
      7959      2653  TIP3      H2             34.2829196015      -12.8455857466       -9.8953646635  WZ2       1611            0.0000000000
      7960      2654  TIP3      OH2            29.8542696015      -12.2241957466      -16.4273746635  WZ2       1612            0.0000000000
      7961      2654  TIP3      H1             29.1223696015      -11.9958257466      -15.8543146635  WZ2       1612            0.0000000000
      7962      2654  TIP3      H2             30.3014896015      -12.9379257466      -15.9726246635  WZ2       1612            0.0000000000
      7963      2655  TIP3      OH2            29.7516196015      -14.0499357466       -7.3596746635  WZ2       1613            0.0000000000
      7964      2655  TIP3      H1             29.8315296015      -13.2864957466       -6.7878246635  WZ2       1613            0.0000000000
      7965      2655  TIP3      H2             29.1503896015      -13.7706957466       -8.0501646635  WZ2       1613            0.0000000000
      7966      2656  TIP3      OH2            21.4996396015      -11.5935757466      -14.5448746635  WZ2       1614            0.0000000000
      7967      2656  TIP3      H1             21.1691596015      -11.9642357466      -15.3631746635  WZ2       1614            0.0000000000
      7968      2656  TIP3      H2             22.0880496015      -12.2641757466      -14.1980446635  WZ2       1614            0.0000000000
      7969      2657  TIP3      OH2            22.8663896015       -8.1655157466      -11.8636546635  WZ2       1615            0.0000000000
      7970      2657  TIP3      H1             22.7715196015       -8.7442057466      -12.6201946635  WZ2       1615            0.0000000000
      7971      2657  TIP3      H2             23.5957496015       -8.5369457466      -11.3673746635  WZ2       1615            0.0000000000
      7972      2658  TIP3      OH2            21.8661896015      -12.8250157466      -10.9113746635  WZ2       1616            0.0000000000
      7973      2658  TIP3      H1             22.4314396015      -12.7035957466      -11.6742546635  WZ2       1616            0.0000000000
      7974      2658  TIP3      H2             22.1850796015      -12.1875157466      -10.2725246635  WZ2       1616            0.0000000000
      7975      2659  TIP3      OH2            28.1754096015       -7.3218257466      -10.1773246635  WZ2       1617            0.0000000000
      7976      2659  TIP3      H1             27.9350696015       -6.6595157466       -9.5294046635  WZ2       1617            0.0000000000
      7977      2659  TIP3      H2             27.9772296015       -8.1563057466       -9.7523646635  WZ2       1617            0.0000000000
      7978      2660  TIP3      OH2            22.7462596015       -8.4257457466       -6.1941846635  WZ2       1618            0.0000000000
      7979      2660  TIP3      H1             22.4350096015       -7.6434257466       -5.7388646635  WZ2       1618            0.0000000000
      7980      2660  TIP3      H2             22.0962796015       -8.5788357466       -6.8799846635  WZ2       1618            0.0000000000
      7981      2661  TIP3      OH2            28.7252196015      -13.0619057466      -18.7422546635  WZ2       1619            0.0000000000
      7982      2661  TIP3      H1             29.3047696015      -12.9118757466      -17.9953646635  WZ2       1619            0.0000000000
      7983      2661  TIP3      H2             29.1392196015      -12.5911657466      -19.4656146635  WZ2       1619            0.0000000000
      7984      2662  TIP3      OH2            19.6662496015      -12.2276357466       -6.9656146635  WZ2       1620            0.0000000000
      7985      2662  TIP3      H1             19.7365696015      -11.5769557466       -6.2671146635  WZ2       1620            0.0000000000
      7986      2662  TIP3      H2             18.7754696015      -12.1248857466       -7.3005246635  WZ2       1620            0.0000000000
      7987      2663  TIP3      OH2            26.4517096015       -6.3250557466      -15.3069446635  WZ2       1621            0.0000000000
      7988      2663  TIP3      H1             26.9254696015       -6.0294257466      -14.5295246635  WZ2       1621            0.0000000000
      7989      2663  TIP3      H2             25.8886396015       -5.5868957466      -15.5399846635  WZ2       1621            0.0000000000
      7990      2664  TIP3      OH2            20.9858496015       -6.3542457466       -5.4308046635  WZ2       1622            0.0000000000
      7991      2664  TIP3      H1             20.9933796015       -6.4902757466       -6.3782546635  WZ2       1622            0.0000000000
      7992      2664  TIP3      H2             20.0698896015       -6.4714357466       -5.1788046635  WZ2       1622            0.0000000000
      7993      2665  TIP3      OH2            20.4899096015      -12.5241457466      -16.9555946635  WZ2       1624            0.0000000000
      7994      2665  TIP3      H1             20.1980396015      -11.7559757466      -17.4464646635  WZ2       1624            0.0000000000
      7995      2665  TIP3      H2             19.8154296015      -13.1835257466      -17.1184546635  WZ2       1624            0.0000000000
      7996      2666  TIP3      OH2            33.6131996015       -6.9456257466      -20.5528946635  WZ2       1625            0.0000000000
      7997      2666  TIP3      H1             33.6865496015       -6.0066057466      -20.3823646635  WZ2       1625            0.0000000000
      7998      2666  TIP3      H2             34.5187096015       -7.2507657466      -20.6091646635  WZ2       1625            0.0000000000
      7999      2667  TIP3      OH2            16.5829196015      -10.1612257466       -8.1406146635  WZ2       1626            0.0000000000
      8000      2667  TIP3      H1             16.0817596015      -10.1892857466       -8.9556446635  WZ2       1626            0.0000000000
      8001      2667  TIP3      H2             16.5882896015      -11.0669057466       -7.8308846635  WZ2       1626            0.0000000000
      8002      2668  TIP3      OH2            16.3331896015       -7.3808457466      -11.2565946635  WZ2       1627            0.0000000000
      8003      2668  TIP3      H1             17.2792496015       -7.5251457466      -11.2756446635  WZ2       1627            0.0000000000
      8004      2668  TIP3      H2             16.2208196015       -6.5965657466      -10.7194746635  WZ2       1627            0.0000000000
      8005      2669  TIP3      OH2            34.5310396015       -6.7148757466       -5.5742246635  WZ2       1628            0.0000000000
      8006      2669  TIP3      H1             34.4817196015       -7.6700657466       -5.6114646635  WZ2       1628            0.0000000000
      8007      2669  TIP3      H2             33.7042696015       -6.4473457466       -5.1728446635  WZ2       1628            0.0000000000
      8008      2670  TIP3      OH2            25.5094396015       -7.1409557466       -6.6980846635  WZ2       1629            0.0000000000
      8009      2670  TIP3      H1             25.5968996015       -6.3144957466       -6.2231746635  WZ2       1629            0.0000000000
      8010      2670  TIP3      H2             24.6459496015       -7.4705757466       -6.4491546635  WZ2       1629            0.0000000000
      8011      2671  TIP3      OH2            25.9240196015       -3.3685857466      -16.8920246635  WZ2       1630            0.0000000000
      8012      2671  TIP3      H1             25.8486196015       -3.4898657466      -17.8385046635  WZ2       1630            0.0000000000
      8013      2671  TIP3      H2             25.9568896015       -2.4193157466      -16.7735646635  WZ2       1630            0.0000000000
      8014      2672  TIP3      OH2            19.5773996015       -4.5798857466      -15.1111246635  WZ2       1631            0.0000000000
      8015      2672  TIP3      H1             19.7294396015       -4.9278457466      -14.2324746635  WZ2       1631            0.0000000000
      8016      2672  TIP3      H2             18.7264396015       -4.9361557466      -15.3664046635  WZ2       1631            0.0000000000
      8017      2673  TIP3      OH2            29.0256196015       -4.2145657466      -19.8897846635  WZ2       1632            0.0000000000
      8018      2673  TIP3      H1             29.4004596015       -4.9589557466      -20.3605246635  WZ2       1632            0.0000000000
      8019      2673  TIP3      H2             29.0299896015       -4.4845057466      -18.9714546635  WZ2       1632            0.0000000000
      8020      2674  TIP3      OH2            28.6944296015       -4.2888557466      -17.1405646635  WZ2       1633            0.0000000000
      8021      2674  TIP3      H1             27.7594096015       -4.1886657466      -16.9618646635  WZ2       1633            0.0000000000
      8022      2674  TIP3      H2             28.9746196015       -4.9982557466      -16.5622446635  WZ2       1633            0.0000000000
      8023      2675  TIP3      OH2            31.6830196015      -15.2216257466       -5.0940046635  WZ2       1634            0.0000000000
      8024      2675  TIP3      H1             31.2756996015      -14.7410657466       -5.8146746635  WZ2       1634            0.0000000000
      8025      2675  TIP3      H2             31.7235896015      -16.1270257466       -5.4019246635  WZ2       1634            0.0000000000
      8026      2676  TIP3      OH2            18.8319696015       -8.8376857466       -7.0973346635  WZ2       1635            0.0000000000
      8027      2676  TIP3      H1             19.0480996015       -9.1991257466       -6.2377546635  WZ2       1635            0.0000000000
      8028      2676  TIP3      H2             17.9764396015       -9.2123057466       -7.3069846635  WZ2       1635            0.0000000000
      8029      2677  TIP3      OH2            21.4507696015      -20.3676357466      -11.1019146635  WZ2       1636            0.0000000000
      8030      2677  TIP3      H1             20.5891396015      -20.4548157466      -11.5096246635  WZ2       1636            0.0000000000
      8031      2677  TIP3      H2             21.4283396015      -19.5116257466      -10.6741546635  WZ2       1636            0.0000000000
      8032      2678  TIP3      OH2            26.1135496015      -20.6455957466       -7.7272146635  WZ2       1637            0.0000000000
      8033      2678  TIP3      H1             26.5338596015      -21.0608857466       -6.9741546635  WZ2       1637            0.0000000000
      8034      2678  TIP3      H2             25.1805096015      -20.8242657466       -7.6100146635  WZ2       1637            0.0000000000
      8035      2679  TIP3      OH2            29.4400396015      -16.8900757466       -6.8737646635  WZ2       1638            0.0000000000
      8036      2679  TIP3      H1             28.9259896015      -17.0158557466       -6.0761646635  WZ2       1638            0.0000000000
      8037      2679  TIP3      H2             29.2845096015      -15.9777657466       -7.1181446635  WZ2       1638            0.0000000000
      8038      2680  TIP3      OH2            30.2025296015      -12.0290757466      -21.1124646635  WZ2       1639            0.0000000000
      8039      2680  TIP3      H1             30.2446096015      -12.2516857466      -22.0424646635  WZ2       1639            0.0000000000
      8040      2680  TIP3      H2             31.0517396015      -11.6303657466      -20.9224746635  WZ2       1639            0.0000000000
      8041      2681  TIP3      OH2            25.7752796015      -18.1532557466      -20.4421346635  WZ2       1640            0.0000000000
      8042      2681  TIP3      H1             25.5217596015      -18.1340957466      -19.5193246635  WZ2       1640            0.0000000000
      8043      2681  TIP3      H2             25.5184896015      -19.0247157466      -20.7435146635  WZ2       1640            0.0000000000
      8044      2682  TIP3      OH2            21.5417796015      -15.4021857466      -10.0068946635  WZ2       1641            0.0000000000
      8045      2682  TIP3      H1             20.8999896015      -15.4424557466       -9.2978846635  WZ2       1641            0.0000000000
      8046      2682  TIP3      H2             21.5789796015      -14.4757157466      -10.2445946635  WZ2       1641            0.0000000000
      8047      2683  TIP3      OH2            21.5386896015      -15.1811757466      -15.0948946635  WZ2       1642            0.0000000000
      8048      2683  TIP3      H1             20.6459796015      -15.5215657466      -15.1535146635  WZ2       1642            0.0000000000
      8049      2683  TIP3      H2             21.9893496015      -15.5580857466      -15.8505746635  WZ2       1642            0.0000000000
      8050      2684  TIP3      OH2            27.0742396015      -14.7651457466      -16.2778146635  WZ2       1643            0.0000000000
      8051      2684  TIP3      H1             26.6652696015      -13.9502857466      -16.5693346635  WZ2       1643            0.0000000000
      8052      2684  TIP3      H2             27.7948596015      -14.9051357466      -16.8921046635  WZ2       1643            0.0000000000
      8053      2685  TIP3      OH2            26.1763996015      -14.5895057466       -4.7897446635  WZ2       1644            0.0000000000
      8054      2685  TIP3      H1             25.6137796015      -15.2943457466       -4.4689646635  WZ2       1644            0.0000000000
      8055      2685  TIP3      H2             27.0027396015      -14.7103157466       -4.3219846635  WZ2       1644            0.0000000000
      8056      2686  TIP3      OH2            28.0790096015      -15.3191057466      -13.4638446635  WZ2       1645            0.0000000000
      8057      2686  TIP3      H1             27.8834596015      -14.7134257466      -14.1787846635  WZ2       1645            0.0000000000
      8058      2686  TIP3      H2             28.2602696015      -16.1525857466      -13.8982146635  WZ2       1645            0.0000000000
      8059      2687  TIP3      OH2            19.2918296015      -15.0818357466       -8.1396946635  WZ2       1646            0.0000000000
      8060      2687  TIP3      H1             19.2537696015      -14.6816757466       -7.2709846635  WZ2       1646            0.0000000000
      8061      2687  TIP3      H2             18.8009396015      -15.8985957466       -8.0494046635  WZ2       1646            0.0000000000
      8062      2688  TIP3      OH2            22.6575696015      -17.7076057466      -21.3410946635  WZ2       1647            0.0000000000
      8063      2688  TIP3      H1             22.2266396015      -18.1525957466      -20.6113546635  WZ2       1647            0.0000000000
      8064      2688  TIP3      H2             21.9394396015      -17.3359757466      -21.8533446635  WZ2       1647            0.0000000000
      8065      2689  TIP3      OH2            15.8999096015      -17.9656557466      -14.2892246635  WZ2       1648            0.0000000000
      8066      2689  TIP3      H1             16.5306796015      -17.9944457466      -13.5698346635  WZ2       1648            0.0000000000
      8067      2689  TIP3      H2             16.3493396015      -18.3907857466      -15.0196346635  WZ2       1648            0.0000000000
      8068      2690  TIP3      OH2            17.1741196015      -17.2194557466      -18.8651846635  WZ2       1649            0.0000000000
      8069      2690  TIP3      H1             17.6482896015      -16.6284657466      -19.4500946635  WZ2       1649            0.0000000000
      8070      2690  TIP3      H2             16.4567596015      -16.6891657466      -18.5181746635  WZ2       1649            0.0000000000
      8071      2691  TIP3      OH2            27.3429296015      -13.6809757466       -8.7926046635  WZ2       1650            0.0000000000
      8072      2691  TIP3      H1             27.6664096015      -14.3120057466       -9.4355546635  WZ2       1650            0.0000000000
      8073      2691  TIP3      H2             26.9028596015      -14.2157557466       -8.1318646635  WZ2       1650            0.0000000000
      8074      2692  TIP3      OH2            24.1202196015      -17.7534257466      -14.0084846635  WZ2       1651            0.0000000000
      8075      2692  TIP3      H1             23.2093296015      -17.6967457466      -13.7198846635  WZ2       1651            0.0000000000
      8076      2692  TIP3      H2             24.6255096015      -17.8138757466      -13.1977646635  WZ2       1651            0.0000000000
      8077      2693  TIP3      OH2            18.9485596015      -16.1247957466      -15.1817246635  WZ2       1652            0.0000000000
      8078      2693  TIP3      H1             18.0593596015      -16.0252457466      -15.5217646635  WZ2       1652            0.0000000000
      8079      2693  TIP3      H2             19.2450496015      -16.9664957466      -15.5279346635  WZ2       1652            0.0000000000
      8080      2694  TIP3      OH2            22.6017396015      -16.1245357466      -17.5252646635  WZ2       1653            0.0000000000
      8081      2694  TIP3      H1             23.5332896015      -15.9955357466      -17.3469546635  WZ2       1653            0.0000000000
      8082      2694  TIP3      H2             22.3867696015      -15.4551057466      -18.1747946635  WZ2       1653            0.0000000000
      8083      2695  TIP3      OH2            28.5254096015      -18.5187957466      -10.7443046635  WZ2       1654            0.0000000000
      8084      2695  TIP3      H1             27.8485696015      -18.3874857466      -10.0803346635  WZ2       1654            0.0000000000
      8085      2695  TIP3      H2             28.0398996015      -18.6738457466      -11.5545346635  WZ2       1654            0.0000000000
      8086      2696  TIP3      OH2            21.2757596015      -14.9303157466      -19.9586546635  WZ2       1655            0.0000000000
      8087      2696  TIP3      H1             20.7332696015      -15.3099357466      -20.6498946635  WZ2       1655            0.0000000000
      8088      2696  TIP3      H2             22.1092496015      -14.7358457466      -20.3872446635  WZ2       1655            0.0000000000
      8089      2697  TIP3      OH2            31.8129196015       -2.8472557466       -4.4675446635  WZ2       1656            0.0000000000
      8090      2697  TIP3      H1             32.0127896015       -2.4230657466       -5.3020146635  WZ2       1656            0.0000000000
      8091      2697  TIP3      H2             32.4682896015       -2.5034357466       -3.8605046635  WZ2       1656            0.0000000000
      8092      2698  TIP3      OH2            19.4108996015      -10.3731257466       -4.8594946635  WZ2       1657            0.0000000000
      8093      2698  TIP3      H1             20.1431396015      -10.1185357466       -4.2980446635  WZ2       1657            0.0000000000
      8094      2698  TIP3      H2             18.6307696015      -10.1685857466       -4.3439546635  WZ2       1657            0.0000000000
      8095      2699  TIP3      OH2            25.4401896015      -14.9661257466      -12.1215246635  WZ2       1658            0.0000000000
      8096      2699  TIP3      H1             26.0045296015      -15.5124657466      -12.6685646635  WZ2       1658            0.0000000000
      8097      2699  TIP3      H2             25.2925296015      -15.4879357466      -11.3327646635  WZ2       1658            0.0000000000
      8098      2700  TIP3      OH2            20.4421596015      -18.8295157466      -15.7030446635  WZ2       1659            0.0000000000
      8099      2700  TIP3      H1             20.1251096015      -19.7319857466      -15.7385046635  WZ2       1659            0.0000000000
      8100      2700  TIP3      H2             21.2235696015      -18.8277757466      -16.2558846635  WZ2       1659            0.0000000000
      8101      2701  TIP3      OH2            24.0667796015      -16.5775157466       -9.7074846635  WZ2       1660            0.0000000000
      8102      2701  TIP3      H1             23.2313096015      -16.1235657466       -9.5972446635  WZ2       1660            0.0000000000
      8103      2701  TIP3      H2             24.5908396015      -16.3016657466       -8.9554946635  WZ2       1660            0.0000000000
      8104      2702  TIP3      OH2            24.6110396015      -10.3647457466      -18.0228446635  WZ2       1661            0.0000000000
      8105      2702  TIP3      H1             23.8661396015      -10.8722157466      -18.3450546635  WZ2       1661            0.0000000000
      8106      2702  TIP3      H2             24.4767596015      -10.3159457466      -17.0763646635  WZ2       1661            0.0000000000
      8107      2703  TIP3      OH2            31.7609296015      -11.2319257466       -9.2360846635  WZ2       1662            0.0000000000
      8108      2703  TIP3      H1             32.4028096015      -10.7752957466       -9.7798646635  WZ2       1662            0.0000000000
      8109      2703  TIP3      H2             30.9306196015      -11.1186857466       -9.6986746635  WZ2       1662            0.0000000000
      8110      2704  TIP3      OH2            28.5087196015      -17.5507557466      -19.8235846635  WZ2       1663            0.0000000000
      8111      2704  TIP3      H1             27.5701396015      -17.4391957466      -19.9747046635  WZ2       1663            0.0000000000
      8112      2704  TIP3      H2             28.8059296015      -16.6940657466      -19.5170146635  WZ2       1663            0.0000000000
      8113      2705  TIP3      OH2            26.1302496015      -10.1804157466       -6.7859346635  WZ2       1664            0.0000000000
      8114      2705  TIP3      H1             25.7848596015      -10.5621757466       -5.9789746635  WZ2       1664            0.0000000000
      8115      2705  TIP3      H2             25.9302596015       -9.2470557466       -6.7146446635  WZ2       1664            0.0000000000
      8116      2706  TIP3      OH2            29.2270696015      -15.6834857466      -18.1628446635  WZ2       1665            0.0000000000
      8117      2706  TIP3      H1             30.1189696015      -15.8209857466      -17.8437246635  WZ2       1665            0.0000000000
      8118      2706  TIP3      H2             29.2834296015      -14.8928757466      -18.6994946635  WZ2       1665            0.0000000000
      8119      2707  TIP3      OH2            19.7358696015      -11.0697457466      -12.2530546635  WZ2       1666            0.0000000000
      8120      2707  TIP3      H1             20.4805896015      -11.0721757466      -12.8544046635  WZ2       1666            0.0000000000
      8121      2707  TIP3      H2             19.8135296015      -11.8933657466      -11.7715446635  WZ2       1666            0.0000000000
      8122      2708  TIP3      OH2            26.7364496015       -8.9063157466      -18.9973846635  WZ2       1667            0.0000000000
      8123      2708  TIP3      H1             26.4412896015       -8.0795257466      -18.6159046635  WZ2       1667            0.0000000000
      8124      2708  TIP3      H2             26.0334496015       -9.5256257466      -18.8012446635  WZ2       1667            0.0000000000
      8125      2709  TIP3      OH2            16.7438396015      -12.6090557466       -6.9382046635  WZ2       1668            0.0000000000
      8126      2709  TIP3      H1             16.9666996015      -13.0270957466       -6.1064546635  WZ2       1668            0.0000000000
      8127      2709  TIP3      H2             16.1418496015      -13.2215557466       -7.3609246635  WZ2       1668            0.0000000000
      8128      2710  TIP3      OH2            23.7603296015      -13.0920657466       -4.7252346635  WZ2       1669            0.0000000000
      8129      2710  TIP3      H1             23.4644096015      -13.2577657466       -5.6203246635  WZ2       1669            0.0000000000
      8130      2710  TIP3      H2             24.6918496015      -13.3120357466       -4.7358446635  WZ2       1669            0.0000000000
      8131      2711  TIP3      OH2            28.3806096015       -7.7188657466       -6.8354346635  WZ2       1670            0.0000000000
      8132      2711  TIP3      H1             27.4800396015       -7.5356057466       -7.1030446635  WZ2       1670            0.0000000000
      8133      2711  TIP3      H2             28.4147196015       -7.4599357466       -5.9145546635  WZ2       1670            0.0000000000
      8134      2712  TIP3      OH2            34.0751396015       -9.6739057466       -5.6310246635  WZ2       1672            0.0000000000
      8135      2712  TIP3      H1             33.2239896015       -9.4355257466       -5.9983846635  WZ2       1672            0.0000000000
      8136      2712  TIP3      H2             34.6654796015       -9.6905857466       -6.3843146635  WZ2       1672            0.0000000000
      8137      2713  TIP3      OH2            32.4071096015       -6.6880357466      -18.0029646635  WZ2       1673            0.0000000000
      8138      2713  TIP3      H1             32.0342196015       -7.5136557466      -17.6939046635  WZ2       1673            0.0000000000
      8139      2713  TIP3      H2             32.6844596015       -6.8710957466      -18.9006246635  WZ2       1673            0.0000000000
      8140      2714  TIP3      OH2            29.5674996015      -11.8800857466      -10.9817746635  WZ2       1674            0.0000000000
      8141      2714  TIP3      H1             28.6391896015      -12.1118957466      -11.0088446635  WZ2       1674            0.0000000000
      8142      2714  TIP3      H2             30.0186096015      -12.6571057466      -11.3118946635  WZ2       1674            0.0000000000
      8143      2715  TIP3      OH2            22.1108096015       -7.5519257466      -14.8489046635  WZ2       1675            0.0000000000
      8144      2715  TIP3      H1             22.6380296015       -6.7784857466      -15.0490246635  WZ2       1675            0.0000000000
      8145      2715  TIP3      H2             21.2306596015       -7.3270057466      -15.1505046635  WZ2       1675            0.0000000000
      8146      2716  TIP3      OH2            17.8655796015      -12.6895157466      -20.2616646635  WZ2       1676            0.0000000000
      8147      2716  TIP3      H1             18.4815696015      -12.0627957466      -19.8821846635  WZ2       1676            0.0000000000
      8148      2716  TIP3      H2             17.0038396015      -12.3735357466      -19.9900146635  WZ2       1676            0.0000000000
      8149      2717  TIP3      OH2            23.5380396015       -9.8889357466      -15.2724746635  WZ2       1677            0.0000000000
      8150      2717  TIP3      H1             23.2970396015       -8.9634957466      -15.2309446635  WZ2       1677            0.0000000000
      8151      2717  TIP3      H2             22.7973996015      -10.3478057466      -14.8760846635  WZ2       1677            0.0000000000
      8152      2718  TIP3      OH2            24.0526996015       -5.7395757466       -8.9573646635  WZ2       1678            0.0000000000
      8153      2718  TIP3      H1             24.4151696015       -4.8850157466       -9.1909246635  WZ2       1678            0.0000000000
      8154      2718  TIP3      H2             24.5842196015       -6.0314157466       -8.2167346635  WZ2       1678            0.0000000000
      8155      2719  TIP3      OH2            22.2211196015       -4.8671757466      -15.7272546635  WZ2       1679            0.0000000000
      8156      2719  TIP3      H1             21.2711696015       -4.7614357466      -15.6759246635  WZ2       1679            0.0000000000
      8157      2719  TIP3      H2             22.5729296015       -4.0464357466      -15.3825046635  WZ2       1679            0.0000000000
      8158      2720  TIP3      OH2            27.5967796015       -9.6405057466       -9.2568046635  WZ2       1680            0.0000000000
      8159      2720  TIP3      H1             27.1709096015       -9.8683357466       -8.4304046635  WZ2       1680            0.0000000000
      8160      2720  TIP3      H2             28.1773596015      -10.3793257466       -9.4392746635  WZ2       1680            0.0000000000
      8161      2721  TIP3      OH2            29.7996696015       -8.7114557466      -20.1829046635  WZ2       1681            0.0000000000
      8162      2721  TIP3      H1             30.1529796015       -9.0914757466      -19.3785546635  WZ2       1681            0.0000000000
      8163      2721  TIP3      H2             28.8510196015       -8.8049757466      -20.0959746635  WZ2       1681            0.0000000000
      8164      2722  TIP3      OH2            30.2551996015       -5.0885557466       -6.7873246635  WZ2       1682            0.0000000000
      8165      2722  TIP3      H1             29.6535196015       -5.6442657466       -7.2826946635  WZ2       1682            0.0000000000
      8166      2722  TIP3      H2             30.5365696015       -4.4215757466       -7.4135846635  WZ2       1682            0.0000000000
      8167      2723  TIP3      OH2            34.3031096015       -4.2322057466      -19.9818846635  WZ2       1683            0.0000000000
      8168      2723  TIP3      H1             35.0468996015       -3.6461557466      -20.1217246635  WZ2       1683            0.0000000000
      8169      2723  TIP3      H2             33.6089196015       -3.6636257466      -19.6486446635  WZ2       1683            0.0000000000
      8170      2724  TIP3      OH2            18.3777896015      -17.8557857466       -7.3800646635  WZ2       1684            0.0000000000
      8171      2724  TIP3      H1             17.4850196015      -17.5172457466       -7.4476646635  WZ2       1684            0.0000000000
      8172      2724  TIP3      H2             18.2790696015      -18.7111757466       -6.9619846635  WZ2       1684            0.0000000000
      8173      2725  TIP3      OH2            30.6655996015      -10.0392557466      -17.9561146635  WZ2       1685            0.0000000000
      8174      2725  TIP3      H1             30.3883596015      -10.7673257466      -17.4000046635  WZ2       1685            0.0000000000
      8175      2725  TIP3      H2             31.5928996015       -9.9200557466      -17.7508546635  WZ2       1685            0.0000000000
      8176      2726  TIP3      OH2            18.0289896015       -6.0513457466       -8.9451246635  WZ2       1686            0.0000000000
      8177      2726  TIP3      H1             18.2460196015       -6.9831057466       -8.9761546635  WZ2       1686            0.0000000000
      8178      2726  TIP3      H2             18.2753396015       -5.7768457466       -8.0618446635  WZ2       1686            0.0000000000
      8179      2727  TIP3      OH2            23.8904496015       -7.5998457466      -21.7359046635  WZ2       1687            0.0000000000
      8180      2727  TIP3      H1             24.1294296015       -8.3480357466      -22.2830146635  WZ2       1687            0.0000000000
      8181      2727  TIP3      H2             23.6215796015       -7.9876757466      -20.9031246635  WZ2       1687            0.0000000000
      8182      2728  TIP3      OH2            22.8275096015       -8.0294657466      -19.2796446635  WZ2       1688            0.0000000000
      8183      2728  TIP3      H1             22.9743096015       -8.5494857466      -18.4895546635  WZ2       1688            0.0000000000
      8184      2728  TIP3      H2             22.8246796015       -7.1227057466      -18.9730546635  WZ2       1688            0.0000000000
      8185      2729  TIP3      OH2            19.2806196015      -10.7771357466      -18.7691046635  WZ2       1689            0.0000000000
      8186      2729  TIP3      H1             18.5945496015      -10.4248857466      -18.2021346635  WZ2       1689            0.0000000000
      8187      2729  TIP3      H2             19.8034096015      -10.0141757466      -19.0156746635  WZ2       1689            0.0000000000
      8188      2730  TIP3      OH2            27.1121296015      -18.1147557466       -8.4902046635  WZ2       1690            0.0000000000
      8189      2730  TIP3      H1             27.8109196015      -18.0408857466       -7.8402346635  WZ2       1690            0.0000000000
      8190      2730  TIP3      H2             26.7312696015      -18.9792557466       -8.3359146635  WZ2       1690            0.0000000000
      8191      2731  TIP3      OH2            27.8966196015      -18.4625857466      -17.3929746635  WZ2       1691            0.0000000000
      8192      2731  TIP3      H1             28.1164496015      -17.9910457466      -18.1964346635  WZ2       1691            0.0000000000
      8193      2731  TIP3      H2             28.4550196015      -18.0683257466      -16.7229146635  WZ2       1691            0.0000000000
      8194      2732  TIP3      OH2            25.5652296015       -6.3321057466      -18.5302246635  WZ2       1692            0.0000000000
      8195      2732  TIP3      H1             24.7488396015       -5.8351357466      -18.4777946635  WZ2       1692            0.0000000000
      8196      2732  TIP3      H2             26.0948596015       -5.8567557466      -19.1703446635  WZ2       1692            0.0000000000
      8197      2733  TIP3      OH2            25.0966096015      -16.7347057466      -16.5581346635  WZ2       1693            0.0000000000
      8198      2733  TIP3      H1             25.9088696015      -16.2303857466      -16.5119646635  WZ2       1693            0.0000000000
      8199      2733  TIP3      H2             24.8519096015      -16.8797357466      -15.6441746635  WZ2       1693            0.0000000000
      8200      2734  TIP3      OH2            25.6322496015      -15.7484357466       -7.3734746635  WZ2       1694            0.0000000000
      8201      2734  TIP3      H1             25.7512796015      -15.1748957466       -6.6164346635  WZ2       1694            0.0000000000
      8202      2734  TIP3      H2             26.2877096015      -16.4364957466       -7.2586946635  WZ2       1694            0.0000000000
      8203      2735  TIP3      OH2            25.9802796015      -19.6534057466      -15.6200246635  WZ2       1695            0.0000000000
      8204      2735  TIP3      H1             25.6336296015      -19.0363457466      -14.9755946635  WZ2       1695            0.0000000000
      8205      2735  TIP3      H2             26.6389696015      -19.1528357466      -16.1014746635  WZ2       1695            0.0000000000
      8206      2736  TIP3      OH2            22.9035396015       -5.2883857466      -18.5485346635  WZ2       1696            0.0000000000
      8207      2736  TIP3      H1             23.0644096015       -4.4886357466      -19.0492746635  WZ2       1696            0.0000000000
      8208      2736  TIP3      H2             22.7063196015       -4.9817857466      -17.6634746635  WZ2       1696            0.0000000000
      8209      2737  TIP3      OH2            21.6379796015      -18.5904657466      -18.9327746635  WZ2       1697            0.0000000000
      8210      2737  TIP3      H1             21.5544596015      -17.7021557466      -18.5861346635  WZ2       1697            0.0000000000
      8211      2737  TIP3      H2             22.5280096015      -18.8557957466      -18.7010946635  WZ2       1697            0.0000000000
      8212      2738  TIP3      OH2            31.8368296015      -17.8414057466       -6.5385046635  WZ2       1698            0.0000000000
      8213      2738  TIP3      H1             30.9204096015      -17.5792357466       -6.6261346635  WZ2       1698            0.0000000000
      8214      2738  TIP3      H2             32.1723296015      -17.8445057466       -7.4349746635  WZ2       1698            0.0000000000
      8215      2739  TIP3      OH2            30.4389296015      -14.0913057466      -12.4427746635  WZ2       1699            0.0000000000
      8216      2739  TIP3      H1             29.6413696015      -14.5062857466      -12.7712746635  WZ2       1699            0.0000000000
      8217      2739  TIP3      H2             30.8840396015      -14.7819357466      -11.9517246635  WZ2       1699            0.0000000000
      8218      2740  TIP3      OH2            19.8965096015       -8.1632457466      -19.8723246635  WZ2       1700            0.0000000000
      8219      2740  TIP3      H1             20.4886596015       -7.4637657466      -19.5960846635  WZ2       1700            0.0000000000
      8220      2740  TIP3      H2             20.3558096015       -8.5962957466      -20.5918646635  WZ2       1700            0.0000000000
      8221      2741  TIP3      OH2            18.2124296015      -15.4989457466      -20.7563846635  WZ2       1701            0.0000000000
      8222      2741  TIP3      H1             18.1676896015      -14.5596357466      -20.5776846635  WZ2       1701            0.0000000000
      8223      2741  TIP3      H2             17.3247496015      -15.7344557466      -21.0261746635  WZ2       1701            0.0000000000
      8224      2742  TIP3      OH2            31.5253896015       -4.8350557466      -10.8204246635  WZ2       1702            0.0000000000
      8225      2742  TIP3      H1             31.3698196015       -4.1566157466      -11.4774946635  WZ2       1702            0.0000000000
      8226      2742  TIP3      H2             32.4580296015       -4.7631257466      -10.6173646635  WZ2       1702            0.0000000000
      8227      2743  TIP3      OH2            19.0206296015      -20.7172857466      -12.0832846635  WZ2       1703            0.0000000000
      8228      2743  TIP3      H1             18.7916096015      -20.6580357466      -13.0107846635  WZ2       1703            0.0000000000
      8229      2743  TIP3      H2             18.5779696015      -21.5087357466      -11.7768746635  WZ2       1703            0.0000000000
      8230      2744  TIP3      OH2            17.9509596015       -6.7765757466      -15.9227046635  WZ2       1704            0.0000000000
      8231      2744  TIP3      H1             17.1188196015       -6.3043057466      -15.8955646635  WZ2       1704            0.0000000000
      8232      2744  TIP3      H2             18.4967896015       -6.2668157466      -16.5213946635  WZ2       1704            0.0000000000
      8233      2745  TIP3      OH2            17.2393296015       -4.1642057466       -4.5929046635  WZ2       1705            0.0000000000
      8234      2745  TIP3      H1             17.7795496015       -4.3808057466       -3.8329846635  WZ2       1705            0.0000000000
      8235      2745  TIP3      H2             16.7581296015       -4.9696057466       -4.7826546635  WZ2       1705            0.0000000000
      8236      2746  TIP3      OH2            21.8366696015       -5.2447657466       -2.9724846635  WZ2       1706            0.0000000000
      8237      2746  TIP3      H1             22.6043896015       -5.7036857466       -2.6315646635  WZ2       1706            0.0000000000
      8238      2746  TIP3      H2             21.8152896015       -5.4707857466       -3.9023646635  WZ2       1706            0.0000000000
      8239      2747  TIP3      OH2            25.9286296015       -5.7367057466      -21.5973046635  WZ2       1707            0.0000000000
      8240      2747  TIP3      H1             25.2847296015       -6.3678457466      -21.2759346635  WZ2       1707            0.0000000000
      8241      2747  TIP3      H2             26.6904596015       -6.2679057466      -21.8289546635  WZ2       1707            0.0000000000
      8242      2748  TIP3      OH2            28.4135396015       -6.8646557466       -4.2433346635  WZ2       1708            0.0000000000
      8243      2748  TIP3      H1             28.0624896015       -7.7213557466       -4.0002946635  WZ2       1708            0.0000000000
      8244      2748  TIP3      H2             29.1398596015       -6.7219857466       -3.6364346635  WZ2       1708            0.0000000000
      8245      2749  TIP3      OH2            30.5329196015       -5.9197157466      -21.3635046635  WZ2       1709            0.0000000000
      8246      2749  TIP3      H1             30.8159596015       -6.7141957466      -20.9108146635  WZ2       1709            0.0000000000
      8247      2749  TIP3      H2             31.2727096015       -5.6866157466      -21.9243946635  WZ2       1709            0.0000000000
      8248      2750  TIP3      OH2            17.1462796015      -10.3537957466       -3.6384746635  WZ2       1710            0.0000000000
      8249      2750  TIP3      H1             17.2903296015      -11.2557257466       -3.9248046635  WZ2       1710            0.0000000000
      8250      2750  TIP3      H2             16.3740196015      -10.0675857466       -4.1262446635  WZ2       1710            0.0000000000
      8251      2751  TIP3      OH2            21.4876496015      -10.0102257466      -21.5060146635  WZ2       1711            0.0000000000
      8252      2751  TIP3      H1             21.5520596015      -10.8042657466      -20.9753746635  WZ2       1711            0.0000000000
      8253      2751  TIP3      H2             22.1405696015      -10.1289457466      -22.1958146635  WZ2       1711            0.0000000000
      8254      2752  TIP3      OH2            23.8018896015      -10.3839857466       -4.2058346635  WZ2       1712            0.0000000000
      8255      2752  TIP3      H1             23.4732696015      -10.1131757466       -5.0630946635  WZ2       1712            0.0000000000
      8256      2752  TIP3      H2             23.9537096015      -11.3250057466       -4.2933346635  WZ2       1712            0.0000000000
      8257      2753  TIP3      OH2            26.8399896015       -8.9630557466      -21.7702146635  WZ2       1713            0.0000000000
      8258      2753  TIP3      H1             26.5713996015       -8.7828457466      -20.8693246635  WZ2       1713            0.0000000000
      8259      2753  TIP3      H2             26.6335496015       -9.8884357466      -21.9016346635  WZ2       1713            0.0000000000
      8260      2754  TIP3      OH2            29.5364096015      -10.4682557466       -6.8226046635  WZ2       1714            0.0000000000
      8261      2754  TIP3      H1             30.2818896015       -9.8798857466       -6.9422046635  WZ2       1714            0.0000000000
      8262      2754  TIP3      H2             28.7790896015       -9.8862857466       -6.7592946635  WZ2       1714            0.0000000000
      8263      2755  TIP3      OH2            17.9789296015      -13.1534657466       -4.2185446635  WZ2       1715            0.0000000000
      8264      2755  TIP3      H1             18.3870496015      -14.0108057466       -4.3394846635  WZ2       1715            0.0000000000
      8265      2755  TIP3      H2             17.7186896015      -13.1393357466       -3.2975146635  WZ2       1715            0.0000000000
      8266      2756  TIP3      OH2            22.6370296015      -12.0376057466      -19.2002146635  WZ2       1716            0.0000000000
      8267      2756  TIP3      H1             22.1772296015      -12.5217757466      -18.5143646635  WZ2       1716            0.0000000000
      8268      2756  TIP3      H2             22.8918996015      -12.7060657466      -19.8361646635  WZ2       1716            0.0000000000
      8269      2757  TIP3      OH2            21.9259596015      -14.1448957466       -6.8442546635  WZ2       1717            0.0000000000
      8270      2757  TIP3      H1             21.3075696015      -13.4702357466       -6.5637846635  WZ2       1717            0.0000000000
      8271      2757  TIP3      H2             22.2700796015      -13.8235057466       -7.6776346635  WZ2       1717            0.0000000000
      8272      2758  TIP3      OH2            23.7080696015      -13.7944257466      -20.9378946635  WZ2       1718            0.0000000000
      8273      2758  TIP3      H1             23.5275696015      -13.9493057466      -21.8650646635  WZ2       1718            0.0000000000
      8274      2758  TIP3      H2             24.6581196015      -13.6865557466      -20.8931046635  WZ2       1718            0.0000000000
      8275      2759  TIP3      OH2            26.9457796015      -11.6733657466       -3.5667746635  WZ2       1719            0.0000000000
      8276      2759  TIP3      H1             27.8988996015      -11.5894557466       -3.5941746635  WZ2       1719            0.0000000000
      8277      2759  TIP3      H2             26.7852396015      -12.3851857466       -2.9472846635  WZ2       1719            0.0000000000
      8278      2760  TIP3      OH2            33.0978996015      -11.4400057466      -21.4920846635  WZ2       1720            0.0000000000
      8279      2760  TIP3      H1             32.8243796015      -11.8644557466      -22.3052546635  WZ2       1720            0.0000000000
      8280      2760  TIP3      H2             33.1373096015      -10.5085557466      -21.7090446635  WZ2       1720            0.0000000000
      8281      2761  TIP3      OH2            22.2653296015      -16.7898157466       -5.7619446635  WZ2       1721            0.0000000000
      8282      2761  TIP3      H1             22.4154196015      -17.5186857466       -6.3639746635  WZ2       1721            0.0000000000
      8283      2761  TIP3      H2             22.2675696015      -16.0126457466       -6.3207246635  WZ2       1721            0.0000000000
      8284      2762  TIP3      OH2            22.6778996015      -18.4202357466       -8.2692046635  WZ2       1722            0.0000000000
      8285      2762  TIP3      H1             23.2136496015      -17.9685657466       -8.9212746635  WZ2       1722            0.0000000000
      8286      2762  TIP3      H2             21.8258596015      -18.5282557466       -8.6917946635  WZ2       1722            0.0000000000
      8287      2763  TIP3      OH2            24.2597396015      -12.9806157466       -8.0296846635  WZ2       1723            0.0000000000
      8288      2763  TIP3      H1             25.0102196015      -13.1368657466       -8.6029046635  WZ2       1723            0.0000000000
      8289      2763  TIP3      H2             23.9205696015      -12.1289557466       -8.3051346635  WZ2       1723            0.0000000000
      8290      2764  TIP3      OH2            28.6753596015      -15.1654357466       -3.0011546635  WZ2       1724            0.0000000000
      8291      2764  TIP3      H1             28.8674896015      -16.0964957466       -3.1127046635  WZ2       1724            0.0000000000
      8292      2764  TIP3      H2             29.5329896015      -14.7404857466       -3.0116146635  WZ2       1724            0.0000000000
      8293      2765  TIP3      OH2            29.9920796015      -12.3769157466       -4.9238846635  WZ2       1725            0.0000000000
      8294      2765  TIP3      H1             29.7105796015      -11.6674557466       -5.5015046635  WZ2       1725            0.0000000000
      8295      2765  TIP3      H2             30.9345096015      -12.4496157466       -5.0747646635  WZ2       1725            0.0000000000
      8296      2766  TIP3      OH2            20.7439596015      -15.5914657466       -3.8503846635  WZ2       1726            0.0000000000
      8297      2766  TIP3      H1             19.9768596015      -16.1239857466       -4.0606246635  WZ2       1726            0.0000000000
      8298      2766  TIP3      H2             21.4228596015      -15.9014257466       -4.4497546635  WZ2       1726            0.0000000000
      8299      2767  TIP3      OH2            23.4834496015      -20.9636657466       -7.8378446635  WZ2       1727            0.0000000000
      8300      2767  TIP3      H1             23.3854096015      -20.0173457466       -7.9432246635  WZ2       1727            0.0000000000
      8301      2767  TIP3      H2             22.7410696015      -21.3362857466       -8.3134946635  WZ2       1727            0.0000000000
      8302      2768  TIP3      OH2            24.7474996015      -16.6421257466       -4.2740046635  WZ2       1728            0.0000000000
      8303      2768  TIP3      H1             24.5120396015      -16.8614557466       -3.3725146635  WZ2       1728            0.0000000000
      8304      2768  TIP3      H2             23.9641896015      -16.8490057466       -4.7837546635  WZ2       1728            0.0000000000
      8305      2769  TIP3      OH2            27.4631596015      -17.5147757466       -5.1986546635  WZ2       1729            0.0000000000
      8306      2769  TIP3      H1             26.5156996015      -17.4828057466       -5.0663246635  WZ2       1729            0.0000000000
      8307      2769  TIP3      H2             27.7758296015      -18.1400657466       -4.5448346635  WZ2       1729            0.0000000000
      8308      2770  TIP3      OH2            29.0973096015      -18.8806657466       -3.1934646635  WZ2       1730            0.0000000000
      8309      2770  TIP3      H1             29.0004896015      -19.8329357466       -3.1992746635  WZ2       1730            0.0000000000
      8310      2770  TIP3      H2             28.7756196015      -18.6119857466       -2.3329146635  WZ2       1730            0.0000000000
      8311      2771  TIP3      OH2            18.9242396015      -17.6710857466       -4.1459146635  WZ2       1731            0.0000000000
      8312      2771  TIP3      H1             19.1359796015      -18.3774757466       -4.7561646635  WZ2       1731            0.0000000000
      8313      2771  TIP3      H2             18.8129896015      -18.1084857466       -3.3017946635  WZ2       1731            0.0000000000
      8314      2772  TIP3      OH2            23.7052596015      -21.6699257466       -5.1665646635  WZ2       1732            0.0000000000
      8315      2772  TIP3      H1             24.4170996015      -22.3097057466       -5.1806546635  WZ2       1732            0.0000000000
      8316      2772  TIP3      H2             23.6042996015      -21.4030957466       -6.0802546635  WZ2       1732            0.0000000000
      8317      2773  TIP3      OH2            24.0590096015      -19.9870857466       -3.1129346635  WZ2       1733            0.0000000000
      8318      2773  TIP3      H1             23.9272296015      -20.4627057466       -3.9330846635  WZ2       1733            0.0000000000
      8319      2773  TIP3      H2             23.4597496015      -19.2427257466       -3.1682246635  WZ2       1733            0.0000000000
      8320      2774  TIP3      OH2            23.6052396015       -3.1040557466      -19.9365346635  WZ2       1734            0.0000000000
      8321      2774  TIP3      H1             24.5383096015       -2.9461857466      -19.7926946635  WZ2       1734            0.0000000000
      8322      2774  TIP3      H2             23.3411196015       -2.4287557466      -20.5613846635  WZ2       1734            0.0000000000
      8323      2775  TIP3      OH2            17.1737296015       -8.4676757466      -20.4537246635  WZ2       1735            0.0000000000
      8324      2775  TIP3      H1             18.0876496015       -8.3887857466      -20.1803346635  WZ2       1735            0.0000000000
      8325      2775  TIP3      H2             17.1810396015       -9.1547157466      -21.1201646635  WZ2       1735            0.0000000000
      8326      2776  TIP3      OH2            15.8227896015       -3.0748257466      -15.3763346635  WZ2       1736            0.0000000000
      8327      2776  TIP3      H1             15.1754996015       -3.5366557466      -15.9092146635  WZ2       1736            0.0000000000
      8328      2776  TIP3      H2             16.1772496015       -3.7464957466      -14.7937146635  WZ2       1736            0.0000000000
      8329      2777  TIP3      OH2            16.6927096015       -4.9941257466      -13.5717146635  WZ2       1737            0.0000000000
      8330      2777  TIP3      H1             16.3583896015       -5.8743957466      -13.3996946635  WZ2       1737            0.0000000000
      8331      2777  TIP3      H2             16.9149496015       -4.6486257466      -12.7071546635  WZ2       1737            0.0000000000
      8332      2778  TIP3      OH2            34.2411896015       -4.1844857466      -10.5912346635  WZ2       1738            0.0000000000
      8333      2778  TIP3      H1             34.2198596015       -3.9996457466       -9.6522946635  WZ2       1738            0.0000000000
      8334      2778  TIP3      H2             34.9318096015       -3.6160857466      -10.9320946635  WZ2       1738            0.0000000000
      8335      2779  TIP3      OH2            33.8044796015       -4.6173757466       -7.6693246635  WZ2       1739            0.0000000000
      8336      2779  TIP3      H1             33.3173496015       -5.3529657466       -8.0405846635  WZ2       1739            0.0000000000
      8337      2779  TIP3      H2             34.3537496015       -5.0109857466       -6.9913846635  WZ2       1739            0.0000000000
      8338      2780  TIP3      OH2            32.2552096015       -8.8275657466       -3.0312946635  WZ2       1740            0.0000000000
      8339      2780  TIP3      H1             31.3893196015       -8.9325957466       -2.6370646635  WZ2       1740            0.0000000000
      8340      2780  TIP3      H2             32.6317996015       -8.0692357466       -2.5848246635  WZ2       1740            0.0000000000
      8341      2781  TIP3      OH2            33.5561796015      -10.5711957466      -17.5170446635  WZ2       1741            0.0000000000
      8342      2781  TIP3      H1             34.4063196015      -10.1501057466      -17.3898846635  WZ2       1741            0.0000000000
      8343      2781  TIP3      H2             33.5616896015      -11.3111857466      -16.9099046635  WZ2       1741            0.0000000000
      8344      2782  TIP3      OH2            33.9507396015      -12.5174557466      -15.6934746635  WZ2       1742            0.0000000000
      8345      2782  TIP3      H1             33.2241996015      -12.9971957466      -15.2957146635  WZ2       1742            0.0000000000
      8346      2782  TIP3      H2             34.5320696015      -12.3119857466      -14.9613146635  WZ2       1742            0.0000000000
      8347      2783  TIP3      OH2            33.7098596015       -9.7327057466      -10.7457146635  WZ2       1743            0.0000000000
      8348      2783  TIP3      H1             34.5432796015      -10.1107057466      -11.0263546635  WZ2       1743            0.0000000000
      8349      2783  TIP3      H2             33.8218896015       -8.7895857466      -10.8648046635  WZ2       1743            0.0000000000
      8350      2784  TIP3      OH2            32.1960896015       -6.8549557466       -8.4388746635  WZ2       1744            0.0000000000
      8351      2784  TIP3      H1             31.5486196015       -6.5298057466       -7.8133546635  WZ2       1744            0.0000000000
      8352      2784  TIP3      H2             31.6784896015       -7.2951857466       -9.1130446635  WZ2       1744            0.0000000000
      8353      2785  TIP3      OH2            34.2190496015      -12.6166057466      -19.3023446635  WZ2       1745            0.0000000000
      8354      2785  TIP3      H1             33.6971596015      -12.2601957466      -20.0212546635  WZ2       1745            0.0000000000
      8355      2785  TIP3      H2             34.1859696015      -11.9418257466      -18.6242546635  WZ2       1745            0.0000000000
      8356      2786  TIP3      OH2            32.5679496015      -15.3770457466      -20.7516346635  WZ2       1746            0.0000000000
      8357      2786  TIP3      H1             32.6643896015      -14.7103457466      -21.4316646635  WZ2       1746            0.0000000000
      8358      2786  TIP3      H2             32.4279096015      -16.1924157466      -21.2330846635  WZ2       1746            0.0000000000
      8359      2787  TIP3      OH2            31.7374196015      -13.9968057466      -15.1306046635  WZ2       1747            0.0000000000
      8360      2787  TIP3      H1             31.5872996015      -14.9419457466      -15.1508246635  WZ2       1747            0.0000000000
      8361      2787  TIP3      H2             31.3838696015      -13.7156657466      -14.2866946635  WZ2       1747            0.0000000000
      8362      2788  TIP3      OH2            16.7726596015      -11.9185857466      -11.1202246635  WZ2       1748            0.0000000000
      8363      2788  TIP3      H1             16.9569496015      -12.0004157466      -12.0559346635  WZ2       1748            0.0000000000
      8364      2788  TIP3      H2             17.6219496015      -12.0428857466      -10.6965846635  WZ2       1748            0.0000000000
      8365      2789  TIP3      OH2            32.5937096015      -12.0264757466       -5.4917746635  WZ2       1749            0.0000000000
      8366      2789  TIP3      H1             33.1764396015      -12.7612457466       -5.3000546635  WZ2       1749            0.0000000000
      8367      2789  TIP3      H2             33.1576396015      -11.2544457466       -5.4451946635  WZ2       1749            0.0000000000
      8368      2790  TIP3      OH2            34.0904196015      -14.1238957466       -4.8072346635  WZ2       1750            0.0000000000
      8369      2790  TIP3      H1             33.2270896015      -14.5026857466       -4.9727646635  WZ2       1750            0.0000000000
      8370      2790  TIP3      H2             34.6947896015      -14.8624157466       -4.8816546635  WZ2       1750            0.0000000000
      8371      2791  TIP3      OH2            31.8153296015      -17.9690657466      -21.6340846635  WZ2       1751            0.0000000000
      8372      2791  TIP3      H1             32.4259096015      -18.3403857466      -20.9972646635  WZ2       1751            0.0000000000
      8373      2791  TIP3      H2             30.9784796015      -18.3903757466      -21.4380846635  WZ2       1751            0.0000000000
      8374      2792  TIP3      OH2            31.4478996015      -16.4142257466      -16.6680946635  WZ2       1752            0.0000000000
      8375      2792  TIP3      H1             31.7276096015      -17.3211857466      -16.5439246635  WZ2       1752            0.0000000000
      8376      2792  TIP3      H2             32.2070696015      -15.9800757466      -17.0571746635  WZ2       1752            0.0000000000
      8377      2793  TIP3      OH2            32.0597296015      -15.8324857466      -11.2322046635  WZ2       1753            0.0000000000
      8378      2793  TIP3      H1             32.9925296015      -15.6204957466      -11.2666046635  WZ2       1753            0.0000000000
      8379      2793  TIP3      H2             31.8244796015      -15.7312757466      -10.3099046635  WZ2       1753            0.0000000000
      8380      2794  TIP3      OH2            32.0889196015      -15.0959557466       -8.4562646635  WZ2       1754            0.0000000000
      8381      2794  TIP3      H1             31.2460496015      -14.8279157466       -8.0902846635  WZ2       1754            0.0000000000
      8382      2794  TIP3      H2             32.5313496015      -14.2737657466       -8.6671546635  WZ2       1754            0.0000000000
      8383      2795  TIP3      OH2            16.3701396015      -16.6480857466       -4.9793446635  WZ2       1755            0.0000000000
      8384      2795  TIP3      H1             17.2896296015      -16.7702557466       -4.7430346635  WZ2       1755            0.0000000000
      8385      2795  TIP3      H2             15.9205896015      -17.3981157466       -4.5899946635  WZ2       1755            0.0000000000
      8386      2796  TIP3      OH2            32.0613796015      -19.1512957466      -16.6198946635  WZ2       1757            0.0000000000
      8387      2796  TIP3      H1             32.2438796015      -19.6001457466      -15.7943946635  WZ2       1757            0.0000000000
      8388      2796  TIP3      H2             31.4616696015      -19.7358557466      -17.0834346635  WZ2       1757            0.0000000000
      8389      2797  TIP3      OH2            17.5913896015      -18.3359257466      -12.0880546635  WZ2       1758            0.0000000000
      8390      2797  TIP3      H1             18.0365496015      -19.1276757466      -11.7860846635  WZ2       1758            0.0000000000
      8391      2797  TIP3      H2             18.0576896015      -17.6194057466      -11.6574946635  WZ2       1758            0.0000000000
      8392      2798  TIP3      OH2            15.8954196015      -15.3366257466      -11.0190346635  WZ2       1759            0.0000000000
      8393      2798  TIP3      H1             16.3873996015      -15.5575757466      -11.8098346635  WZ2       1759            0.0000000000
      8394      2798  TIP3      H2             16.2575096015      -14.4962857466      -10.7380846635  WZ2       1759            0.0000000000
      8395      2799  TIP3      OH2            16.2090696015      -19.0787157466      -16.9647946635  WZ2       1762            0.0000000000
      8396      2799  TIP3      H1             15.2839096015      -18.8700557466      -17.0942446635  WZ2       1762            0.0000000000
      8397      2799  TIP3      H2             16.6630596015      -18.5946357466      -17.6545646635  WZ2       1762            0.0000000000
      8398      2800  TIP3      OH2            30.9797896015       -4.0945457466      -15.0190546635  WZ2       1763            0.0000000000
      8399      2800  TIP3      H1             31.6320796015       -4.4423357466      -15.6271446635  WZ2       1763            0.0000000000
      8400      2800  TIP3      H2             31.4901696015       -3.6062257466      -14.3730846635  WZ2       1763            0.0000000000
      8401      2801  TIP3      OH2            16.1726096015      -20.3408157466       -8.6205446635  WZ2       1764            0.0000000000
      8402      2801  TIP3      H1             15.5076596015      -20.5867857466       -7.9774546635  WZ2       1764            0.0000000000
      8403      2801  TIP3      H2             15.7297396015      -19.7187757466       -9.1977446635  WZ2       1764            0.0000000000
      8404      2802  TIP3      OH2            18.3645396015       -7.1654057466       -4.4759646635  WZ2       1765            0.0000000000
      8405      2802  TIP3      H1             17.5437896015       -6.9907557466       -4.9364946635  WZ2       1765            0.0000000000
      8406      2802  TIP3      H2             18.1123196015       -7.2389357466       -3.5555246635  WZ2       1765            0.0000000000
      8407      2803  TIP3      OH2            21.3188296015       -6.1912857466       -8.2175646635  WZ2       1766            0.0000000000
      8408      2803  TIP3      H1             20.8939396015       -5.3814357466       -8.5001046635  WZ2       1766            0.0000000000
      8409      2803  TIP3      H2             22.2231096015       -6.1058757466       -8.5195846635  WZ2       1766            0.0000000000
      8410      2804  TIP3      OH2            25.6299696015       -4.7922857466       -5.2581946635  WZ2       1767            0.0000000000
      8411      2804  TIP3      H1             25.8147196015       -5.1256757466       -4.3801646635  WZ2       1767            0.0000000000
      8412      2804  TIP3      H2             26.4764196015       -4.4824257466       -5.5802746635  WZ2       1767            0.0000000000
      8413      2805  TIP3      OH2            27.9750096015       -3.5063957466       -6.0140546635  WZ2       1768            0.0000000000
      8414      2805  TIP3      H1             28.6518996015       -4.1391657466       -6.2541346635  WZ2       1768            0.0000000000
      8415      2805  TIP3      H2             28.2968896015       -3.1053457466       -5.2067246635  WZ2       1768            0.0000000000
      8416      2806  TIP3      OH2            18.7204996015       -2.9348957466       -8.1700346635  WZ2       1770            0.0000000000
      8417      2806  TIP3      H1             18.0001396015       -2.4947957466       -8.6212646635  WZ2       1770            0.0000000000
      8418      2806  TIP3      H2             18.3548996015       -3.1854257466       -7.3216346635  WZ2       1770            0.0000000000
      8419      2807  TIP3      OH2            21.1877596015       -3.3345057466       -9.1403146635  WZ2       1771            0.0000000000
      8420      2807  TIP3      H1             20.3229796015       -3.2626557466       -8.7363046635  WZ2       1771            0.0000000000
      8421      2807  TIP3      H2             21.1326596015       -2.7877757466       -9.9240646635  WZ2       1771            0.0000000000
      8422      2808  TIP3      OH2            25.8983196015       -3.4466157466       -9.9647146635  WZ2       1772            0.0000000000
      8423      2808  TIP3      H1             25.4417196015       -2.9176457466      -10.6188746635  WZ2       1772            0.0000000000
      8424      2808  TIP3      H2             26.0611196015       -2.8434757466       -9.2394846635  WZ2       1772            0.0000000000
      8425      2809  TIP3      OH2            28.2259496015       -4.5686557466       -9.0196846635  WZ2       1773            0.0000000000
      8426      2809  TIP3      H1             27.3213196015       -4.4036357466       -9.2854746635  WZ2       1773            0.0000000000
      8427      2809  TIP3      H2             28.6548096015       -3.7154357466       -9.0853446635  WZ2       1773            0.0000000000
      8428      2810  TIP3      OH2            30.8301396015       -2.9987457466       -8.7249046635  WZ2       1774            0.0000000000
      8429      2810  TIP3      H1             30.6483396015       -2.0828557466       -8.9354146635  WZ2       1774            0.0000000000
      8430      2810  TIP3      H2             31.0069196015       -3.4090357466       -9.5714446635  WZ2       1774            0.0000000000
      8431      2811  TIP3      OH2            18.1353096015       -4.3116457466      -11.2598546635  WZ2       1775            0.0000000000
      8432      2811  TIP3      H1             18.1169096015       -4.7371357466      -10.4026246635  WZ2       1775            0.0000000000
      8433      2811  TIP3      H2             18.9400996015       -4.6301457466      -11.6686346635  WZ2       1775            0.0000000000
      8434      2812  TIP3      OH2            20.2766196015       -5.6017757466      -12.6048646635  WZ2       1776            0.0000000000
      8435      2812  TIP3      H1             20.0576896015       -6.5180357466      -12.4352646635  WZ2       1776            0.0000000000
      8436      2812  TIP3      H2             21.1008396015       -5.4617357466      -12.1387246635  WZ2       1776            0.0000000000
      8437      2813  TIP3      OH2            22.8138696015       -5.1318457466      -11.7560646635  WZ2       1777            0.0000000000
      8438      2813  TIP3      H1             23.0264396015       -6.0199457466      -12.0429746635  WZ2       1777            0.0000000000
      8439      2813  TIP3      H2             22.8783796015       -5.1660757466      -10.8016646635  WZ2       1777            0.0000000000
      8440      2814  TIP3      OH2            26.3222396015      -19.4677857466      -12.6117346635  WZ2       1778            0.0000000000
      8441      2814  TIP3      H1             25.6479196015      -20.0972257466      -12.3561546635  WZ2       1778            0.0000000000
      8442      2814  TIP3      H2             26.8861596015      -19.9518957466      -13.2149446635  WZ2       1778            0.0000000000
      8443      2815  TIP3      OH2            31.4649596015      -21.3603857466      -12.4990246635  WZ2       1779            0.0000000000
      8444      2815  TIP3      H1             32.0687196015      -20.8128457466      -13.0009246635  WZ2       1779            0.0000000000
      8445      2815  TIP3      H2             30.5951596015      -21.0413457466      -12.7396146635  WZ2       1779            0.0000000000
      8446      2816  TIP3      OH2            18.6489896015      -20.8337557466      -14.7897446635  WZ2       1781            0.0000000000
      8447      2816  TIP3      H1             17.8719696015      -21.0682657466      -15.2971546635  WZ2       1781            0.0000000000
      8448      2816  TIP3      H2             19.1793496015      -21.6305457466      -14.7809446635  WZ2       1781            0.0000000000
      8449      2817  TIP3      OH2            17.4853296015      -21.0359457466      -18.9861346635  WZ2       1782            0.0000000000
      8450      2817  TIP3      H1             17.9243996015      -20.4248957466      -19.5777846635  WZ2       1782            0.0000000000
      8451      2817  TIP3      H2             16.8515696015      -20.4975357466      -18.5121346635  WZ2       1782            0.0000000000
      8452      2818  TIP3      OH2            23.2282496015      -20.9070457466      -14.9764346635  WZ2       1783            0.0000000000
      8453      2818  TIP3      H1             24.1025896015      -20.5186157466      -15.0060046635  WZ2       1783            0.0000000000
      8454      2818  TIP3      H2             23.0923296015      -21.1222657466      -14.0537146635  WZ2       1783            0.0000000000
      8455      2819  TIP3      OH2            28.7850896015      -20.8770657466      -13.3272646635  WZ2       1784            0.0000000000
      8456      2819  TIP3      H1             28.8612496015      -20.7819057466      -14.2766646635  WZ2       1784            0.0000000000
      8457      2819  TIP3      H2             28.5100096015      -21.7847757466      -13.1983546635  WZ2       1784            0.0000000000
      8458      2820  TIP3      OH2            30.1383496015      -20.8512857466      -17.6347646635  WZ2       1785            0.0000000000
      8459      2820  TIP3      H1             29.4354596015      -20.2363657466      -17.8446246635  WZ2       1785            0.0000000000
      8460      2820  TIP3      H2             29.6934896015      -21.6886157466      -17.5036746635  WZ2       1785            0.0000000000
      8461      2821  TIP3      OH2            17.3862796015       -5.0877257466      -18.0886246635  WZ2       1786            0.0000000000
      8462      2821  TIP3      H1             16.7012696015       -5.1258357466      -18.7561146635  WZ2       1786            0.0000000000
      8463      2821  TIP3      H2             17.3899996015       -4.1749657466      -17.8004146635  WZ2       1786            0.0000000000
      8464      2822  TIP3      OH2            19.3462396015      -19.1197957466      -20.5437246635  WZ2       1787            0.0000000000
      8465      2822  TIP3      H1             19.8375796015      -19.7495557466      -21.0711746635  WZ2       1787            0.0000000000
      8466      2822  TIP3      H2             19.9698696015      -18.8238557466      -19.8806046635  WZ2       1787            0.0000000000
      8467      2823  TIP3      OH2            24.3722496015      -18.8266457466      -18.0866746635  WZ2       1788            0.0000000000
      8468      2823  TIP3      H1             24.5503796015      -19.4733257466      -17.4038146635  WZ2       1788            0.0000000000
      8469      2823  TIP3      H2             24.3188696015      -17.9928757466      -17.6195646635  WZ2       1788            0.0000000000
      8470      2824  TIP3      OH2            26.2506296015       -3.8782357466      -19.6910046635  WZ2       1789            0.0000000000
      8471      2824  TIP3      H1             27.1166496015       -3.5114957466      -19.8691846635  WZ2       1789            0.0000000000
      8472      2824  TIP3      H2             26.0039096015       -4.3174357466      -20.5049246635  WZ2       1789            0.0000000000
      8473      2825  TIP3      OH2            32.9595896015       -4.3152057466      -17.0118946635  WZ2       1790            0.0000000000
      8474      2825  TIP3      H1             32.7652996015       -5.0629957466      -17.5769346635  WZ2       1790            0.0000000000
      8475      2825  TIP3      H2             32.9205996015       -3.5571957466      -17.5951046635  WZ2       1790            0.0000000000
      8476      2826  TIP3      OH2            18.6067896015      -20.3195657466       -5.2721246635  WZ2       1791            0.0000000000
      8477      2826  TIP3      H1             18.2406096015      -21.0853057466       -4.8296546635  WZ2       1791            0.0000000000
      8478      2826  TIP3      H2             19.5196396015      -20.2905457466       -4.9856146635  WZ2       1791            0.0000000000
      8479      2827  TIP3      OH2            20.5798696015      -20.9691257466       -3.7364146635  WZ2       1792            0.0000000000
      8480      2827  TIP3      H1             21.4782296015      -21.2431057466       -3.9210746635  WZ2       1792            0.0000000000
      8481      2827  TIP3      H2             20.1931796015      -21.7115257466       -3.2721546635  WZ2       1792            0.0000000000
      8482      2828  TIP3      OH2            19.2043996015       -4.1676457466      -21.0634146635  WZ2       1793            0.0000000000
      8483      2828  TIP3      H1             18.9368596015       -3.8813557466      -20.1901046635  WZ2       1793            0.0000000000
      8484      2828  TIP3      H2             19.9756596015       -4.7137257466      -20.9111646635  WZ2       1793            0.0000000000
      8485      2829  TIP3      OH2            29.0010996015      -21.6365957466       -3.5541346635  WZ2       1794            0.0000000000
      8486      2829  TIP3      H1             29.0778196015      -22.0625257466       -2.7003646635  WZ2       1794            0.0000000000
      8487      2829  TIP3      H2             29.8947596015      -21.6231257466       -3.8967846635  WZ2       1794            0.0000000000
      8488      2830  TIP3      OH2            32.1772096015       -5.5639657466       -4.8617146635  WZ2       1795            0.0000000000
      8489      2830  TIP3      H1             31.3953996015       -5.7501657466       -5.3816546635  WZ2       1795            0.0000000000
      8490      2830  TIP3      H2             32.1051996015       -4.6345357466       -4.6444646635  WZ2       1795            0.0000000000
      8491      2831  TIP3      OH2            36.1091996015       -9.2659357466      -17.4755846635  WZ2       1805            0.0000000000
      8492      2831  TIP3      H1             35.8372896015       -9.0368357466      -18.3642946635  WZ2       1805            0.0000000000
      8493      2831  TIP3      H2             36.1547696015       -8.4280557466      -17.0150546635  WZ2       1805            0.0000000000
      8494      2832  TIP3      OH2            35.4389196015      -10.1612257466       -8.1406146635  WZ2       1810            0.0000000000
      8495      2832  TIP3      H1             34.9377596015      -10.1892857466       -8.9556446635  WZ2       1810            0.0000000000
      8496      2832  TIP3      H2             35.4442896015      -11.0669057466       -7.8308846635  WZ2       1810            0.0000000000
      8497      2833  TIP3      OH2            35.1891896015       -7.3808457466      -11.2565946635  WZ2       1811            0.0000000000
      8498      2833  TIP3      H1             36.1352496015       -7.5251457466      -11.2756446635  WZ2       1811            0.0000000000
      8499      2833  TIP3      H2             35.0768196015       -6.5965657466      -10.7194746635  WZ2       1811            0.0000000000
      8500      2834  TIP3      OH2            36.8849896015       -6.0513457466       -8.9451246635  WZ2       1828            0.0000000000
      8501      2834  TIP3      H1             37.1020196015       -6.9831057466       -8.9761546635  WZ2       1828            0.0000000000
      8502      2834  TIP3      H2             37.1313396015       -5.7768457466       -8.0618446635  WZ2       1828            0.0000000000
      8503      2835  TIP3      OH2            36.8069596015       -6.7765757466      -15.9227046635  WZ2       1834            0.0000000000
      8504      2835  TIP3      H1             35.9748196015       -6.3043057466      -15.8955646635  WZ2       1834            0.0000000000
      8505      2835  TIP3      H2             37.3527896015       -6.2668157466      -16.5213946635  WZ2       1834            0.0000000000
      8506      2836  TIP3      OH2            36.0953296015       -4.1642057466       -4.5929046635  WZ2       1835            0.0000000000
      8507      2836  TIP3      H1             36.6355496015       -4.3808057466       -3.8329846635  WZ2       1835            0.0000000000
      8508      2836  TIP3      H2             35.6141296015       -4.9696057466       -4.7826546635  WZ2       1835            0.0000000000
      8509      2837  TIP3      OH2            34.6787896015       -3.0748257466      -15.3763346635  WZ2       1842            0.0000000000
      8510      2837  TIP3      H1             34.0314996015       -3.5366557466      -15.9092146635  WZ2       1842            0.0000000000
      8511      2837  TIP3      H2             35.0332496015       -3.7464957466      -14.7937146635  WZ2       1842            0.0000000000
      8512      2838  TIP3      OH2            35.5487096015       -4.9941257466      -13.5717146635  WZ2       1843            0.0000000000
      8513      2838  TIP3      H1             35.2143896015       -5.8743957466      -13.3996946635  WZ2       1843            0.0000000000
      8514      2838  TIP3      H2             35.7709496015       -4.6486257466      -12.7071546635  WZ2       1843            0.0000000000
      8515      2839  TIP3      OH2            37.2205396015       -7.1654057466       -4.4759646635  WZ2       1850            0.0000000000
      8516      2839  TIP3      H1             36.3997896015       -6.9907557466       -4.9364946635  WZ2       1850            0.0000000000
      8517      2839  TIP3      H2             36.9683196015       -7.2389357466       -3.5555246635  WZ2       1850            0.0000000000
      8518      2840  TIP3      OH2            37.5764996015       -2.9348957466       -8.1700346635  WZ2       1852            0.0000000000
      8519      2840  TIP3      H1             36.8561396015       -2.4947957466       -8.6212646635  WZ2       1852            0.0000000000
      8520      2840  TIP3      H2             37.2108996015       -3.1854257466       -7.3216346635  WZ2       1852            0.0000000000
      8521      2841  TIP3      OH2            36.9913096015       -4.3116457466      -11.2598546635  WZ2       1854            0.0000000000
      8522      2841  TIP3      H1             36.9729096015       -4.7371357466      -10.4026246635  WZ2       1854            0.0000000000
      8523      2841  TIP3      H2             37.7960996015       -4.6301457466      -11.6686346635  WZ2       1854            0.0000000000
      8524      2842  TIP3      OH2            36.2422796015       -5.0877257466      -18.0886246635  WZ2       1858            0.0000000000
      8525      2842  TIP3      H1             35.5572696015       -5.1258357466      -18.7561146635  WZ2       1858            0.0000000000
      8526      2842  TIP3      H2             36.2459996015       -4.1749657466      -17.8004146635  WZ2       1858            0.0000000000
      8527      2843  TIP3      OH2           -28.8407503985        7.1784742534      -14.8309946635  WZ2       1863            0.0000000000
      8528      2843  TIP3      H1            -28.7516403985        8.1222942534      -14.9632846635  WZ2       1863            0.0000000000
      8529      2843  TIP3      H2            -29.4789903985        6.9031142534      -15.4890546635  WZ2       1863            0.0000000000
      8530      2844  TIP3      OH2           -29.9076203985        6.4335442534      -11.4121746635  WZ2       1864            0.0000000000
      8531      2844  TIP3      H1            -29.9458703985        5.7871742534      -10.7072146635  WZ2       1864            0.0000000000
      8532      2844  TIP3      H2            -30.2299703985        5.9669842534      -12.1833046635  WZ2       1864            0.0000000000
      8533      2845  TIP3      OH2           -26.2016003985        9.3725842534      -13.1106646635  WZ2       1866            0.0000000000
      8534      2845  TIP3      H1            -26.6423303985        8.6521842534      -12.6601046635  WZ2       1866            0.0000000000
      8535      2845  TIP3      H2            -26.2146303985       10.0933042534      -12.4808946635  WZ2       1866            0.0000000000
      8536      2846  TIP3      OH2           -29.0900503985       14.4767542534      -12.8986246635  WZ2       1870            0.0000000000
      8537      2846  TIP3      H1            -28.4704103985       13.8002242534      -13.1717046635  WZ2       1870            0.0000000000
      8538      2846  TIP3      H2            -29.2983103985       14.2588342534      -11.9901346635  WZ2       1870            0.0000000000
      8539      2847  TIP3      OH2           -31.5181803985        8.8656842534      -11.0060746635  WZ2       1871            0.0000000000
      8540      2847  TIP3      H1            -31.2143903985        8.1798242534      -11.6006646635  WZ2       1871            0.0000000000
      8541      2847  TIP3      H2            -30.7967803985        8.9845542534      -10.3882746635  WZ2       1871            0.0000000000
      8542      2848  TIP3      OH2           -22.8552003985        0.4672142534      -10.1454546635  WZ2       1872            0.0000000000
      8543      2848  TIP3      H1            -22.8059803985        1.0773342534       -9.4095446635  WZ2       1872            0.0000000000
      8544      2848  TIP3      H2            -22.4296903985        0.9283042534      -10.8683446635  WZ2       1872            0.0000000000
      8545      2849  TIP3      OH2           -28.3774803985        3.2599242534      -10.6785946635  WZ2       1873            0.0000000000
      8546      2849  TIP3      H1            -28.2348903985        2.3136242534      -10.6584346635  WZ2       1873            0.0000000000
      8547      2849  TIP3      H2            -28.4835803985        3.4669042534      -11.6071046635  WZ2       1873            0.0000000000
      8548      2850  TIP3      OH2           -35.2226503985        1.3615642534      -13.4061146635  WZ2       1874            0.0000000000
      8549      2850  TIP3      H1            -35.1795403985        2.2214142534      -13.8244846635  WZ2       1874            0.0000000000
      8550      2850  TIP3      H2            -35.6802403985        0.8090342534      -14.0397946635  WZ2       1874            0.0000000000
      8551      2851  TIP3      OH2           -27.5003803985        1.4921242534      -15.0052846635  WZ2       1875            0.0000000000
      8552      2851  TIP3      H1            -26.8539503985        1.1634442534      -14.3805246635  WZ2       1875            0.0000000000
      8553      2851  TIP3      H2            -26.9904403985        2.0100242534      -15.6281446635  WZ2       1875            0.0000000000
      8554      2852  TIP3      OH2           -33.4460503985        5.3082742534      -13.4288246635  WZ2       1877            0.0000000000
      8555      2852  TIP3      H1            -32.8299503985        4.7818142534      -12.9194246635  WZ2       1877            0.0000000000
      8556      2852  TIP3      H2            -34.0321703985        4.6681442534      -13.8324646635  WZ2       1877            0.0000000000
      8557      2853  TIP3      OH2           -22.4637403985        1.9451342534       -7.9094746635  WZ2       1878            0.0000000000
      8558      2853  TIP3      H1            -23.1522803985        2.6032042534       -8.0048146635  WZ2       1878            0.0000000000
      8559      2853  TIP3      H2            -22.4482803985        1.7479242534       -6.9729346635  WZ2       1878            0.0000000000
      8560      2854  TIP3      OH2           -36.4124603985        0.2794042534       -9.3320346635  WZ2       1879            0.0000000000
      8561      2854  TIP3      H1            -36.6312903985        0.8094642534      -10.0984346635  WZ2       1879            0.0000000000
      8562      2854  TIP3      H2            -37.0803703985        0.5059542534       -8.6848946635  WZ2       1879            0.0000000000
      8563      2855  TIP3      OH2           -29.0434803985        9.7795142534      -15.7881246635  WZ2       1880            0.0000000000
      8564      2855  TIP3      H1            -29.3389703985        9.4567442534      -16.6394346635  WZ2       1880            0.0000000000
      8565      2855  TIP3      H2            -29.3677003985       10.6791842534      -15.7468646635  WZ2       1880            0.0000000000
      8566      2856  TIP3      OH2           -33.8433203985        7.9549742534       -9.0446646635  WZ2       1881            0.0000000000
      8567      2856  TIP3      H1            -34.5834103985        8.5531242534       -8.9411446635  WZ2       1881            0.0000000000
      8568      2856  TIP3      H2            -33.1293703985        8.5089342534       -9.3603046635  WZ2       1881            0.0000000000
      8569      2857  TIP3      OH2           -25.7365403985        0.7830542534      -13.0246946635  WZ2       1882            0.0000000000
      8570      2857  TIP3      H1            -25.9517403985        0.0173942534      -12.4920946635  WZ2       1882            0.0000000000
      8571      2857  TIP3      H2            -25.0808003985        1.2555142534      -12.5118446635  WZ2       1882            0.0000000000
      8572      2858  TIP3      OH2           -36.8187303985        2.1715842534      -11.3798146635  WZ2       1883            0.0000000000
      8573      2858  TIP3      H1            -36.2051003985        2.8043442534      -11.0065746635  WZ2       1883            0.0000000000
      8574      2858  TIP3      H2            -36.3066603985        1.6990842534      -12.0361246635  WZ2       1883            0.0000000000
      8575      2859  TIP3      OH2           -25.6898303985       11.2116542534      -10.7627346635  WZ2       1886            0.0000000000
      8576      2859  TIP3      H1            -26.6314603985       11.2700442534      -10.6010446635  WZ2       1886            0.0000000000
      8577      2859  TIP3      H2            -25.4132203985       12.1177042534      -10.8997646635  WZ2       1886            0.0000000000
      8578      2860  TIP3      OH2           -25.3891303985       -0.5018157466       -9.3453446635  WZ2       1887            0.0000000000
      8579      2860  TIP3      H1            -26.1252103985        0.1088942534       -9.3832146635  WZ2       1887            0.0000000000
      8580      2860  TIP3      H2            -24.7057303985       -0.0869157466       -9.8717046635  WZ2       1887            0.0000000000
      8581      2861  TIP3      OH2           -32.3859903985       -2.4150857466      -11.8795446635  WZ2       1888            0.0000000000
      8582      2861  TIP3      H1            -32.5035703985       -3.3634857466      -11.9337146635  WZ2       1888            0.0000000000
      8583      2861  TIP3      H2            -33.2409803985       -2.0824757466      -11.6064346635  WZ2       1888            0.0000000000
      8584      2862  TIP3      OH2           -27.4377103985       12.9930042534      -14.1375746635  WZ2       1889            0.0000000000
      8585      2862  TIP3      H1            -27.0124803985       12.2857942534      -14.6226146635  WZ2       1889            0.0000000000
      8586      2862  TIP3      H2            -27.1207103985       13.7942742534      -14.5543546635  WZ2       1889            0.0000000000
      8587      2863  TIP3      OH2           -26.2780603985       10.8938542534      -15.6289146635  WZ2       1890            0.0000000000
      8588      2863  TIP3      H1            -26.5355803985       10.2038642534      -16.2403246635  WZ2       1890            0.0000000000
      8589      2863  TIP3      H2            -26.2069803985       10.4509742534      -14.7833246635  WZ2       1890            0.0000000000
      8590      2864  TIP3      OH2           -24.5920403985        9.4605242534       -7.1515646635  WZ2       1891            0.0000000000
      8591      2864  TIP3      H1            -24.4524103985        8.8687742534       -7.8908646635  WZ2       1891            0.0000000000
      8592      2864  TIP3      H2            -24.4247603985       10.3331142534       -7.5076846635  WZ2       1891            0.0000000000
      8593      2865  TIP3      OH2           -30.1195003985        6.4224742534      -17.3789646635  WZ2       1892            0.0000000000
      8594      2865  TIP3      H1            -30.8309503985        6.9574442534      -17.7309146635  WZ2       1892            0.0000000000
      8595      2865  TIP3      H2            -29.4285403985        6.4776842534      -18.0390746635  WZ2       1892            0.0000000000
      8596      2866  TIP3      OH2           -30.0655803985        4.8799042534      -20.3404646635  WZ2       1893            0.0000000000
      8597      2866  TIP3      H1            -29.3645903985        4.9025942534      -19.6890646635  WZ2       1893            0.0000000000
      8598      2866  TIP3      H2            -29.7632903985        4.2518742534      -20.9965346635  WZ2       1893            0.0000000000
      8599      2867  TIP3      OH2           -22.7501103985        5.8003242534       -9.0855246635  WZ2       1894            0.0000000000
      8600      2867  TIP3      H1            -23.4027003985        6.4948842534       -8.9964346635  WZ2       1894            0.0000000000
      8601      2867  TIP3      H2            -22.2850803985        6.0104142534       -9.8953646635  WZ2       1894            0.0000000000
      8602      2868  TIP3      OH2           -26.7137303985        6.6318042534      -16.4273746635  WZ2       1895            0.0000000000
      8603      2868  TIP3      H1            -27.4456303985        6.8601742534      -15.8543146635  WZ2       1895            0.0000000000
      8604      2868  TIP3      H2            -26.2665103985        5.9180742534      -15.9726246635  WZ2       1895            0.0000000000
      8605      2869  TIP3      OH2           -26.8163803985        4.8060642534       -7.3596746635  WZ2       1896            0.0000000000
      8606      2869  TIP3      H1            -26.7364703985        5.5695042534       -6.7878246635  WZ2       1896            0.0000000000
      8607      2869  TIP3      H2            -27.4176103985        5.0853042534       -8.0501646635  WZ2       1896            0.0000000000
      8608      2870  TIP3      OH2           -35.0683603985        7.2624242534      -14.5448746635  WZ2       1897            0.0000000000
      8609      2870  TIP3      H1            -35.3988403985        6.8917642534      -15.3631746635  WZ2       1897            0.0000000000
      8610      2870  TIP3      H2            -34.4799503985        6.5918242534      -14.1980446635  WZ2       1897            0.0000000000
      8611      2871  TIP3      OH2           -33.7016103985       10.6904842534      -11.8636546635  WZ2       1898            0.0000000000
      8612      2871  TIP3      H1            -33.7964803985       10.1117942534      -12.6201946635  WZ2       1898            0.0000000000
      8613      2871  TIP3      H2            -32.9722503985       10.3190542534      -11.3673746635  WZ2       1898            0.0000000000
      8614      2872  TIP3      OH2           -34.7018103985        6.0309842534      -10.9113746635  WZ2       1899            0.0000000000
      8615      2872  TIP3      H1            -34.1365603985        6.1524042534      -11.6742546635  WZ2       1899            0.0000000000
      8616      2872  TIP3      H2            -34.3829203985        6.6684842534      -10.2725246635  WZ2       1899            0.0000000000
      8617      2873  TIP3      OH2           -28.3925903985       11.5341742534      -10.1773246635  WZ2       1900            0.0000000000
      8618      2873  TIP3      H1            -28.6329303985       12.1964842534       -9.5294046635  WZ2       1900            0.0000000000
      8619      2873  TIP3      H2            -28.5907703985       10.6996942534       -9.7523646635  WZ2       1900            0.0000000000
      8620      2874  TIP3      OH2           -33.8217403985       10.4302542534       -6.1941846635  WZ2       1901            0.0000000000
      8621      2874  TIP3      H1            -34.1329903985       11.2125742534       -5.7388646635  WZ2       1901            0.0000000000
      8622      2874  TIP3      H2            -34.4717203985       10.2771642534       -6.8799846635  WZ2       1901            0.0000000000
      8623      2875  TIP3      OH2           -27.8427803985        5.7940942534      -18.7422546635  WZ2       1902            0.0000000000
      8624      2875  TIP3      H1            -27.2632303985        5.9441242534      -17.9953646635  WZ2       1902            0.0000000000
      8625      2875  TIP3      H2            -27.4287803985        6.2648342534      -19.4656146635  WZ2       1902            0.0000000000
      8626      2876  TIP3      OH2           -30.1162903985       12.5309442534      -15.3069446635  WZ2       1904            0.0000000000
      8627      2876  TIP3      H1            -29.6425303985       12.8265742534      -14.5295246635  WZ2       1904            0.0000000000
      8628      2876  TIP3      H2            -30.6793603985       13.2691042534      -15.5399846635  WZ2       1904            0.0000000000
      8629      2877  TIP3      OH2           -24.1439403985       -2.4558657466      -18.9292846635  WZ2       1906            0.0000000000
      8630      2877  TIP3      H1            -25.0438703985       -2.3169657466      -18.6342246635  WZ2       1906            0.0000000000
      8631      2877  TIP3      H2            -23.8921003985       -1.6244057466      -19.3311146635  WZ2       1906            0.0000000000
      8632      2878  TIP3      OH2           -36.0780903985        6.3318542534      -16.9555946635  WZ2       1907            0.0000000000
      8633      2878  TIP3      H1            -36.3699603985        7.1000242534      -17.4464646635  WZ2       1907            0.0000000000
      8634      2878  TIP3      H2            -36.7525703985        5.6724742534      -17.1184546635  WZ2       1907            0.0000000000
      8635      2879  TIP3      OH2           -22.9548003985       11.9103742534      -20.5528946635  WZ2       1908            0.0000000000
      8636      2879  TIP3      H1            -22.8814503985       12.8493942534      -20.3823646635  WZ2       1908            0.0000000000
      8637      2879  TIP3      H2            -22.0492903985       11.6052342534      -20.6091646635  WZ2       1908            0.0000000000
      8638      2880  TIP3      OH2           -22.0369603985       12.1411242534       -5.5742246635  WZ2       1911            0.0000000000
      8639      2880  TIP3      H1            -22.0862803985       11.1859342534       -5.6114646635  WZ2       1911            0.0000000000
      8640      2880  TIP3      H2            -22.8637303985       12.4086542534       -5.1728446635  WZ2       1911            0.0000000000
      8641      2881  TIP3      OH2           -31.0585603985       11.7150442534       -6.6980846635  WZ2       1912            0.0000000000
      8642      2881  TIP3      H1            -30.9711003985       12.5415042534       -6.2231746635  WZ2       1912            0.0000000000
      8643      2881  TIP3      H2            -31.9220503985       11.3854242534       -6.4491546635  WZ2       1912            0.0000000000
      8644      2882  TIP3      OH2           -30.6439803985       15.4874142534      -16.8920246635  WZ2       1913            0.0000000000
      8645      2882  TIP3      H1            -30.7193803985       15.3661342534      -17.8385046635  WZ2       1913            0.0000000000
      8646      2882  TIP3      H2            -30.6111103985       16.4366842534      -16.7735646635  WZ2       1913            0.0000000000
      8647      2883  TIP3      OH2           -27.5423803985       14.6414342534      -19.8897846635  WZ2       1915            0.0000000000
      8648      2883  TIP3      H1            -27.1675403985       13.8970442534      -20.3605246635  WZ2       1915            0.0000000000
      8649      2883  TIP3      H2            -27.5380103985       14.3714942534      -18.9714546635  WZ2       1915            0.0000000000
      8650      2884  TIP3      OH2           -27.8735703985       14.5671442534      -17.1405646635  WZ2       1916            0.0000000000
      8651      2884  TIP3      H1            -28.8085903985       14.6673342534      -16.9618646635  WZ2       1916            0.0000000000
      8652      2884  TIP3      H2            -27.5933803985       13.8577442534      -16.5622446635  WZ2       1916            0.0000000000
      8653      2885  TIP3      OH2           -24.8849803985        3.6343742534       -5.0940046635  WZ2       1917            0.0000000000
      8654      2885  TIP3      H1            -25.2923003985        4.1149342534       -5.8146746635  WZ2       1917            0.0000000000
      8655      2885  TIP3      H2            -24.8444103985        2.7289742534       -5.4019246635  WZ2       1917            0.0000000000
      8656      2886  TIP3      OH2           -35.1172303985       -1.5116357466      -11.1019146635  WZ2       1919            0.0000000000
      8657      2886  TIP3      H1            -35.9788603985       -1.5988157466      -11.5096246635  WZ2       1919            0.0000000000
      8658      2886  TIP3      H2            -35.1396603985       -0.6556257466      -10.6741546635  WZ2       1919            0.0000000000
      8659      2887  TIP3      OH2           -30.4544503985       -1.7895957466       -7.7272146635  WZ2       1920            0.0000000000
      8660      2887  TIP3      H1            -30.0341403985       -2.2048857466       -6.9741546635  WZ2       1920            0.0000000000
      8661      2887  TIP3      H2            -31.3874903985       -1.9682657466       -7.6100146635  WZ2       1920            0.0000000000
      8662      2888  TIP3      OH2           -27.1279603985        1.9659242534       -6.8737646635  WZ2       1921            0.0000000000
      8663      2888  TIP3      H1            -27.6420103985        1.8401442534       -6.0761646635  WZ2       1921            0.0000000000
      8664      2888  TIP3      H2            -27.2834903985        2.8782342534       -7.1181446635  WZ2       1921            0.0000000000
      8665      2889  TIP3      OH2           -26.3654703985        6.8269242534      -21.1124646635  WZ2       1922            0.0000000000
      8666      2889  TIP3      H1            -26.3233903985        6.6043142534      -22.0424646635  WZ2       1922            0.0000000000
      8667      2889  TIP3      H2            -25.5162603985        7.2256342534      -20.9224746635  WZ2       1922            0.0000000000
      8668      2890  TIP3      OH2           -30.7927203985        0.7027442534      -20.4421346635  WZ2       1923            0.0000000000
      8669      2890  TIP3      H1            -31.0462403985        0.7219042534      -19.5193246635  WZ2       1923            0.0000000000
      8670      2890  TIP3      H2            -31.0495103985       -0.1687157466      -20.7435146635  WZ2       1923            0.0000000000
      8671      2891  TIP3      OH2           -35.0262203985        3.4538142534      -10.0068946635  WZ2       1924            0.0000000000
      8672      2891  TIP3      H1            -35.6680103985        3.4135442534       -9.2978846635  WZ2       1924            0.0000000000
      8673      2891  TIP3      H2            -34.9890203985        4.3802842534      -10.2445946635  WZ2       1924            0.0000000000
      8674      2892  TIP3      OH2           -35.0293103985        3.6748242534      -15.0948946635  WZ2       1925            0.0000000000
      8675      2892  TIP3      H1            -35.9220203985        3.3344342534      -15.1535146635  WZ2       1925            0.0000000000
      8676      2892  TIP3      H2            -34.5786503985        3.2979142534      -15.8505746635  WZ2       1925            0.0000000000
      8677      2893  TIP3      OH2           -29.4937603985        4.0908542534      -16.2778146635  WZ2       1926            0.0000000000
      8678      2893  TIP3      H1            -29.9027303985        4.9057142534      -16.5693346635  WZ2       1926            0.0000000000
      8679      2893  TIP3      H2            -28.7731403985        3.9508642534      -16.8921046635  WZ2       1926            0.0000000000
      8680      2894  TIP3      OH2           -30.3916003985        4.2664942534       -4.7897446635  WZ2       1927            0.0000000000
      8681      2894  TIP3      H1            -30.9542203985        3.5616542534       -4.4689646635  WZ2       1927            0.0000000000
      8682      2894  TIP3      H2            -29.5652603985        4.1456842534       -4.3219846635  WZ2       1927            0.0000000000
      8683      2895  TIP3      OH2           -28.4889903985        3.5368942534      -13.4638446635  WZ2       1928            0.0000000000
      8684      2895  TIP3      H1            -28.6845403985        4.1425742534      -14.1787846635  WZ2       1928            0.0000000000
      8685      2895  TIP3      H2            -28.3077303985        2.7034142534      -13.8982146635  WZ2       1928            0.0000000000
      8686      2896  TIP3      OH2           -37.2761703985        3.7741642534       -8.1396946635  WZ2       1929            0.0000000000
      8687      2896  TIP3      H1            -37.3142303985        4.1743242534       -7.2709846635  WZ2       1929            0.0000000000
      8688      2896  TIP3      H2            -37.7670603985        2.9574042534       -8.0494046635  WZ2       1929            0.0000000000
      8689      2897  TIP3      OH2           -33.9104303985        1.1483942534      -21.3410946635  WZ2       1930            0.0000000000
      8690      2897  TIP3      H1            -34.3413603985        0.7034042534      -20.6113546635  WZ2       1930            0.0000000000
      8691      2897  TIP3      H2            -34.6285603985        1.5200242534      -21.8533446635  WZ2       1930            0.0000000000
      8692      2898  TIP3      OH2           -29.2250703985        5.1750242534       -8.7926046635  WZ2       1933            0.0000000000
      8693      2898  TIP3      H1            -28.9015903985        4.5439942534       -9.4355546635  WZ2       1933            0.0000000000
      8694      2898  TIP3      H2            -29.6651403985        4.6402442534       -8.1318646635  WZ2       1933            0.0000000000
      8695      2899  TIP3      OH2           -32.4477803985        1.1025742534      -14.0084846635  WZ2       1934            0.0000000000
      8696      2899  TIP3      H1            -33.3586703985        1.1592542534      -13.7198846635  WZ2       1934            0.0000000000
      8697      2899  TIP3      H2            -31.9424903985        1.0421242534      -13.1977646635  WZ2       1934            0.0000000000
      8698      2900  TIP3      OH2           -37.6194403985        2.7312042534      -15.1817246635  WZ2       1935            0.0000000000
      8699      2900  TIP3      H1            -38.5086403985        2.8307542534      -15.5217646635  WZ2       1935            0.0000000000
      8700      2900  TIP3      H2            -37.3229503985        1.8895042534      -15.5279346635  WZ2       1935            0.0000000000
      8701      2901  TIP3      OH2           -33.9662603985        2.7314642534      -17.5252646635  WZ2       1936            0.0000000000
      8702      2901  TIP3      H1            -33.0347103985        2.8604642534      -17.3469546635  WZ2       1936            0.0000000000
      8703      2901  TIP3      H2            -34.1812303985        3.4008942534      -18.1747946635  WZ2       1936            0.0000000000
      8704      2902  TIP3      OH2           -28.0425903985        0.3372042534      -10.7443046635  WZ2       1937            0.0000000000
      8705      2902  TIP3      H1            -28.7194303985        0.4685142534      -10.0803346635  WZ2       1937            0.0000000000
      8706      2902  TIP3      H2            -28.5281003985        0.1821542534      -11.5545346635  WZ2       1937            0.0000000000
      8707      2903  TIP3      OH2           -35.2922403985        3.9256842534      -19.9586546635  WZ2       1938            0.0000000000
      8708      2903  TIP3      H1            -35.8347303985        3.5460642534      -20.6498946635  WZ2       1938            0.0000000000
      8709      2903  TIP3      H2            -34.4587503985        4.1201542534      -20.3872446635  WZ2       1938            0.0000000000
      8710      2904  TIP3      OH2           -24.7550803985       16.0087442534       -4.4675446635  WZ2       1939            0.0000000000
      8711      2904  TIP3      H1            -24.5552103985       16.4329342534       -5.3020146635  WZ2       1939            0.0000000000
      8712      2904  TIP3      H2            -24.0997103985       16.3525642534       -3.8605046635  WZ2       1939            0.0000000000
      8713      2905  TIP3      OH2           -31.1278103985        3.8898742534      -12.1215246635  WZ2       1941            0.0000000000
      8714      2905  TIP3      H1            -30.5634703985        3.3435342534      -12.6685646635  WZ2       1941            0.0000000000
      8715      2905  TIP3      H2            -31.2754703985        3.3680642534      -11.3327646635  WZ2       1941            0.0000000000
      8716      2906  TIP3      OH2           -36.1258403985        0.0264842534      -15.7030446635  WZ2       1942            0.0000000000
      8717      2906  TIP3      H1            -36.4428903985       -0.8759857466      -15.7385046635  WZ2       1942            0.0000000000
      8718      2906  TIP3      H2            -35.3444303985        0.0282242534      -16.2558846635  WZ2       1942            0.0000000000
      8719      2907  TIP3      OH2           -32.5012203985        2.2784842534       -9.7074846635  WZ2       1943            0.0000000000
      8720      2907  TIP3      H1            -33.3366903985        2.7324342534       -9.5972446635  WZ2       1943            0.0000000000
      8721      2907  TIP3      H2            -31.9771603985        2.5543342534       -8.9554946635  WZ2       1943            0.0000000000
      8722      2908  TIP3      OH2           -31.9569603985        8.4912542534      -18.0228446635  WZ2       1944            0.0000000000
      8723      2908  TIP3      H1            -32.7018603985        7.9837842534      -18.3450546635  WZ2       1944            0.0000000000
      8724      2908  TIP3      H2            -32.0912403985        8.5400542534      -17.0763646635  WZ2       1944            0.0000000000
      8725      2909  TIP3      OH2           -24.8070703985        7.6240742534       -9.2360846635  WZ2       1945            0.0000000000
      8726      2909  TIP3      H1            -24.1651903985        8.0807042534       -9.7798646635  WZ2       1945            0.0000000000
      8727      2909  TIP3      H2            -25.6373803985        7.7373142534       -9.6986746635  WZ2       1945            0.0000000000
      8728      2910  TIP3      OH2           -28.0592803985        1.3052442534      -19.8235846635  WZ2       1946            0.0000000000
      8729      2910  TIP3      H1            -28.9978603985        1.4168042534      -19.9747046635  WZ2       1946            0.0000000000
      8730      2910  TIP3      H2            -27.7620703985        2.1619342534      -19.5170146635  WZ2       1946            0.0000000000
      8731      2911  TIP3      OH2           -30.4377503985        8.6755842534       -6.7859346635  WZ2       1947            0.0000000000
      8732      2911  TIP3      H1            -30.7831403985        8.2938242534       -5.9789746635  WZ2       1947            0.0000000000
      8733      2911  TIP3      H2            -30.6377403985        9.6089442534       -6.7146446635  WZ2       1947            0.0000000000
      8734      2912  TIP3      OH2           -27.3409303985        3.1725142534      -18.1628446635  WZ2       1948            0.0000000000
      8735      2912  TIP3      H1            -26.4490303985        3.0350142534      -17.8437246635  WZ2       1948            0.0000000000
      8736      2912  TIP3      H2            -27.2845703985        3.9631242534      -18.6994946635  WZ2       1948            0.0000000000
      8737      2913  TIP3      OH2           -36.8321303985        7.7862542534      -12.2530546635  WZ2       1949            0.0000000000
      8738      2913  TIP3      H1            -36.0874103985        7.7838242534      -12.8544046635  WZ2       1949            0.0000000000
      8739      2913  TIP3      H2            -36.7544703985        6.9626342534      -11.7715446635  WZ2       1949            0.0000000000
      8740      2914  TIP3      OH2           -29.8315503985        9.9496842534      -18.9973846635  WZ2       1950            0.0000000000
      8741      2914  TIP3      H1            -30.1267103985       10.7764742534      -18.6159046635  WZ2       1950            0.0000000000
      8742      2914  TIP3      H2            -30.5345503985        9.3303742534      -18.8012446635  WZ2       1950            0.0000000000
      8743      2915  TIP3      OH2           -32.8076703985        5.7639342534       -4.7252346635  WZ2       1952            0.0000000000
      8744      2915  TIP3      H1            -33.1035903985        5.5982342534       -5.6203246635  WZ2       1952            0.0000000000
      8745      2915  TIP3      H2            -31.8761503985        5.5439642534       -4.7358446635  WZ2       1952            0.0000000000
      8746      2916  TIP3      OH2           -28.1873903985       11.1371342534       -6.8354346635  WZ2       1953            0.0000000000
      8747      2916  TIP3      H1            -29.0879603985       11.3203942534       -7.1030446635  WZ2       1953            0.0000000000
      8748      2916  TIP3      H2            -28.1532803985       11.3960642534       -5.9145546635  WZ2       1953            0.0000000000
      8749      2917  TIP3      OH2           -22.4560603985        3.3819242534      -18.4681746635  WZ2       1954            0.0000000000
      8750      2917  TIP3      H1            -23.0104303985        2.9857242534      -19.1404246635  WZ2       1954            0.0000000000
      8751      2917  TIP3      H2            -22.3557003985        4.2924442534      -18.7458446635  WZ2       1954            0.0000000000
      8752      2918  TIP3      OH2           -22.4928603985        9.1820942534       -5.6310246635  WZ2       1955            0.0000000000
      8753      2918  TIP3      H1            -23.3440103985        9.4204742534       -5.9983846635  WZ2       1955            0.0000000000
      8754      2918  TIP3      H2            -21.9025203985        9.1654142534       -6.3843146635  WZ2       1955            0.0000000000
      8755      2919  TIP3      OH2           -24.1608903985       12.1679642534      -18.0029646635  WZ2       1956            0.0000000000
      8756      2919  TIP3      H1            -24.5337803985       11.3423442534      -17.6939046635  WZ2       1956            0.0000000000
      8757      2919  TIP3      H2            -23.8835403985       11.9849042534      -18.9006246635  WZ2       1956            0.0000000000
      8758      2920  TIP3      OH2           -27.0005003985        6.9759142534      -10.9817746635  WZ2       1957            0.0000000000
      8759      2920  TIP3      H1            -27.9288103985        6.7441042534      -11.0088446635  WZ2       1957            0.0000000000
      8760      2920  TIP3      H2            -26.5493903985        6.1988942534      -11.3118946635  WZ2       1957            0.0000000000
      8761      2921  TIP3      OH2           -34.4571903985       11.3040742534      -14.8489046635  WZ2       1958            0.0000000000
      8762      2921  TIP3      H1            -33.9299703985       12.0775142534      -15.0490246635  WZ2       1958            0.0000000000
      8763      2921  TIP3      H2            -35.3373403985       11.5289942534      -15.1505046635  WZ2       1958            0.0000000000
      8764      2922  TIP3      OH2           -33.0299603985        8.9670642534      -15.2724746635  WZ2       1960            0.0000000000
      8765      2922  TIP3      H1            -33.2709603985        9.8925042534      -15.2309446635  WZ2       1960            0.0000000000
      8766      2922  TIP3      H2            -33.7706003985        8.5081942534      -14.8760846635  WZ2       1960            0.0000000000
      8767      2923  TIP3      OH2           -32.5153003985       13.1164242534       -8.9573646635  WZ2       1961            0.0000000000
      8768      2923  TIP3      H1            -32.1528303985       13.9709842534       -9.1909246635  WZ2       1961            0.0000000000
      8769      2923  TIP3      H2            -31.9837803985       12.8245842534       -8.2167346635  WZ2       1961            0.0000000000
      8770      2924  TIP3      OH2           -28.9712203985        9.2154942534       -9.2568046635  WZ2       1963            0.0000000000
      8771      2924  TIP3      H1            -29.3970903985        8.9876642534       -8.4304046635  WZ2       1963            0.0000000000
      8772      2924  TIP3      H2            -28.3906403985        8.4766742534       -9.4392746635  WZ2       1963            0.0000000000
      8773      2925  TIP3      OH2           -26.7683303985       10.1445442534      -20.1829046635  WZ2       1964            0.0000000000
      8774      2925  TIP3      H1            -26.4150203985        9.7645242534      -19.3785546635  WZ2       1964            0.0000000000
      8775      2925  TIP3      H2            -27.7169803985       10.0510242534      -20.0959746635  WZ2       1964            0.0000000000
      8776      2926  TIP3      OH2           -26.3128003985       13.7674442534       -6.7873246635  WZ2       1965            0.0000000000
      8777      2926  TIP3      H1            -26.9144803985       13.2117342534       -7.2826946635  WZ2       1965            0.0000000000
      8778      2926  TIP3      H2            -26.0314303985       14.4344242534       -7.4135846635  WZ2       1965            0.0000000000
      8779      2927  TIP3      OH2           -22.2648903985       14.6237942534      -19.9818846635  WZ2       1966            0.0000000000
      8780      2927  TIP3      H1            -21.5211003985       15.2098442534      -20.1217246635  WZ2       1966            0.0000000000
      8781      2927  TIP3      H2            -22.9590803985       15.1923742534      -19.6486446635  WZ2       1966            0.0000000000
      8782      2928  TIP3      OH2           -38.1902103985        1.0002142534       -7.3800646635  WZ2       1967            0.0000000000
      8783      2928  TIP3      H1            -39.0829803985        1.3387542534       -7.4476646635  WZ2       1967            0.0000000000
      8784      2928  TIP3      H2            -38.2889303985        0.1448242534       -6.9619846635  WZ2       1967            0.0000000000
      8785      2929  TIP3      OH2           -25.9024003985        8.8167442534      -17.9561146635  WZ2       1968            0.0000000000
      8786      2929  TIP3      H1            -26.1796403985        8.0886742534      -17.4000046635  WZ2       1968            0.0000000000
      8787      2929  TIP3      H2            -24.9751003985        8.9359442534      -17.7508546635  WZ2       1968            0.0000000000
      8788      2930  TIP3      OH2           -32.6775503985       11.2561542534      -21.7359046635  WZ2       1970            0.0000000000
      8789      2930  TIP3      H1            -32.4385703985       10.5079642534      -22.2830146635  WZ2       1970            0.0000000000
      8790      2930  TIP3      H2            -32.9464203985       10.8683242534      -20.9031246635  WZ2       1970            0.0000000000
      8791      2931  TIP3      OH2           -33.7404903985       10.8265342534      -19.2796446635  WZ2       1971            0.0000000000
      8792      2931  TIP3      H1            -33.5936903985       10.3065142534      -18.4895546635  WZ2       1971            0.0000000000
      8793      2931  TIP3      H2            -33.7433203985       11.7332942534      -18.9730546635  WZ2       1971            0.0000000000
      8794      2932  TIP3      OH2           -29.4558703985        0.7412442534       -8.4902046635  WZ2       1973            0.0000000000
      8795      2932  TIP3      H1            -28.7570803985        0.8151142534       -7.8402346635  WZ2       1973            0.0000000000
      8796      2932  TIP3      H2            -29.8367303985       -0.1232557466       -8.3359146635  WZ2       1973            0.0000000000
      8797      2933  TIP3      OH2           -28.6713803985        0.3934142534      -17.3929746635  WZ2       1974            0.0000000000
      8798      2933  TIP3      H1            -28.4515503985        0.8649542534      -18.1964346635  WZ2       1974            0.0000000000
      8799      2933  TIP3      H2            -28.1129803985        0.7876742534      -16.7229146635  WZ2       1974            0.0000000000
      8800      2934  TIP3      OH2           -31.0027703985       12.5238942534      -18.5302246635  WZ2       1975            0.0000000000
      8801      2934  TIP3      H1            -31.8191603985       13.0208642534      -18.4777946635  WZ2       1975            0.0000000000
      8802      2934  TIP3      H2            -30.4731403985       12.9992442534      -19.1703446635  WZ2       1975            0.0000000000
      8803      2935  TIP3      OH2           -31.4713903985        2.1212942534      -16.5581346635  WZ2       1976            0.0000000000
      8804      2935  TIP3      H1            -30.6591303985        2.6256142534      -16.5119646635  WZ2       1976            0.0000000000
      8805      2935  TIP3      H2            -31.7160903985        1.9762642534      -15.6441746635  WZ2       1976            0.0000000000
      8806      2936  TIP3      OH2           -30.9357503985        3.1075642534       -7.3734746635  WZ2       1977            0.0000000000
      8807      2936  TIP3      H1            -30.8167203985        3.6811042534       -6.6164346635  WZ2       1977            0.0000000000
      8808      2936  TIP3      H2            -30.2802903985        2.4195042534       -7.2586946635  WZ2       1977            0.0000000000
      8809      2937  TIP3      OH2           -30.5877203985       -0.7974057466      -15.6200246635  WZ2       1978            0.0000000000
      8810      2937  TIP3      H1            -30.9343703985       -0.1803457466      -14.9755946635  WZ2       1978            0.0000000000
      8811      2937  TIP3      H2            -29.9290303985       -0.2968357466      -16.1014746635  WZ2       1978            0.0000000000
      8812      2938  TIP3      OH2           -33.6644603985       13.5676142534      -18.5485346635  WZ2       1979            0.0000000000
      8813      2938  TIP3      H1            -33.5035903985       14.3673642534      -19.0492746635  WZ2       1979            0.0000000000
      8814      2938  TIP3      H2            -33.8616803985       13.8742142534      -17.6634746635  WZ2       1979            0.0000000000
      8815      2939  TIP3      OH2           -34.9300203985        0.2655342534      -18.9327746635  WZ2       1980            0.0000000000
      8816      2939  TIP3      H1            -35.0135403985        1.1538442534      -18.5861346635  WZ2       1980            0.0000000000
      8817      2939  TIP3      H2            -34.0399903985        0.0002042534      -18.7010946635  WZ2       1980            0.0000000000
      8818      2940  TIP3      OH2           -24.7311703985        1.0145942534       -6.5385046635  WZ2       1981            0.0000000000
      8819      2940  TIP3      H1            -25.6475903985        1.2767642534       -6.6261346635  WZ2       1981            0.0000000000
      8820      2940  TIP3      H2            -24.3956703985        1.0114942534       -7.4349746635  WZ2       1981            0.0000000000
      8821      2941  TIP3      OH2           -26.1290703985        4.7646942534      -12.4427746635  WZ2       1982            0.0000000000
      8822      2941  TIP3      H1            -26.9266303985        4.3497142534      -12.7712746635  WZ2       1982            0.0000000000
      8823      2941  TIP3      H2            -25.6839603985        4.0740642534      -11.9517246635  WZ2       1982            0.0000000000
      8824      2942  TIP3      OH2           -25.0426103985       14.0209442534      -10.8204246635  WZ2       1985            0.0000000000
      8825      2942  TIP3      H1            -25.1981803985       14.6993842534      -11.4774946635  WZ2       1985            0.0000000000
      8826      2942  TIP3      H2            -24.1099703985       14.0928742534      -10.6173646635  WZ2       1985            0.0000000000
      8827      2943  TIP3      OH2           -37.5473703985       -1.8612857466      -12.0832846635  WZ2       1986            0.0000000000
      8828      2943  TIP3      H1            -37.7763903985       -1.8020357466      -13.0107846635  WZ2       1986            0.0000000000
      8829      2943  TIP3      H2            -37.9900303985       -2.6527357466      -11.7768746635  WZ2       1986            0.0000000000
      8830      2944  TIP3      OH2           -34.7313303985       13.6112342534       -2.9724846635  WZ2       1989            0.0000000000
      8831      2944  TIP3      H1            -33.9636103985       13.1523142534       -2.6315646635  WZ2       1989            0.0000000000
      8832      2944  TIP3      H2            -34.7527103985       13.3852142534       -3.9023646635  WZ2       1989            0.0000000000
      8833      2945  TIP3      OH2           -30.6393703985       13.1192942534      -21.5973046635  WZ2       1990            0.0000000000
      8834      2945  TIP3      H1            -31.2832703985       12.4881542534      -21.2759346635  WZ2       1990            0.0000000000
      8835      2945  TIP3      H2            -29.8775403985       12.5880942534      -21.8289546635  WZ2       1990            0.0000000000
      8836      2946  TIP3      OH2           -28.1544603985       11.9913442534       -4.2433346635  WZ2       1991            0.0000000000
      8837      2946  TIP3      H1            -28.5055103985       11.1346442534       -4.0002946635  WZ2       1991            0.0000000000
      8838      2946  TIP3      H2            -27.4281403985       12.1340142534       -3.6364346635  WZ2       1991            0.0000000000
      8839      2947  TIP3      OH2           -26.0350803985       12.9362842534      -21.3635046635  WZ2       1992            0.0000000000
      8840      2947  TIP3      H1            -25.7520403985       12.1418042534      -20.9108146635  WZ2       1992            0.0000000000
      8841      2947  TIP3      H2            -25.2952903985       13.1693842534      -21.9243946635  WZ2       1992            0.0000000000
      8842      2948  TIP3      OH2           -35.0803503985        8.8457742534      -21.5060146635  WZ2       1994            0.0000000000
      8843      2948  TIP3      H1            -35.0159403985        8.0517342534      -20.9753746635  WZ2       1994            0.0000000000
      8844      2948  TIP3      H2            -34.4274303985        8.7270542534      -22.1958146635  WZ2       1994            0.0000000000
      8845      2949  TIP3      OH2           -32.7661103985        8.4720142534       -4.2058346635  WZ2       1995            0.0000000000
      8846      2949  TIP3      H1            -33.0947303985        8.7428242534       -5.0630946635  WZ2       1995            0.0000000000
      8847      2949  TIP3      H2            -32.6142903985        7.5309942534       -4.2933346635  WZ2       1995            0.0000000000
      8848      2950  TIP3      OH2           -29.7280103985        9.8929442534      -21.7702146635  WZ2       1996            0.0000000000
      8849      2950  TIP3      H1            -29.9966003985       10.0731542534      -20.8693246635  WZ2       1996            0.0000000000
      8850      2950  TIP3      H2            -29.9344503985        8.9675642534      -21.9016346635  WZ2       1996            0.0000000000
      8851      2951  TIP3      OH2           -27.0315903985        8.3877442534       -6.8226046635  WZ2       1997            0.0000000000
      8852      2951  TIP3      H1            -26.2861103985        8.9761142534       -6.9422046635  WZ2       1997            0.0000000000
      8853      2951  TIP3      H2            -27.7889103985        8.9697142534       -6.7592946635  WZ2       1997            0.0000000000
      8854      2952  TIP3      OH2           -33.9309703985        6.8183942534      -19.2002146635  WZ2       1999            0.0000000000
      8855      2952  TIP3      H1            -34.3907703985        6.3342242534      -18.5143646635  WZ2       1999            0.0000000000
      8856      2952  TIP3      H2            -33.6761003985        6.1499342534      -19.8361646635  WZ2       1999            0.0000000000
      8857      2953  TIP3      OH2           -34.6420403985        4.7111042534       -6.8442546635  WZ2       2000            0.0000000000
      8858      2953  TIP3      H1            -35.2604303985        5.3857642534       -6.5637846635  WZ2       2000            0.0000000000
      8859      2953  TIP3      H2            -34.2979203985        5.0324942534       -7.6776346635  WZ2       2000            0.0000000000
      8860      2954  TIP3      OH2           -32.8599303985        5.0615742534      -20.9378946635  WZ2       2001            0.0000000000
      8861      2954  TIP3      H1            -33.0404303985        4.9066942534      -21.8650646635  WZ2       2001            0.0000000000
      8862      2954  TIP3      H2            -31.9098803985        5.1694442534      -20.8931046635  WZ2       2001            0.0000000000
      8863      2955  TIP3      OH2           -29.6222203985        7.1826342534       -3.5667746635  WZ2       2002            0.0000000000
      8864      2955  TIP3      H1            -28.6691003985        7.2665442534       -3.5941746635  WZ2       2002            0.0000000000
      8865      2955  TIP3      H2            -29.7827603985        6.4708142534       -2.9472846635  WZ2       2002            0.0000000000
      8866      2956  TIP3      OH2           -23.4701003985        7.4159942534      -21.4920846635  WZ2       2003            0.0000000000
      8867      2956  TIP3      H1            -23.7436203985        6.9915442534      -22.3052546635  WZ2       2003            0.0000000000
      8868      2956  TIP3      H2            -23.4306903985        8.3474442534      -21.7090446635  WZ2       2003            0.0000000000
      8869      2957  TIP3      OH2           -34.3026703985        2.0661842534       -5.7619446635  WZ2       2004            0.0000000000
      8870      2957  TIP3      H1            -34.1525803985        1.3373142534       -6.3639746635  WZ2       2004            0.0000000000
      8871      2957  TIP3      H2            -34.3004303985        2.8433542534       -6.3207246635  WZ2       2004            0.0000000000
      8872      2958  TIP3      OH2           -33.8901003985        0.4357642534       -8.2692046635  WZ2       2005            0.0000000000
      8873      2958  TIP3      H1            -33.3543503985        0.8874342534       -8.9212746635  WZ2       2005            0.0000000000
      8874      2958  TIP3      H2            -34.7421403985        0.3277442534       -8.6917946635  WZ2       2005            0.0000000000
      8875      2959  TIP3      OH2           -32.3082603985        5.8753842534       -8.0296846635  WZ2       2006            0.0000000000
      8876      2959  TIP3      H1            -31.5577803985        5.7191342534       -8.6029046635  WZ2       2006            0.0000000000
      8877      2959  TIP3      H2            -32.6474303985        6.7270442534       -8.3051346635  WZ2       2006            0.0000000000
      8878      2960  TIP3      OH2           -27.8926403985        3.6905642534       -3.0011546635  WZ2       2007            0.0000000000
      8879      2960  TIP3      H1            -27.7005103985        2.7595042534       -3.1127046635  WZ2       2007            0.0000000000
      8880      2960  TIP3      H2            -27.0350103985        4.1155142534       -3.0116146635  WZ2       2007            0.0000000000
      8881      2961  TIP3      OH2           -26.5759203985        6.4790842534       -4.9238846635  WZ2       2008            0.0000000000
      8882      2961  TIP3      H1            -26.8574203985        7.1885442534       -5.5015046635  WZ2       2008            0.0000000000
      8883      2961  TIP3      H2            -25.6334903985        6.4063842534       -5.0747646635  WZ2       2008            0.0000000000
      8884      2962  TIP3      OH2           -35.8240403985        3.2645342534       -3.8503846635  WZ2       2009            0.0000000000
      8885      2962  TIP3      H1            -36.5911403985        2.7320142534       -4.0606246635  WZ2       2009            0.0000000000
      8886      2962  TIP3      H2            -35.1451403985        2.9545742534       -4.4497546635  WZ2       2009            0.0000000000
      8887      2963  TIP3      OH2           -33.0845503985       -2.1076657466       -7.8378446635  WZ2       2010            0.0000000000
      8888      2963  TIP3      H1            -33.1825903985       -1.1613457466       -7.9432246635  WZ2       2010            0.0000000000
      8889      2963  TIP3      H2            -33.8269303985       -2.4802857466       -8.3134946635  WZ2       2010            0.0000000000
      8890      2964  TIP3      OH2           -31.8205003985        2.2138742534       -4.2740046635  WZ2       2011            0.0000000000
      8891      2964  TIP3      H1            -32.0559603985        1.9945442534       -3.3725146635  WZ2       2011            0.0000000000
      8892      2964  TIP3      H2            -32.6038103985        2.0069942534       -4.7837546635  WZ2       2011            0.0000000000
      8893      2965  TIP3      OH2           -29.1048403985        1.3412242534       -5.1986546635  WZ2       2012            0.0000000000
      8894      2965  TIP3      H1            -30.0523003985        1.3731942534       -5.0663246635  WZ2       2012            0.0000000000
      8895      2965  TIP3      H2            -28.7921703985        0.7159342534       -4.5448346635  WZ2       2012            0.0000000000
      8896      2966  TIP3      OH2           -27.4706903985       -0.0246657466       -3.1934646635  WZ2       2013            0.0000000000
      8897      2966  TIP3      H1            -27.5675103985       -0.9769357466       -3.1992746635  WZ2       2013            0.0000000000
      8898      2966  TIP3      H2            -27.7923803985        0.2440142534       -2.3329146635  WZ2       2013            0.0000000000
      8899      2967  TIP3      OH2           -37.6437603985        1.1849142534       -4.1459146635  WZ2       2014            0.0000000000
      8900      2967  TIP3      H1            -37.4320203985        0.4785242534       -4.7561646635  WZ2       2014            0.0000000000
      8901      2967  TIP3      H2            -37.7550103985        0.7475142534       -3.3017946635  WZ2       2014            0.0000000000
      8902      2968  TIP3      OH2           -32.8627403985       -2.8139257466       -5.1665646635  WZ2       2015            0.0000000000
      8903      2968  TIP3      H1            -32.1509003985       -3.4537057466       -5.1806546635  WZ2       2015            0.0000000000
      8904      2968  TIP3      H2            -32.9637003985       -2.5470957466       -6.0802546635  WZ2       2015            0.0000000000
      8905      2969  TIP3      OH2           -32.5089903985       -1.1310857466       -3.1129346635  WZ2       2016            0.0000000000
      8906      2969  TIP3      H1            -32.6407703985       -1.6067057466       -3.9330846635  WZ2       2016            0.0000000000
      8907      2969  TIP3      H2            -33.1082503985       -0.3867257466       -3.1682246635  WZ2       2016            0.0000000000
      8908      2970  TIP3      OH2           -32.9627603985       15.7519442534      -19.9365346635  WZ2       2017            0.0000000000
      8909      2970  TIP3      H1            -32.0296903985       15.9098142534      -19.7926946635  WZ2       2017            0.0000000000
      8910      2970  TIP3      H2            -33.2268803985       16.4272442534      -20.5613846635  WZ2       2017            0.0000000000
      8911      2971  TIP3      OH2           -22.3268103985       14.6715142534      -10.5912346635  WZ2       2021            0.0000000000
      8912      2971  TIP3      H1            -22.3481403985       14.8563542534       -9.6522946635  WZ2       2021            0.0000000000
      8913      2971  TIP3      H2            -21.6361903985       15.2399142534      -10.9320946635  WZ2       2021            0.0000000000
      8914      2972  TIP3      OH2           -22.7635203985       14.2386242534       -7.6693246635  WZ2       2022            0.0000000000
      8915      2972  TIP3      H1            -23.2506503985       13.5030342534       -8.0405846635  WZ2       2022            0.0000000000
      8916      2972  TIP3      H2            -22.2142503985       13.8450142534       -6.9913846635  WZ2       2022            0.0000000000
      8917      2973  TIP3      OH2           -24.3127903985       10.0284342534       -3.0312946635  WZ2       2023            0.0000000000
      8918      2973  TIP3      H1            -25.1786803985        9.9234042534       -2.6370646635  WZ2       2023            0.0000000000
      8919      2973  TIP3      H2            -23.9362003985       10.7867642534       -2.5848246635  WZ2       2023            0.0000000000
      8920      2974  TIP3      OH2           -23.0118203985        8.2848042534      -17.5170446635  WZ2       2024            0.0000000000
      8921      2974  TIP3      H1            -22.1616803985        8.7058942534      -17.3898846635  WZ2       2024            0.0000000000
      8922      2974  TIP3      H2            -23.0063103985        7.5448142534      -16.9099046635  WZ2       2024            0.0000000000
      8923      2975  TIP3      OH2           -22.6172603985        6.3385442534      -15.6934746635  WZ2       2025            0.0000000000
      8924      2975  TIP3      H1            -23.3438003985        5.8588042534      -15.2957146635  WZ2       2025            0.0000000000
      8925      2975  TIP3      H2            -22.0359303985        6.5440142534      -14.9613146635  WZ2       2025            0.0000000000
      8926      2976  TIP3      OH2           -22.8581403985        9.1232942534      -10.7457146635  WZ2       2026            0.0000000000
      8927      2976  TIP3      H1            -22.0247203985        8.7452942534      -11.0263546635  WZ2       2026            0.0000000000
      8928      2976  TIP3      H2            -22.7461103985       10.0664142534      -10.8648046635  WZ2       2026            0.0000000000
      8929      2977  TIP3      OH2           -24.3719103985       12.0010442534       -8.4388746635  WZ2       2027            0.0000000000
      8930      2977  TIP3      H1            -25.0193803985       12.3261942534       -7.8133546635  WZ2       2027            0.0000000000
      8931      2977  TIP3      H2            -24.8895103985       11.5608142534       -9.1130446635  WZ2       2027            0.0000000000
      8932      2978  TIP3      OH2           -22.3489503985        6.2393942534      -19.3023446635  WZ2       2028            0.0000000000
      8933      2978  TIP3      H1            -22.8708403985        6.5958042534      -20.0212546635  WZ2       2028            0.0000000000
      8934      2978  TIP3      H2            -22.3820303985        6.9141742534      -18.6242546635  WZ2       2028            0.0000000000
      8935      2979  TIP3      OH2           -24.0000503985        3.4789542534      -20.7516346635  WZ2       2029            0.0000000000
      8936      2979  TIP3      H1            -23.9036103985        4.1456542534      -21.4316646635  WZ2       2029            0.0000000000
      8937      2979  TIP3      H2            -24.1400903985        2.6635842534      -21.2330846635  WZ2       2029            0.0000000000
      8938      2980  TIP3      OH2           -24.8305803985        4.8591942534      -15.1306046635  WZ2       2030            0.0000000000
      8939      2980  TIP3      H1            -24.9807003985        3.9140542534      -15.1508246635  WZ2       2030            0.0000000000
      8940      2980  TIP3      H2            -25.1841303985        5.1403342534      -14.2866946635  WZ2       2030            0.0000000000
      8941      2981  TIP3      OH2           -23.9742903985        6.8295242534       -5.4917746635  WZ2       2032            0.0000000000
      8942      2981  TIP3      H1            -23.3915603985        6.0947542534       -5.3000546635  WZ2       2032            0.0000000000
      8943      2981  TIP3      H2            -23.4103603985        7.6015542534       -5.4451946635  WZ2       2032            0.0000000000
      8944      2982  TIP3      OH2           -22.4775803985        4.7321042534       -4.8072346635  WZ2       2033            0.0000000000
      8945      2982  TIP3      H1            -23.3409103985        4.3533142534       -4.9727646635  WZ2       2033            0.0000000000
      8946      2982  TIP3      H2            -21.8732103985        3.9935842534       -4.8816546635  WZ2       2033            0.0000000000
      8947      2983  TIP3      OH2           -24.7526703985        0.8869342534      -21.6340846635  WZ2       2034            0.0000000000
      8948      2983  TIP3      H1            -24.1420903985        0.5156142534      -20.9972646635  WZ2       2034            0.0000000000
      8949      2983  TIP3      H2            -25.5895203985        0.4656242534      -21.4380846635  WZ2       2034            0.0000000000
      8950      2984  TIP3      OH2           -25.1201003985        2.4417742534      -16.6680946635  WZ2       2035            0.0000000000
      8951      2984  TIP3      H1            -24.8403903985        1.5348142534      -16.5439246635  WZ2       2035            0.0000000000
      8952      2984  TIP3      H2            -24.3609303985        2.8759242534      -17.0571746635  WZ2       2035            0.0000000000
      8953      2985  TIP3      OH2           -24.5082703985        3.0235142534      -11.2322046635  WZ2       2036            0.0000000000
      8954      2985  TIP3      H1            -23.5754703985        3.2355042534      -11.2666046635  WZ2       2036            0.0000000000
      8955      2985  TIP3      H2            -24.7435203985        3.1247242534      -10.3099046635  WZ2       2036            0.0000000000
      8956      2986  TIP3      OH2           -24.4790803985        3.7600442534       -8.4562646635  WZ2       2037            0.0000000000
      8957      2986  TIP3      H1            -25.3219503985        4.0280842534       -8.0902846635  WZ2       2037            0.0000000000
      8958      2986  TIP3      H2            -24.0366503985        4.5822342534       -8.6671546635  WZ2       2037            0.0000000000
      8959      2987  TIP3      OH2           -22.1959203985       -2.2599357466       -3.1027646635  WZ2       2039            0.0000000000
      8960      2987  TIP3      H1            -21.8462203985       -2.9135857466       -3.7082946635  WZ2       2039            0.0000000000
      8961      2987  TIP3      H2            -22.0489703985       -1.4225257466       -3.5425046635  WZ2       2039            0.0000000000
      8962      2988  TIP3      OH2           -24.5066203985       -0.2952957466      -16.6198946635  WZ2       2040            0.0000000000
      8963      2988  TIP3      H1            -24.3241203985       -0.7441457466      -15.7943946635  WZ2       2040            0.0000000000
      8964      2988  TIP3      H2            -25.1063303985       -0.8798557466      -17.0834346635  WZ2       2040            0.0000000000
      8965      2989  TIP3      OH2           -38.9766103985        0.5200742534      -12.0880546635  WZ2       2041            0.0000000000
      8966      2989  TIP3      H1            -38.5314503985       -0.2716757466      -11.7860846635  WZ2       2041            0.0000000000
      8967      2989  TIP3      H2            -38.5103103985        1.2365942534      -11.6574946635  WZ2       2041            0.0000000000
      8968      2990  TIP3      OH2           -22.6762003985       -0.1504757466       -4.7536346635  WZ2       2043            0.0000000000
      8969      2990  TIP3      H1            -23.5936303985        0.1202342534       -4.7892846635  WZ2       2043            0.0000000000
      8970      2990  TIP3      H2            -22.5532603985       -0.6856357466       -5.5376646635  WZ2       2043            0.0000000000
      8971      2991  TIP3      OH2           -22.6400003985       -0.2274857466      -20.0918646635  WZ2       2044            0.0000000000
      8972      2991  TIP3      H1            -22.2277403985       -0.9489157466      -20.5670646635  WZ2       2044            0.0000000000
      8973      2991  TIP3      H2            -21.9583503985        0.4419742534      -20.0334346635  WZ2       2044            0.0000000000
      8974      2992  TIP3      OH2           -25.5882103985       14.7614542534      -15.0190546635  WZ2       2046            0.0000000000
      8975      2992  TIP3      H1            -24.9359203985       14.4136642534      -15.6271446635  WZ2       2046            0.0000000000
      8976      2992  TIP3      H2            -25.0778303985       15.2497742534      -14.3730846635  WZ2       2046            0.0000000000
      8977      2993  TIP3      OH2           -30.9380303985       14.0637142534       -5.2581946635  WZ2       2050            0.0000000000
      8978      2993  TIP3      H1            -30.7532803985       13.7303242534       -4.3801646635  WZ2       2050            0.0000000000
      8979      2993  TIP3      H2            -30.0915803985       14.3735742534       -5.5802746635  WZ2       2050            0.0000000000
      8980      2994  TIP3      OH2           -28.5929903985       15.3496042534       -6.0140546635  WZ2       2051            0.0000000000
      8981      2994  TIP3      H1            -27.9161003985       14.7168342534       -6.2541346635  WZ2       2051            0.0000000000
      8982      2994  TIP3      H2            -28.2711103985       15.7506542534       -5.2067246635  WZ2       2051            0.0000000000
      8983      2995  TIP3      OH2           -23.6756103985       -2.0608457466       -6.9345546635  WZ2       2052            0.0000000000
      8984      2995  TIP3      H1            -24.4882603985       -1.7358157466       -7.3220846635  WZ2       2052            0.0000000000
      8985      2995  TIP3      H2            -23.4427603985       -2.8209957466       -7.4676446635  WZ2       2052            0.0000000000
      8986      2996  TIP3      OH2           -30.6696803985       15.4093842534       -9.9647146635  WZ2       2055            0.0000000000
      8987      2996  TIP3      H1            -31.1262803985       15.9383542534      -10.6188746635  WZ2       2055            0.0000000000
      8988      2996  TIP3      H2            -30.5068803985       16.0125242534       -9.2394846635  WZ2       2055            0.0000000000
      8989      2997  TIP3      OH2           -28.3420503985       14.2873442534       -9.0196846635  WZ2       2056            0.0000000000
      8990      2997  TIP3      H1            -29.2466803985       14.4523642534       -9.2854746635  WZ2       2056            0.0000000000
      8991      2997  TIP3      H2            -27.9131903985       15.1405642534       -9.0853446635  WZ2       2056            0.0000000000
      8992      2998  TIP3      OH2           -25.7378603985       15.8572542534       -8.7249046635  WZ2       2057            0.0000000000
      8993      2998  TIP3      H1            -25.9196603985       16.7731442534       -8.9354146635  WZ2       2057            0.0000000000
      8994      2998  TIP3      H2            -25.5610803985       15.4469642534       -9.5714446635  WZ2       2057            0.0000000000
      8995      2999  TIP3      OH2           -33.7541303985       13.7241542534      -11.7560646635  WZ2       2060            0.0000000000
      8996      2999  TIP3      H1            -33.5415603985       12.8360542534      -12.0429746635  WZ2       2060            0.0000000000
      8997      2999  TIP3      H2            -33.6896203985       13.6899242534      -10.8016646635  WZ2       2060            0.0000000000
      8998      3000  TIP3      OH2           -30.2457603985       -0.6117857466      -12.6117346635  WZ2       2061            0.0000000000
      8999      3000  TIP3      H1            -30.9200803985       -1.2412257466      -12.3561546635  WZ2       2061            0.0000000000
      9000      3000  TIP3      H2            -29.6818403985       -1.0958957466      -13.2149446635  WZ2       2061            0.0000000000
      9001      3001  TIP3      OH2           -25.1030403985       -2.5043857466      -12.4990246635  WZ2       2062            0.0000000000
      9002      3001  TIP3      H1            -24.4992803985       -1.9568457466      -13.0009246635  WZ2       2062            0.0000000000
      9003      3001  TIP3      H2            -25.9728403985       -2.1853457466      -12.7396146635  WZ2       2062            0.0000000000
      9004      3002  TIP3      OH2           -23.3760003985       -1.3655157466      -14.1659346635  WZ2       2063            0.0000000000
      9005      3002  TIP3      H1            -22.7642503985       -1.8799457466      -14.6925746635  WZ2       2063            0.0000000000
      9006      3002  TIP3      H2            -22.9936603985       -0.4883057466      -14.1424946635  WZ2       2063            0.0000000000
      9007      3003  TIP3      OH2           -37.9190103985       -1.9777557466      -14.7897446635  WZ2       2064            0.0000000000
      9008      3003  TIP3      H1            -38.6960303985       -2.2122657466      -15.2971546635  WZ2       2064            0.0000000000
      9009      3003  TIP3      H2            -37.3886503985       -2.7745457466      -14.7809446635  WZ2       2064            0.0000000000
      9010      3004  TIP3      OH2           -39.0826703985       -2.1799457466      -18.9861346635  WZ2       2065            0.0000000000
      9011      3004  TIP3      H1            -38.6436003985       -1.5688957466      -19.5777846635  WZ2       2065            0.0000000000
      9012      3004  TIP3      H2            -39.7164303985       -1.6415357466      -18.5121346635  WZ2       2065            0.0000000000
      9013      3005  TIP3      OH2           -33.3397503985       -2.0510457466      -14.9764346635  WZ2       2066            0.0000000000
      9014      3005  TIP3      H1            -32.4654103985       -1.6626157466      -15.0060046635  WZ2       2066            0.0000000000
      9015      3005  TIP3      H2            -33.4756703985       -2.2662657466      -14.0537146635  WZ2       2066            0.0000000000
      9016      3006  TIP3      OH2           -27.7829103985       -2.0210657466      -13.3272646635  WZ2       2067            0.0000000000
      9017      3006  TIP3      H1            -27.7067503985       -1.9259057466      -14.2766646635  WZ2       2067            0.0000000000
      9018      3006  TIP3      H2            -28.0579903985       -2.9287757466      -13.1983546635  WZ2       2067            0.0000000000
      9019      3007  TIP3      OH2           -26.4296503985       -1.9952857466      -17.6347646635  WZ2       2068            0.0000000000
      9020      3007  TIP3      H1            -27.1325403985       -1.3803657466      -17.8446246635  WZ2       2068            0.0000000000
      9021      3007  TIP3      H2            -26.8745103985       -2.8326157466      -17.5036746635  WZ2       2068            0.0000000000
      9022      3008  TIP3      OH2           -37.2217603985       -0.2637957466      -20.5437246635  WZ2       2070            0.0000000000
      9023      3008  TIP3      H1            -36.7304203985       -0.8935557466      -21.0711746635  WZ2       2070            0.0000000000
      9024      3008  TIP3      H2            -36.5981303985        0.0321442534      -19.8806046635  WZ2       2070            0.0000000000
      9025      3009  TIP3      OH2           -32.1957503985        0.0293542534      -18.0866746635  WZ2       2071            0.0000000000
      9026      3009  TIP3      H1            -32.0176203985       -0.6173257466      -17.4038146635  WZ2       2071            0.0000000000
      9027      3009  TIP3      H2            -32.2491303985        0.8631242534      -17.6195646635  WZ2       2071            0.0000000000
      9028      3010  TIP3      OH2           -30.3173703985       14.9777642534      -19.6910046635  WZ2       2072            0.0000000000
      9029      3010  TIP3      H1            -29.4513503985       15.3445042534      -19.8691846635  WZ2       2072            0.0000000000
      9030      3010  TIP3      H2            -30.5640903985       14.5385642534      -20.5049246635  WZ2       2072            0.0000000000
      9031      3011  TIP3      OH2           -23.6084103985       14.5407942534      -17.0118946635  WZ2       2073            0.0000000000
      9032      3011  TIP3      H1            -23.8027003985       13.7930042534      -17.5769346635  WZ2       2073            0.0000000000
      9033      3011  TIP3      H2            -23.6474003985       15.2988042534      -17.5951046635  WZ2       2073            0.0000000000
      9034      3012  TIP3      OH2           -37.9612103985       -1.4635657466       -5.2721246635  WZ2       2074            0.0000000000
      9035      3012  TIP3      H1            -38.3273903985       -2.2293057466       -4.8296546635  WZ2       2074            0.0000000000
      9036      3012  TIP3      H2            -37.0483603985       -1.4345457466       -4.9856146635  WZ2       2074            0.0000000000
      9037      3013  TIP3      OH2           -35.9881303985       -2.1131257466       -3.7364146635  WZ2       2075            0.0000000000
      9038      3013  TIP3      H1            -35.0897703985       -2.3871057466       -3.9210746635  WZ2       2075            0.0000000000
      9039      3013  TIP3      H2            -36.3748203985       -2.8555257466       -3.2721546635  WZ2       2075            0.0000000000
      9040      3014  TIP3      OH2           -27.5669003985       -2.7805957466       -3.5541346635  WZ2       2077            0.0000000000
      9041      3014  TIP3      H1            -27.4901803985       -3.2065257466       -2.7003646635  WZ2       2077            0.0000000000
      9042      3014  TIP3      H2            -26.6732403985       -2.7671257466       -3.8967846635  WZ2       2077            0.0000000000
      9043      3015  TIP3      OH2           -24.3907903985       13.2920342534       -4.8617146635  WZ2       2078            0.0000000000
      9044      3015  TIP3      H1            -25.1726003985       13.1058342534       -5.3816546635  WZ2       2078            0.0000000000
      9045      3015  TIP3      H2            -24.4628003985       14.2214642534       -4.6444646635  WZ2       2078            0.0000000000
      9046      3016  TIP3      OH2            -9.9847503985        7.1784742534      -14.8309946635  WZ2       2079            0.0000000000
      9047      3016  TIP3      H1             -9.8956403985        8.1222942534      -14.9632846635  WZ2       2079            0.0000000000
      9048      3016  TIP3      H2            -10.6229903985        6.9031142534      -15.4890546635  WZ2       2079            0.0000000000
      9049      3017  TIP3      OH2           -11.0516203985        6.4335442534      -11.4121746635  WZ2       2080            0.0000000000
      9050      3017  TIP3      H1            -11.0898703985        5.7871742534      -10.7072146635  WZ2       2080            0.0000000000
      9051      3017  TIP3      H2            -11.3739703985        5.9669842534      -12.1833046635  WZ2       2080            0.0000000000
      9052      3018  TIP3      OH2           -18.6831203985        6.0477542534       -9.8191846635  WZ2       2081            0.0000000000
      9053      3018  TIP3      H1            -18.6419103985        5.4220842534       -9.0959446635  WZ2       2081            0.0000000000
      9054      3018  TIP3      H2            -17.9803503985        6.6716142534       -9.6371446635  WZ2       2081            0.0000000000
      9055      3019  TIP3      OH2            -7.3456003985        9.3725842534      -13.1106646635  WZ2       2082            0.0000000000
      9056      3019  TIP3      H1             -7.7863303985        8.6521842534      -12.6601046635  WZ2       2082            0.0000000000
      9057      3019  TIP3      H2             -7.3586303985       10.0933042534      -12.4808946635  WZ2       2082            0.0000000000
      9058      3020  TIP3      OH2           -17.7598103985       10.4976442534      -11.2842746635  WZ2       2083            0.0000000000
      9059      3020  TIP3      H1            -18.1292903985        9.6956942534      -11.6538446635  WZ2       2083            0.0000000000
      9060      3020  TIP3      H2            -16.8187003985       10.3291342534      -11.2379346635  WZ2       2083            0.0000000000
      9061      3021  TIP3      OH2           -21.1497603985        4.1579042534      -15.8913946635  WZ2       2084            0.0000000000
      9062      3021  TIP3      H1            -21.5974203985        5.0037742534      -15.9097446635  WZ2       2084            0.0000000000
      9063      3021  TIP3      H2            -21.7106403985        3.5783242534      -16.4068846635  WZ2       2084            0.0000000000
      9064      3022  TIP3      OH2           -20.4391503985        6.3198642534      -13.7655946635  WZ2       2085            0.0000000000
      9065      3022  TIP3      H1            -20.2258003985        5.5500242534      -13.2382946635  WZ2       2085            0.0000000000
      9066      3022  TIP3      H2            -19.7013903985        6.4095342534      -14.3688346635  WZ2       2085            0.0000000000
      9067      3023  TIP3      OH2           -10.2340503985       14.4767542534      -12.8986246635  WZ2       2086            0.0000000000
      9068      3023  TIP3      H1             -9.6144103985       13.8002242534      -13.1717046635  WZ2       2086            0.0000000000
      9069      3023  TIP3      H2            -10.4423103985       14.2588342534      -11.9901346635  WZ2       2086            0.0000000000
      9070      3024  TIP3      OH2           -12.6621803985        8.8656842534      -11.0060746635  WZ2       2087            0.0000000000
      9071      3024  TIP3      H1            -12.3583903985        8.1798242534      -11.6006646635  WZ2       2087            0.0000000000
      9072      3024  TIP3      H2            -11.9407803985        8.9845542534      -10.3882746635  WZ2       2087            0.0000000000
      9073      3025  TIP3      OH2            -3.9992003985        0.4672142534      -10.1454546635  WZ2       2088            0.0000000000
      9074      3025  TIP3      H1             -3.9499803985        1.0773342534       -9.4095446635  WZ2       2088            0.0000000000
      9075      3025  TIP3      H2             -3.5736903985        0.9283042534      -10.8683446635  WZ2       2088            0.0000000000
      9076      3026  TIP3      OH2            -9.5214803985        3.2599242534      -10.6785946635  WZ2       2089            0.0000000000
      9077      3026  TIP3      H1             -9.3788903985        2.3136242534      -10.6584346635  WZ2       2089            0.0000000000
      9078      3026  TIP3      H2             -9.6275803985        3.4669042534      -11.6071046635  WZ2       2089            0.0000000000
      9079      3027  TIP3      OH2           -16.3666503985        1.3615642534      -13.4061146635  WZ2       2090            0.0000000000
      9080      3027  TIP3      H1            -16.3235403985        2.2214142534      -13.8244846635  WZ2       2090            0.0000000000
      9081      3027  TIP3      H2            -16.8242403985        0.8090342534      -14.0397946635  WZ2       2090            0.0000000000
      9082      3028  TIP3      OH2            -8.6443803985        1.4921242534      -15.0052846635  WZ2       2091            0.0000000000
      9083      3028  TIP3      H1             -7.9979503985        1.1634442534      -14.3805246635  WZ2       2091            0.0000000000
      9084      3028  TIP3      H2             -8.1344403985        2.0100242534      -15.6281446635  WZ2       2091            0.0000000000
      9085      3029  TIP3      OH2           -19.7465003985        3.7581442534      -12.6439746635  WZ2       2092            0.0000000000
      9086      3029  TIP3      H1            -19.0928403985        3.2083142534      -12.2119646635  WZ2       2092            0.0000000000
      9087      3029  TIP3      H2            -19.7225703985        3.4840442534      -13.5607746635  WZ2       2092            0.0000000000
      9088      3030  TIP3      OH2           -14.5900503985        5.3082742534      -13.4288246635  WZ2       2093            0.0000000000
      9089      3030  TIP3      H1            -13.9739503985        4.7818142534      -12.9194246635  WZ2       2093            0.0000000000
      9090      3030  TIP3      H2            -15.1761703985        4.6681442534      -13.8324646635  WZ2       2093            0.0000000000
      9091      3031  TIP3      OH2            -3.6077403985        1.9451342534       -7.9094746635  WZ2       2094            0.0000000000
      9092      3031  TIP3      H1             -4.2962803985        2.6032042534       -8.0048146635  WZ2       2094            0.0000000000
      9093      3031  TIP3      H2             -3.5922803985        1.7479242534       -6.9729346635  WZ2       2094            0.0000000000
      9094      3032  TIP3      OH2           -17.5564603985        0.2794042534       -9.3320346635  WZ2       2095            0.0000000000
      9095      3032  TIP3      H1            -17.7752903985        0.8094642534      -10.0984346635  WZ2       2095            0.0000000000
      9096      3032  TIP3      H2            -18.2243703985        0.5059542534       -8.6848946635  WZ2       2095            0.0000000000
      9097      3033  TIP3      OH2           -10.1874803985        9.7795142534      -15.7881246635  WZ2       2096            0.0000000000
      9098      3033  TIP3      H1            -10.4829703985        9.4567442534      -16.6394346635  WZ2       2096            0.0000000000
      9099      3033  TIP3      H2            -10.5117003985       10.6791842534      -15.7468646635  WZ2       2096            0.0000000000
      9100      3034  TIP3      OH2           -14.9873203985        7.9549742534       -9.0446646635  WZ2       2097            0.0000000000
      9101      3034  TIP3      H1            -15.7274103985        8.5531242534       -8.9411446635  WZ2       2097            0.0000000000
      9102      3034  TIP3      H2            -14.2733703985        8.5089342534       -9.3603046635  WZ2       2097            0.0000000000
      9103      3035  TIP3      OH2            -6.8805403985        0.7830542534      -13.0246946635  WZ2       2098            0.0000000000
      9104      3035  TIP3      H1             -7.0957403985        0.0173942534      -12.4920946635  WZ2       2098            0.0000000000
      9105      3035  TIP3      H2             -6.2248003985        1.2555142534      -12.5118446635  WZ2       2098            0.0000000000
      9106      3036  TIP3      OH2           -17.9627303985        2.1715842534      -11.3798146635  WZ2       2099            0.0000000000
      9107      3036  TIP3      H1            -17.3491003985        2.8043442534      -11.0065746635  WZ2       2099            0.0000000000
      9108      3036  TIP3      H2            -17.4506603985        1.6990842534      -12.0361246635  WZ2       2099            0.0000000000
      9109      3037  TIP3      OH2           -16.5798903985        9.9192742534       -8.2575146635  WZ2       2100            0.0000000000
      9110      3037  TIP3      H1            -16.5851303985       10.7986242534       -8.6355846635  WZ2       2100            0.0000000000
      9111      3037  TIP3      H2            -17.4334803985        9.8356842534       -7.8325246635  WZ2       2100            0.0000000000
      9112      3038  TIP3      OH2           -20.4588003985        9.5900642534      -17.4755846635  WZ2       2101            0.0000000000
      9113      3038  TIP3      H1            -20.7307103985        9.8191642534      -18.3642946635  WZ2       2101            0.0000000000
      9114      3038  TIP3      H2            -20.4132303985       10.4279442534      -17.0150546635  WZ2       2101            0.0000000000
      9115      3039  TIP3      OH2            -6.8338303985       11.2116542534      -10.7627346635  WZ2       2102            0.0000000000
      9116      3039  TIP3      H1             -7.7754603985       11.2700442534      -10.6010446635  WZ2       2102            0.0000000000
      9117      3039  TIP3      H2             -6.5572203985       12.1177042534      -10.8997646635  WZ2       2102            0.0000000000
      9118      3040  TIP3      OH2            -6.5331303985       -0.5018157466       -9.3453446635  WZ2       2103            0.0000000000
      9119      3040  TIP3      H1             -7.2692103985        0.1088942534       -9.3832146635  WZ2       2103            0.0000000000
      9120      3040  TIP3      H2             -5.8497303985       -0.0869157466       -9.8717046635  WZ2       2103            0.0000000000
      9121      3041  TIP3      OH2           -13.5299903985       -2.4150857466      -11.8795446635  WZ2       2104            0.0000000000
      9122      3041  TIP3      H1            -13.6475703985       -3.3634857466      -11.9337146635  WZ2       2104            0.0000000000
      9123      3041  TIP3      H2            -14.3849803985       -2.0824757466      -11.6064346635  WZ2       2104            0.0000000000
      9124      3042  TIP3      OH2            -8.5817103985       12.9930042534      -14.1375746635  WZ2       2105            0.0000000000
      9125      3042  TIP3      H1             -8.1564803985       12.2857942534      -14.6226146635  WZ2       2105            0.0000000000
      9126      3042  TIP3      H2             -8.2647103985       13.7942742534      -14.5543546635  WZ2       2105            0.0000000000
      9127      3043  TIP3      OH2            -7.4220603985       10.8938542534      -15.6289146635  WZ2       2106            0.0000000000
      9128      3043  TIP3      H1             -7.6795803985       10.2038642534      -16.2403246635  WZ2       2106            0.0000000000
      9129      3043  TIP3      H2             -7.3509803985       10.4509742534      -14.7833246635  WZ2       2106            0.0000000000
      9130      3044  TIP3      OH2            -5.7360403985        9.4605242534       -7.1515646635  WZ2       2107            0.0000000000
      9131      3044  TIP3      H1             -5.5964103985        8.8687742534       -7.8908646635  WZ2       2107            0.0000000000
      9132      3044  TIP3      H2             -5.5687603985       10.3331142534       -7.5076846635  WZ2       2107            0.0000000000
      9133      3045  TIP3      OH2           -11.2635003985        6.4224742534      -17.3789646635  WZ2       2108            0.0000000000
      9134      3045  TIP3      H1            -11.9749503985        6.9574442534      -17.7309146635  WZ2       2108            0.0000000000
      9135      3045  TIP3      H2            -10.5725403985        6.4776842534      -18.0390746635  WZ2       2108            0.0000000000
      9136      3046  TIP3      OH2           -11.2095803985        4.8799042534      -20.3404646635  WZ2       2109            0.0000000000
      9137      3046  TIP3      H1            -10.5085903985        4.9025942534      -19.6890646635  WZ2       2109            0.0000000000
      9138      3046  TIP3      H2            -10.9072903985        4.2518742534      -20.9965346635  WZ2       2109            0.0000000000
      9139      3047  TIP3      OH2            -3.8941103985        5.8003242534       -9.0855246635  WZ2       2110            0.0000000000
      9140      3047  TIP3      H1             -4.5467003985        6.4948842534       -8.9964346635  WZ2       2110            0.0000000000
      9141      3047  TIP3      H2             -3.4290803985        6.0104142534       -9.8953646635  WZ2       2110            0.0000000000
      9142      3048  TIP3      OH2            -7.8577303985        6.6318042534      -16.4273746635  WZ2       2111            0.0000000000
      9143      3048  TIP3      H1             -8.5896303985        6.8601742534      -15.8543146635  WZ2       2111            0.0000000000
      9144      3048  TIP3      H2             -7.4105103985        5.9180742534      -15.9726246635  WZ2       2111            0.0000000000
      9145      3049  TIP3      OH2            -7.9603803985        4.8060642534       -7.3596746635  WZ2       2112            0.0000000000
      9146      3049  TIP3      H1             -7.8804703985        5.5695042534       -6.7878246635  WZ2       2112            0.0000000000
      9147      3049  TIP3      H2             -8.5616103985        5.0853042534       -8.0501646635  WZ2       2112            0.0000000000
      9148      3050  TIP3      OH2           -16.2123603985        7.2624242534      -14.5448746635  WZ2       2113            0.0000000000
      9149      3050  TIP3      H1            -16.5428403985        6.8917642534      -15.3631746635  WZ2       2113            0.0000000000
      9150      3050  TIP3      H2            -15.6239503985        6.5918242534      -14.1980446635  WZ2       2113            0.0000000000
      9151      3051  TIP3      OH2           -14.8456103985       10.6904842534      -11.8636546635  WZ2       2114            0.0000000000
      9152      3051  TIP3      H1            -14.9404803985       10.1117942534      -12.6201946635  WZ2       2114            0.0000000000
      9153      3051  TIP3      H2            -14.1162503985       10.3190542534      -11.3673746635  WZ2       2114            0.0000000000
      9154      3052  TIP3      OH2           -15.8458103985        6.0309842534      -10.9113746635  WZ2       2115            0.0000000000
      9155      3052  TIP3      H1            -15.2805603985        6.1524042534      -11.6742546635  WZ2       2115            0.0000000000
      9156      3052  TIP3      H2            -15.5269203985        6.6684842534      -10.2725246635  WZ2       2115            0.0000000000
      9157      3053  TIP3      OH2            -9.5365903985       11.5341742534      -10.1773246635  WZ2       2116            0.0000000000
      9158      3053  TIP3      H1             -9.7769303985       12.1964842534       -9.5294046635  WZ2       2116            0.0000000000
      9159      3053  TIP3      H2             -9.7347703985       10.6996942534       -9.7523646635  WZ2       2116            0.0000000000
      9160      3054  TIP3      OH2           -14.9657403985       10.4302542534       -6.1941846635  WZ2       2117            0.0000000000
      9161      3054  TIP3      H1            -15.2769903985       11.2125742534       -5.7388646635  WZ2       2117            0.0000000000
      9162      3054  TIP3      H2            -15.6157203985       10.2771642534       -6.8799846635  WZ2       2117            0.0000000000
      9163      3055  TIP3      OH2            -8.9867803985        5.7940942534      -18.7422546635  WZ2       2118            0.0000000000
      9164      3055  TIP3      H1             -8.4072303985        5.9441242534      -17.9953646635  WZ2       2118            0.0000000000
      9165      3055  TIP3      H2             -8.5727803985        6.2648342534      -19.4656146635  WZ2       2118            0.0000000000
      9166      3056  TIP3      OH2           -18.0457503985        6.6283642534       -6.9656146635  WZ2       2119            0.0000000000
      9167      3056  TIP3      H1            -17.9754303985        7.2790442534       -6.2671146635  WZ2       2119            0.0000000000
      9168      3056  TIP3      H2            -18.9365303985        6.7311142534       -7.3005246635  WZ2       2119            0.0000000000
      9169      3057  TIP3      OH2           -11.2602903985       12.5309442534      -15.3069446635  WZ2       2120            0.0000000000
      9170      3057  TIP3      H1            -10.7865303985       12.8265742534      -14.5295246635  WZ2       2120            0.0000000000
      9171      3057  TIP3      H2            -11.8233603985       13.2691042534      -15.5399846635  WZ2       2120            0.0000000000
      9172      3058  TIP3      OH2           -16.7261503985       12.5017542534       -5.4308046635  WZ2       2121            0.0000000000
      9173      3058  TIP3      H1            -16.7186203985       12.3657242534       -6.3782546635  WZ2       2121            0.0000000000
      9174      3058  TIP3      H2            -17.6421103985       12.3845642534       -5.1788046635  WZ2       2121            0.0000000000
      9175      3059  TIP3      OH2            -5.2879403985       -2.4558657466      -18.9292846635  WZ2       2122            0.0000000000
      9176      3059  TIP3      H1             -6.1878703985       -2.3169657466      -18.6342246635  WZ2       2122            0.0000000000
      9177      3059  TIP3      H2             -5.0361003985       -1.6244057466      -19.3311146635  WZ2       2122            0.0000000000
      9178      3060  TIP3      OH2           -17.2220903985        6.3318542534      -16.9555946635  WZ2       2123            0.0000000000
      9179      3060  TIP3      H1            -17.5139603985        7.1000242534      -17.4464646635  WZ2       2123            0.0000000000
      9180      3060  TIP3      H2            -17.8965703985        5.6724742534      -17.1184546635  WZ2       2123            0.0000000000
      9181      3061  TIP3      OH2            -4.0988003985       11.9103742534      -20.5528946635  WZ2       2124            0.0000000000
      9182      3061  TIP3      H1             -4.0254503985       12.8493942534      -20.3823646635  WZ2       2124            0.0000000000
      9183      3061  TIP3      H2             -3.1932903985       11.6052342534      -20.6091646635  WZ2       2124            0.0000000000
      9184      3062  TIP3      OH2           -21.1290803985        8.6947742534       -8.1406146635  WZ2       2125            0.0000000000
      9185      3062  TIP3      H1            -21.6302403985        8.6667142534       -8.9556446635  WZ2       2125            0.0000000000
      9186      3062  TIP3      H2            -21.1237103985        7.7890942534       -7.8308846635  WZ2       2125            0.0000000000
      9187      3063  TIP3      OH2           -21.3788103985       11.4751542534      -11.2565946635  WZ2       2126            0.0000000000
      9188      3063  TIP3      H1            -20.4327503985       11.3308542534      -11.2756446635  WZ2       2126            0.0000000000
      9189      3063  TIP3      H2            -21.4911803985       12.2594342534      -10.7194746635  WZ2       2126            0.0000000000
      9190      3064  TIP3      OH2            -3.1809603985       12.1411242534       -5.5742246635  WZ2       2127            0.0000000000
      9191      3064  TIP3      H1             -3.2302803985       11.1859342534       -5.6114646635  WZ2       2127            0.0000000000
      9192      3064  TIP3      H2             -4.0077303985       12.4086542534       -5.1728446635  WZ2       2127            0.0000000000
      9193      3065  TIP3      OH2           -12.2025603985       11.7150442534       -6.6980846635  WZ2       2128            0.0000000000
      9194      3065  TIP3      H1            -12.1151003985       12.5415042534       -6.2231746635  WZ2       2128            0.0000000000
      9195      3065  TIP3      H2            -13.0660503985       11.3854242534       -6.4491546635  WZ2       2128            0.0000000000
      9196      3066  TIP3      OH2           -11.7879803985       15.4874142534      -16.8920246635  WZ2       2129            0.0000000000
      9197      3066  TIP3      H1            -11.8633803985       15.3661342534      -17.8385046635  WZ2       2129            0.0000000000
      9198      3066  TIP3      H2            -11.7551103985       16.4366842534      -16.7735646635  WZ2       2129            0.0000000000
      9199      3067  TIP3      OH2           -18.1346003985       14.2761142534      -15.1111246635  WZ2       2130            0.0000000000
      9200      3067  TIP3      H1            -17.9825603985       13.9281542534      -14.2324746635  WZ2       2130            0.0000000000
      9201      3067  TIP3      H2            -18.9855603985       13.9198442534      -15.3664046635  WZ2       2130            0.0000000000
      9202      3068  TIP3      OH2            -8.6863803985       14.6414342534      -19.8897846635  WZ2       2131            0.0000000000
      9203      3068  TIP3      H1             -8.3115403985       13.8970442534      -20.3605246635  WZ2       2131            0.0000000000
      9204      3068  TIP3      H2             -8.6820103985       14.3714942534      -18.9714546635  WZ2       2131            0.0000000000
      9205      3069  TIP3      OH2            -9.0175703985       14.5671442534      -17.1405646635  WZ2       2132            0.0000000000
      9206      3069  TIP3      H1             -9.9525903985       14.6673342534      -16.9618646635  WZ2       2132            0.0000000000
      9207      3069  TIP3      H2             -8.7373803985       13.8577442534      -16.5622446635  WZ2       2132            0.0000000000
      9208      3070  TIP3      OH2            -6.0289803985        3.6343742534       -5.0940046635  WZ2       2133            0.0000000000
      9209      3070  TIP3      H1             -6.4363003985        4.1149342534       -5.8146746635  WZ2       2133            0.0000000000
      9210      3070  TIP3      H2             -5.9884103985        2.7289742534       -5.4019246635  WZ2       2133            0.0000000000
      9211      3071  TIP3      OH2           -18.8800303985       10.0183142534       -7.0973346635  WZ2       2134            0.0000000000
      9212      3071  TIP3      H1            -18.6639003985        9.6568742534       -6.2377546635  WZ2       2134            0.0000000000
      9213      3071  TIP3      H2            -19.7355603985        9.6436942534       -7.3069846635  WZ2       2134            0.0000000000
      9214      3072  TIP3      OH2           -16.2612303985       -1.5116357466      -11.1019146635  WZ2       2135            0.0000000000
      9215      3072  TIP3      H1            -17.1228603985       -1.5988157466      -11.5096246635  WZ2       2135            0.0000000000
      9216      3072  TIP3      H2            -16.2836603985       -0.6556257466      -10.6741546635  WZ2       2135            0.0000000000
      9217      3073  TIP3      OH2           -11.5984503985       -1.7895957466       -7.7272146635  WZ2       2136            0.0000000000
      9218      3073  TIP3      H1            -11.1781403985       -2.2048857466       -6.9741546635  WZ2       2136            0.0000000000
      9219      3073  TIP3      H2            -12.5314903985       -1.9682657466       -7.6100146635  WZ2       2136            0.0000000000
      9220      3074  TIP3      OH2            -8.2719603985        1.9659242534       -6.8737646635  WZ2       2137            0.0000000000
      9221      3074  TIP3      H1             -8.7860103985        1.8401442534       -6.0761646635  WZ2       2137            0.0000000000
      9222      3074  TIP3      H2             -8.4274903985        2.8782342534       -7.1181446635  WZ2       2137            0.0000000000
      9223      3075  TIP3      OH2            -7.5094703985        6.8269242534      -21.1124646635  WZ2       2138            0.0000000000
      9224      3075  TIP3      H1             -7.4673903985        6.6043142534      -22.0424646635  WZ2       2138            0.0000000000
      9225      3075  TIP3      H2             -6.6602603985        7.2256342534      -20.9224746635  WZ2       2138            0.0000000000
      9226      3076  TIP3      OH2           -11.9367203985        0.7027442534      -20.4421346635  WZ2       2139            0.0000000000
      9227      3076  TIP3      H1            -12.1902403985        0.7219042534      -19.5193246635  WZ2       2139            0.0000000000
      9228      3076  TIP3      H2            -12.1935103985       -0.1687157466      -20.7435146635  WZ2       2139            0.0000000000
      9229      3077  TIP3      OH2           -16.1702203985        3.4538142534      -10.0068946635  WZ2       2140            0.0000000000
      9230      3077  TIP3      H1            -16.8120103985        3.4135442534       -9.2978846635  WZ2       2140            0.0000000000
      9231      3077  TIP3      H2            -16.1330203985        4.3802842534      -10.2445946635  WZ2       2140            0.0000000000
      9232      3078  TIP3      OH2           -16.1733103985        3.6748242534      -15.0948946635  WZ2       2141            0.0000000000
      9233      3078  TIP3      H1            -17.0660203985        3.3344342534      -15.1535146635  WZ2       2141            0.0000000000
      9234      3078  TIP3      H2            -15.7226503985        3.2979142534      -15.8505746635  WZ2       2141            0.0000000000
      9235      3079  TIP3      OH2           -10.6377603985        4.0908542534      -16.2778146635  WZ2       2142            0.0000000000
      9236      3079  TIP3      H1            -11.0467303985        4.9057142534      -16.5693346635  WZ2       2142            0.0000000000
      9237      3079  TIP3      H2             -9.9171403985        3.9508642534      -16.8921046635  WZ2       2142            0.0000000000
      9238      3080  TIP3      OH2           -11.5356003985        4.2664942534       -4.7897446635  WZ2       2143            0.0000000000
      9239      3080  TIP3      H1            -12.0982203985        3.5616542534       -4.4689646635  WZ2       2143            0.0000000000
      9240      3080  TIP3      H2            -10.7092603985        4.1456842534       -4.3219846635  WZ2       2143            0.0000000000
      9241      3081  TIP3      OH2            -9.6329903985        3.5368942534      -13.4638446635  WZ2       2144            0.0000000000
      9242      3081  TIP3      H1             -9.8285403985        4.1425742534      -14.1787846635  WZ2       2144            0.0000000000
      9243      3081  TIP3      H2             -9.4517303985        2.7034142534      -13.8982146635  WZ2       2144            0.0000000000
      9244      3082  TIP3      OH2           -18.4201703985        3.7741642534       -8.1396946635  WZ2       2145            0.0000000000
      9245      3082  TIP3      H1            -18.4582303985        4.1743242534       -7.2709846635  WZ2       2145            0.0000000000
      9246      3082  TIP3      H2            -18.9110603985        2.9574042534       -8.0494046635  WZ2       2145            0.0000000000
      9247      3083  TIP3      OH2           -15.0544303985        1.1483942534      -21.3410946635  WZ2       2146            0.0000000000
      9248      3083  TIP3      H1            -15.4853603985        0.7034042534      -20.6113546635  WZ2       2146            0.0000000000
      9249      3083  TIP3      H2            -15.7725603985        1.5200242534      -21.8533446635  WZ2       2146            0.0000000000
      9250      3084  TIP3      OH2           -21.8120903985        0.8903442534      -14.2892246635  WZ2       2147            0.0000000000
      9251      3084  TIP3      H1            -21.1813203985        0.8615542534      -13.5698346635  WZ2       2147            0.0000000000
      9252      3084  TIP3      H2            -21.3626603985        0.4652142534      -15.0196346635  WZ2       2147            0.0000000000
      9253      3085  TIP3      OH2           -20.5378803985        1.6365442534      -18.8651846635  WZ2       2148            0.0000000000
      9254      3085  TIP3      H1            -20.0637103985        2.2275342534      -19.4500946635  WZ2       2148            0.0000000000
      9255      3085  TIP3      H2            -21.2552403985        2.1668342534      -18.5181746635  WZ2       2148            0.0000000000
      9256      3086  TIP3      OH2           -10.3690703985        5.1750242534       -8.7926046635  WZ2       2149            0.0000000000
      9257      3086  TIP3      H1            -10.0455903985        4.5439942534       -9.4355546635  WZ2       2149            0.0000000000
      9258      3086  TIP3      H2            -10.8091403985        4.6402442534       -8.1318646635  WZ2       2149            0.0000000000
      9259      3087  TIP3      OH2           -13.5917803985        1.1025742534      -14.0084846635  WZ2       2150            0.0000000000
      9260      3087  TIP3      H1            -14.5026703985        1.1592542534      -13.7198846635  WZ2       2150            0.0000000000
      9261      3087  TIP3      H2            -13.0864903985        1.0421242534      -13.1977646635  WZ2       2150            0.0000000000
      9262      3088  TIP3      OH2           -18.7634403985        2.7312042534      -15.1817246635  WZ2       2151            0.0000000000
      9263      3088  TIP3      H1            -19.6526403985        2.8307542534      -15.5217646635  WZ2       2151            0.0000000000
      9264      3088  TIP3      H2            -18.4669503985        1.8895042534      -15.5279346635  WZ2       2151            0.0000000000
      9265      3089  TIP3      OH2           -15.1102603985        2.7314642534      -17.5252646635  WZ2       2152            0.0000000000
      9266      3089  TIP3      H1            -14.1787103985        2.8604642534      -17.3469546635  WZ2       2152            0.0000000000
      9267      3089  TIP3      H2            -15.3252303985        3.4008942534      -18.1747946635  WZ2       2152            0.0000000000
      9268      3090  TIP3      OH2            -9.1865903985        0.3372042534      -10.7443046635  WZ2       2153            0.0000000000
      9269      3090  TIP3      H1             -9.8634303985        0.4685142534      -10.0803346635  WZ2       2153            0.0000000000
      9270      3090  TIP3      H2             -9.6721003985        0.1821542534      -11.5545346635  WZ2       2153            0.0000000000
      9271      3091  TIP3      OH2           -16.4362403985        3.9256842534      -19.9586546635  WZ2       2154            0.0000000000
      9272      3091  TIP3      H1            -16.9787303985        3.5460642534      -20.6498946635  WZ2       2154            0.0000000000
      9273      3091  TIP3      H2            -15.6027503985        4.1201542534      -20.3872446635  WZ2       2154            0.0000000000
      9274      3092  TIP3      OH2            -5.8990803985       16.0087442534       -4.4675446635  WZ2       2155            0.0000000000
      9275      3092  TIP3      H1             -5.6992103985       16.4329342534       -5.3020146635  WZ2       2155            0.0000000000
      9276      3092  TIP3      H2             -5.2437103985       16.3525642534       -3.8605046635  WZ2       2155            0.0000000000
      9277      3093  TIP3      OH2           -18.3011003985        8.4828742534       -4.8594946635  WZ2       2156            0.0000000000
      9278      3093  TIP3      H1            -17.5688603985        8.7374642534       -4.2980446635  WZ2       2156            0.0000000000
      9279      3093  TIP3      H2            -19.0812303985        8.6874142534       -4.3439546635  WZ2       2156            0.0000000000
      9280      3094  TIP3      OH2           -12.2718103985        3.8898742534      -12.1215246635  WZ2       2157            0.0000000000
      9281      3094  TIP3      H1            -11.7074703985        3.3435342534      -12.6685646635  WZ2       2157            0.0000000000
      9282      3094  TIP3      H2            -12.4194703985        3.3680642534      -11.3327646635  WZ2       2157            0.0000000000
      9283      3095  TIP3      OH2           -17.2698403985        0.0264842534      -15.7030446635  WZ2       2158            0.0000000000
      9284      3095  TIP3      H1            -17.5868903985       -0.8759857466      -15.7385046635  WZ2       2158            0.0000000000
      9285      3095  TIP3      H2            -16.4884303985        0.0282242534      -16.2558846635  WZ2       2158            0.0000000000
      9286      3096  TIP3      OH2           -13.6452203985        2.2784842534       -9.7074846635  WZ2       2159            0.0000000000
      9287      3096  TIP3      H1            -14.4806903985        2.7324342534       -9.5972446635  WZ2       2159            0.0000000000
      9288      3096  TIP3      H2            -13.1211603985        2.5543342534       -8.9554946635  WZ2       2159            0.0000000000
      9289      3097  TIP3      OH2           -13.1009603985        8.4912542534      -18.0228446635  WZ2       2160            0.0000000000
      9290      3097  TIP3      H1            -13.8458603985        7.9837842534      -18.3450546635  WZ2       2160            0.0000000000
      9291      3097  TIP3      H2            -13.2352403985        8.5400542534      -17.0763646635  WZ2       2160            0.0000000000
      9292      3098  TIP3      OH2            -5.9510703985        7.6240742534       -9.2360846635  WZ2       2161            0.0000000000
      9293      3098  TIP3      H1             -5.3091903985        8.0807042534       -9.7798646635  WZ2       2161            0.0000000000
      9294      3098  TIP3      H2             -6.7813803985        7.7373142534       -9.6986746635  WZ2       2161            0.0000000000
      9295      3099  TIP3      OH2            -9.2032803985        1.3052442534      -19.8235846635  WZ2       2162            0.0000000000
      9296      3099  TIP3      H1            -10.1418603985        1.4168042534      -19.9747046635  WZ2       2162            0.0000000000
      9297      3099  TIP3      H2             -8.9060703985        2.1619342534      -19.5170146635  WZ2       2162            0.0000000000
      9298      3100  TIP3      OH2           -11.5817503985        8.6755842534       -6.7859346635  WZ2       2163            0.0000000000
      9299      3100  TIP3      H1            -11.9271403985        8.2938242534       -5.9789746635  WZ2       2163            0.0000000000
      9300      3100  TIP3      H2            -11.7817403985        9.6089442534       -6.7146446635  WZ2       2163            0.0000000000
      9301      3101  TIP3      OH2            -8.4849303985        3.1725142534      -18.1628446635  WZ2       2164            0.0000000000
      9302      3101  TIP3      H1             -7.5930303985        3.0350142534      -17.8437246635  WZ2       2164            0.0000000000
      9303      3101  TIP3      H2             -8.4285703985        3.9631242534      -18.6994946635  WZ2       2164            0.0000000000
      9304      3102  TIP3      OH2           -17.9761303985        7.7862542534      -12.2530546635  WZ2       2165            0.0000000000
      9305      3102  TIP3      H1            -17.2314103985        7.7838242534      -12.8544046635  WZ2       2165            0.0000000000
      9306      3102  TIP3      H2            -17.8984703985        6.9626342534      -11.7715446635  WZ2       2165            0.0000000000
      9307      3103  TIP3      OH2           -10.9755503985        9.9496842534      -18.9973846635  WZ2       2166            0.0000000000
      9308      3103  TIP3      H1            -11.2707103985       10.7764742534      -18.6159046635  WZ2       2166            0.0000000000
      9309      3103  TIP3      H2            -11.6785503985        9.3303742534      -18.8012446635  WZ2       2166            0.0000000000
      9310      3104  TIP3      OH2           -20.9681603985        6.2469442534       -6.9382046635  WZ2       2167            0.0000000000
      9311      3104  TIP3      H1            -20.7453003985        5.8289042534       -6.1064546635  WZ2       2167            0.0000000000
      9312      3104  TIP3      H2            -21.5701503985        5.6344442534       -7.3609246635  WZ2       2167            0.0000000000
      9313      3105  TIP3      OH2           -13.9516703985        5.7639342534       -4.7252346635  WZ2       2168            0.0000000000
      9314      3105  TIP3      H1            -14.2475903985        5.5982342534       -5.6203246635  WZ2       2168            0.0000000000
      9315      3105  TIP3      H2            -13.0201503985        5.5439642534       -4.7358446635  WZ2       2168            0.0000000000
      9316      3106  TIP3      OH2            -9.3313903985       11.1371342534       -6.8354346635  WZ2       2169            0.0000000000
      9317      3106  TIP3      H1            -10.2319603985       11.3203942534       -7.1030446635  WZ2       2169            0.0000000000
      9318      3106  TIP3      H2             -9.2972803985       11.3960642534       -5.9145546635  WZ2       2169            0.0000000000
      9319      3107  TIP3      OH2            -3.6000603985        3.3819242534      -18.4681746635  WZ2       2170            0.0000000000
      9320      3107  TIP3      H1             -4.1544303985        2.9857242534      -19.1404246635  WZ2       2170            0.0000000000
      9321      3107  TIP3      H2             -3.4997003985        4.2924442534      -18.7458446635  WZ2       2170            0.0000000000
      9322      3108  TIP3      OH2            -3.6368603985        9.1820942534       -5.6310246635  WZ2       2171            0.0000000000
      9323      3108  TIP3      H1             -4.4880103985        9.4204742534       -5.9983846635  WZ2       2171            0.0000000000
      9324      3108  TIP3      H2             -3.0465203985        9.1654142534       -6.3843146635  WZ2       2171            0.0000000000
      9325      3109  TIP3      OH2            -5.3048903985       12.1679642534      -18.0029646635  WZ2       2172            0.0000000000
      9326      3109  TIP3      H1             -5.6777803985       11.3423442534      -17.6939046635  WZ2       2172            0.0000000000
      9327      3109  TIP3      H2             -5.0275403985       11.9849042534      -18.9006246635  WZ2       2172            0.0000000000
      9328      3110  TIP3      OH2            -8.1445003985        6.9759142534      -10.9817746635  WZ2       2173            0.0000000000
      9329      3110  TIP3      H1             -9.0728103985        6.7441042534      -11.0088446635  WZ2       2173            0.0000000000
      9330      3110  TIP3      H2             -7.6933903985        6.1988942534      -11.3118946635  WZ2       2173            0.0000000000
      9331      3111  TIP3      OH2           -15.6011903985       11.3040742534      -14.8489046635  WZ2       2174            0.0000000000
      9332      3111  TIP3      H1            -15.0739703985       12.0775142534      -15.0490246635  WZ2       2174            0.0000000000
      9333      3111  TIP3      H2            -16.4813403985       11.5289942534      -15.1505046635  WZ2       2174            0.0000000000
      9334      3112  TIP3      OH2           -19.8464203985        6.1664842534      -20.2616646635  WZ2       2175            0.0000000000
      9335      3112  TIP3      H1            -19.2304303985        6.7932042534      -19.8821846635  WZ2       2175            0.0000000000
      9336      3112  TIP3      H2            -20.7081603985        6.4824642534      -19.9900146635  WZ2       2175            0.0000000000
      9337      3113  TIP3      OH2           -14.1739603985        8.9670642534      -15.2724746635  WZ2       2176            0.0000000000
      9338      3113  TIP3      H1            -14.4149603985        9.8925042534      -15.2309446635  WZ2       2176            0.0000000000
      9339      3113  TIP3      H2            -14.9146003985        8.5081942534      -14.8760846635  WZ2       2176            0.0000000000
      9340      3114  TIP3      OH2           -13.6593003985       13.1164242534       -8.9573646635  WZ2       2177            0.0000000000
      9341      3114  TIP3      H1            -13.2968303985       13.9709842534       -9.1909246635  WZ2       2177            0.0000000000
      9342      3114  TIP3      H2            -13.1277803985       12.8245842534       -8.2167346635  WZ2       2177            0.0000000000
      9343      3115  TIP3      OH2           -15.4908803985       13.9888242534      -15.7272546635  WZ2       2178            0.0000000000
      9344      3115  TIP3      H1            -16.4408303985       14.0945642534      -15.6759246635  WZ2       2178            0.0000000000
      9345      3115  TIP3      H2            -15.1390703985       14.8095642534      -15.3825046635  WZ2       2178            0.0000000000
      9346      3116  TIP3      OH2           -10.1152203985        9.2154942534       -9.2568046635  WZ2       2179            0.0000000000
      9347      3116  TIP3      H1            -10.5410903985        8.9876642534       -8.4304046635  WZ2       2179            0.0000000000
      9348      3116  TIP3      H2             -9.5346403985        8.4766742534       -9.4392746635  WZ2       2179            0.0000000000
      9349      3117  TIP3      OH2            -7.9123303985       10.1445442534      -20.1829046635  WZ2       2180            0.0000000000
      9350      3117  TIP3      H1             -7.5590203985        9.7645242534      -19.3785546635  WZ2       2180            0.0000000000
      9351      3117  TIP3      H2             -8.8609803985       10.0510242534      -20.0959746635  WZ2       2180            0.0000000000
      9352      3118  TIP3      OH2            -7.4568003985       13.7674442534       -6.7873246635  WZ2       2181            0.0000000000
      9353      3118  TIP3      H1             -8.0584803985       13.2117342534       -7.2826946635  WZ2       2181            0.0000000000
      9354      3118  TIP3      H2             -7.1754303985       14.4344242534       -7.4135846635  WZ2       2181            0.0000000000
      9355      3119  TIP3      OH2            -3.4088903985       14.6237942534      -19.9818846635  WZ2       2182            0.0000000000
      9356      3119  TIP3      H1             -2.6651003985       15.2098442534      -20.1217246635  WZ2       2182            0.0000000000
      9357      3119  TIP3      H2             -4.1030803985       15.1923742534      -19.6486446635  WZ2       2182            0.0000000000
      9358      3120  TIP3      OH2           -19.3342103985        1.0002142534       -7.3800646635  WZ2       2183            0.0000000000
      9359      3120  TIP3      H1            -20.2269803985        1.3387542534       -7.4476646635  WZ2       2183            0.0000000000
      9360      3120  TIP3      H2            -19.4329303985        0.1448242534       -6.9619846635  WZ2       2183            0.0000000000
      9361      3121  TIP3      OH2            -7.0464003985        8.8167442534      -17.9561146635  WZ2       2184            0.0000000000
      9362      3121  TIP3      H1             -7.3236403985        8.0886742534      -17.4000046635  WZ2       2184            0.0000000000
      9363      3121  TIP3      H2             -6.1191003985        8.9359442534      -17.7508546635  WZ2       2184            0.0000000000
      9364      3122  TIP3      OH2           -19.6830103985       12.8046542534       -8.9451246635  WZ2       2185            0.0000000000
      9365      3122  TIP3      H1            -19.4659803985       11.8728942534       -8.9761546635  WZ2       2185            0.0000000000
      9366      3122  TIP3      H2            -19.4366603985       13.0791542534       -8.0618446635  WZ2       2185            0.0000000000
      9367      3123  TIP3      OH2           -13.8215503985       11.2561542534      -21.7359046635  WZ2       2186            0.0000000000
      9368      3123  TIP3      H1            -13.5825703985       10.5079642534      -22.2830146635  WZ2       2186            0.0000000000
      9369      3123  TIP3      H2            -14.0904203985       10.8683242534      -20.9031246635  WZ2       2186            0.0000000000
      9370      3124  TIP3      OH2           -14.8844903985       10.8265342534      -19.2796446635  WZ2       2187            0.0000000000
      9371      3124  TIP3      H1            -14.7376903985       10.3065142534      -18.4895546635  WZ2       2187            0.0000000000
      9372      3124  TIP3      H2            -14.8873203985       11.7332942534      -18.9730546635  WZ2       2187            0.0000000000
      9373      3125  TIP3      OH2           -18.4313803985        8.0788642534      -18.7691046635  WZ2       2188            0.0000000000
      9374      3125  TIP3      H1            -19.1174503985        8.4311142534      -18.2021346635  WZ2       2188            0.0000000000
      9375      3125  TIP3      H2            -17.9085903985        8.8418242534      -19.0156746635  WZ2       2188            0.0000000000
      9376      3126  TIP3      OH2           -10.5998703985        0.7412442534       -8.4902046635  WZ2       2189            0.0000000000
      9377      3126  TIP3      H1             -9.9010803985        0.8151142534       -7.8402346635  WZ2       2189            0.0000000000
      9378      3126  TIP3      H2            -10.9807303985       -0.1232557466       -8.3359146635  WZ2       2189            0.0000000000
      9379      3127  TIP3      OH2            -9.8153803985        0.3934142534      -17.3929746635  WZ2       2190            0.0000000000
      9380      3127  TIP3      H1             -9.5955503985        0.8649542534      -18.1964346635  WZ2       2190            0.0000000000
      9381      3127  TIP3      H2             -9.2569803985        0.7876742534      -16.7229146635  WZ2       2190            0.0000000000
      9382      3128  TIP3      OH2           -12.1467703985       12.5238942534      -18.5302246635  WZ2       2191            0.0000000000
      9383      3128  TIP3      H1            -12.9631603985       13.0208642534      -18.4777946635  WZ2       2191            0.0000000000
      9384      3128  TIP3      H2            -11.6171403985       12.9992442534      -19.1703446635  WZ2       2191            0.0000000000
      9385      3129  TIP3      OH2           -12.6153903985        2.1212942534      -16.5581346635  WZ2       2192            0.0000000000
      9386      3129  TIP3      H1            -11.8031303985        2.6256142534      -16.5119646635  WZ2       2192            0.0000000000
      9387      3129  TIP3      H2            -12.8600903985        1.9762642534      -15.6441746635  WZ2       2192            0.0000000000
      9388      3130  TIP3      OH2           -12.0797503985        3.1075642534       -7.3734746635  WZ2       2193            0.0000000000
      9389      3130  TIP3      H1            -11.9607203985        3.6811042534       -6.6164346635  WZ2       2193            0.0000000000
      9390      3130  TIP3      H2            -11.4242903985        2.4195042534       -7.2586946635  WZ2       2193            0.0000000000
      9391      3131  TIP3      OH2           -11.7317203985       -0.7974057466      -15.6200246635  WZ2       2194            0.0000000000
      9392      3131  TIP3      H1            -12.0783703985       -0.1803457466      -14.9755946635  WZ2       2194            0.0000000000
      9393      3131  TIP3      H2            -11.0730303985       -0.2968357466      -16.1014746635  WZ2       2194            0.0000000000
      9394      3132  TIP3      OH2           -14.8084603985       13.5676142534      -18.5485346635  WZ2       2195            0.0000000000
      9395      3132  TIP3      H1            -14.6475903985       14.3673642534      -19.0492746635  WZ2       2195            0.0000000000
      9396      3132  TIP3      H2            -15.0056803985       13.8742142534      -17.6634746635  WZ2       2195            0.0000000000
      9397      3133  TIP3      OH2           -16.0740203985        0.2655342534      -18.9327746635  WZ2       2196            0.0000000000
      9398      3133  TIP3      H1            -16.1575403985        1.1538442534      -18.5861346635  WZ2       2196            0.0000000000
      9399      3133  TIP3      H2            -15.1839903985        0.0002042534      -18.7010946635  WZ2       2196            0.0000000000
      9400      3134  TIP3      OH2            -5.8751703985        1.0145942534       -6.5385046635  WZ2       2197            0.0000000000
      9401      3134  TIP3      H1             -6.7915903985        1.2767642534       -6.6261346635  WZ2       2197            0.0000000000
      9402      3134  TIP3      H2             -5.5396703985        1.0114942534       -7.4349746635  WZ2       2197            0.0000000000
      9403      3135  TIP3      OH2            -7.2730703985        4.7646942534      -12.4427746635  WZ2       2198            0.0000000000
      9404      3135  TIP3      H1             -8.0706303985        4.3497142534      -12.7712746635  WZ2       2198            0.0000000000
      9405      3135  TIP3      H2             -6.8279603985        4.0740642534      -11.9517246635  WZ2       2198            0.0000000000
      9406      3136  TIP3      OH2           -17.8154903985       10.6927542534      -19.8723246635  WZ2       2199            0.0000000000
      9407      3136  TIP3      H1            -17.2233403985       11.3922342534      -19.5960846635  WZ2       2199            0.0000000000
      9408      3136  TIP3      H2            -17.3561903985       10.2597042534      -20.5918646635  WZ2       2199            0.0000000000
      9409      3137  TIP3      OH2           -19.4995703985        3.3570542534      -20.7563846635  WZ2       2200            0.0000000000
      9410      3137  TIP3      H1            -19.5443103985        4.2963642534      -20.5776846635  WZ2       2200            0.0000000000
      9411      3137  TIP3      H2            -20.3872503985        3.1215442534      -21.0261746635  WZ2       2200            0.0000000000
      9412      3138  TIP3      OH2            -6.1866103985       14.0209442534      -10.8204246635  WZ2       2201            0.0000000000
      9413      3138  TIP3      H1             -6.3421803985       14.6993842534      -11.4774946635  WZ2       2201            0.0000000000
      9414      3138  TIP3      H2             -5.2539703985       14.0928742534      -10.6173646635  WZ2       2201            0.0000000000
      9415      3139  TIP3      OH2           -18.6913703985       -1.8612857466      -12.0832846635  WZ2       2202            0.0000000000
      9416      3139  TIP3      H1            -18.9203903985       -1.8020357466      -13.0107846635  WZ2       2202            0.0000000000
      9417      3139  TIP3      H2            -19.1340303985       -2.6527357466      -11.7768746635  WZ2       2202            0.0000000000
      9418      3140  TIP3      OH2           -19.7610403985       12.0794242534      -15.9227046635  WZ2       2203            0.0000000000
      9419      3140  TIP3      H1            -20.5931803985       12.5516942534      -15.8955646635  WZ2       2203            0.0000000000
      9420      3140  TIP3      H2            -19.2152103985       12.5891842534      -16.5213946635  WZ2       2203            0.0000000000
      9421      3141  TIP3      OH2           -20.4726703985       14.6917942534       -4.5929046635  WZ2       2204            0.0000000000
      9422      3141  TIP3      H1            -19.9324503985       14.4751942534       -3.8329846635  WZ2       2204            0.0000000000
      9423      3141  TIP3      H2            -20.9538703985       13.8863942534       -4.7826546635  WZ2       2204            0.0000000000
      9424      3142  TIP3      OH2           -15.8753303985       13.6112342534       -2.9724846635  WZ2       2205            0.0000000000
      9425      3142  TIP3      H1            -15.1076103985       13.1523142534       -2.6315646635  WZ2       2205            0.0000000000
      9426      3142  TIP3      H2            -15.8967103985       13.3852142534       -3.9023646635  WZ2       2205            0.0000000000
      9427      3143  TIP3      OH2           -11.7833703985       13.1192942534      -21.5973046635  WZ2       2206            0.0000000000
      9428      3143  TIP3      H1            -12.4272703985       12.4881542534      -21.2759346635  WZ2       2206            0.0000000000
      9429      3143  TIP3      H2            -11.0215403985       12.5880942534      -21.8289546635  WZ2       2206            0.0000000000
      9430      3144  TIP3      OH2            -9.2984603985       11.9913442534       -4.2433346635  WZ2       2207            0.0000000000
      9431      3144  TIP3      H1             -9.6495103985       11.1346442534       -4.0002946635  WZ2       2207            0.0000000000
      9432      3144  TIP3      H2             -8.5721403985       12.1340142534       -3.6364346635  WZ2       2207            0.0000000000
      9433      3145  TIP3      OH2            -7.1790803985       12.9362842534      -21.3635046635  WZ2       2208            0.0000000000
      9434      3145  TIP3      H1             -6.8960403985       12.1418042534      -20.9108146635  WZ2       2208            0.0000000000
      9435      3145  TIP3      H2             -6.4392903985       13.1693842534      -21.9243946635  WZ2       2208            0.0000000000
      9436      3146  TIP3      OH2           -20.5657203985        8.5022042534       -3.6384746635  WZ2       2209            0.0000000000
      9437      3146  TIP3      H1            -20.4216703985        7.6002742534       -3.9248046635  WZ2       2209            0.0000000000
      9438      3146  TIP3      H2            -21.3379803985        8.7884142534       -4.1262446635  WZ2       2209            0.0000000000
      9439      3147  TIP3      OH2           -16.2243503985        8.8457742534      -21.5060146635  WZ2       2210            0.0000000000
      9440      3147  TIP3      H1            -16.1599403985        8.0517342534      -20.9753746635  WZ2       2210            0.0000000000
      9441      3147  TIP3      H2            -15.5714303985        8.7270542534      -22.1958146635  WZ2       2210            0.0000000000
      9442      3148  TIP3      OH2           -13.9101103985        8.4720142534       -4.2058346635  WZ2       2211            0.0000000000
      9443      3148  TIP3      H1            -14.2387303985        8.7428242534       -5.0630946635  WZ2       2211            0.0000000000
      9444      3148  TIP3      H2            -13.7582903985        7.5309942534       -4.2933346635  WZ2       2211            0.0000000000
      9445      3149  TIP3      OH2           -10.8720103985        9.8929442534      -21.7702146635  WZ2       2212            0.0000000000
      9446      3149  TIP3      H1            -11.1406003985       10.0731542534      -20.8693246635  WZ2       2212            0.0000000000
      9447      3149  TIP3      H2            -11.0784503985        8.9675642534      -21.9016346635  WZ2       2212            0.0000000000
      9448      3150  TIP3      OH2            -8.1755903985        8.3877442534       -6.8226046635  WZ2       2213            0.0000000000
      9449      3150  TIP3      H1             -7.4301103985        8.9761142534       -6.9422046635  WZ2       2213            0.0000000000
      9450      3150  TIP3      H2             -8.9329103985        8.9697142534       -6.7592946635  WZ2       2213            0.0000000000
      9451      3151  TIP3      OH2           -19.7330703985        5.7025342534       -4.2185446635  WZ2       2214            0.0000000000
      9452      3151  TIP3      H1            -19.3249503985        4.8451942534       -4.3394846635  WZ2       2214            0.0000000000
      9453      3151  TIP3      H2            -19.9933103985        5.7166642534       -3.2975146635  WZ2       2214            0.0000000000
      9454      3152  TIP3      OH2           -15.0749703985        6.8183942534      -19.2002146635  WZ2       2215            0.0000000000
      9455      3152  TIP3      H1            -15.5347703985        6.3342242534      -18.5143646635  WZ2       2215            0.0000000000
      9456      3152  TIP3      H2            -14.8201003985        6.1499342534      -19.8361646635  WZ2       2215            0.0000000000
      9457      3153  TIP3      OH2           -15.7860403985        4.7111042534       -6.8442546635  WZ2       2216            0.0000000000
      9458      3153  TIP3      H1            -16.4044303985        5.3857642534       -6.5637846635  WZ2       2216            0.0000000000
      9459      3153  TIP3      H2            -15.4419203985        5.0324942534       -7.6776346635  WZ2       2216            0.0000000000
      9460      3154  TIP3      OH2           -14.0039303985        5.0615742534      -20.9378946635  WZ2       2217            0.0000000000
      9461      3154  TIP3      H1            -14.1844303985        4.9066942534      -21.8650646635  WZ2       2217            0.0000000000
      9462      3154  TIP3      H2            -13.0538803985        5.1694442534      -20.8931046635  WZ2       2217            0.0000000000
      9463      3155  TIP3      OH2           -10.7662203985        7.1826342534       -3.5667746635  WZ2       2218            0.0000000000
      9464      3155  TIP3      H1             -9.8131003985        7.2665442534       -3.5941746635  WZ2       2218            0.0000000000
      9465      3155  TIP3      H2            -10.9267603985        6.4708142534       -2.9472846635  WZ2       2218            0.0000000000
      9466      3156  TIP3      OH2            -4.6141003985        7.4159942534      -21.4920846635  WZ2       2219            0.0000000000
      9467      3156  TIP3      H1             -4.8876203985        6.9915442534      -22.3052546635  WZ2       2219            0.0000000000
      9468      3156  TIP3      H2             -4.5746903985        8.3474442534      -21.7090446635  WZ2       2219            0.0000000000
      9469      3157  TIP3      OH2           -15.4466703985        2.0661842534       -5.7619446635  WZ2       2220            0.0000000000
      9470      3157  TIP3      H1            -15.2965803985        1.3373142534       -6.3639746635  WZ2       2220            0.0000000000
      9471      3157  TIP3      H2            -15.4444303985        2.8433542534       -6.3207246635  WZ2       2220            0.0000000000
      9472      3158  TIP3      OH2           -15.0341003985        0.4357642534       -8.2692046635  WZ2       2221            0.0000000000
      9473      3158  TIP3      H1            -14.4983503985        0.8874342534       -8.9212746635  WZ2       2221            0.0000000000
      9474      3158  TIP3      H2            -15.8861403985        0.3277442534       -8.6917946635  WZ2       2221            0.0000000000
      9475      3159  TIP3      OH2           -13.4522603985        5.8753842534       -8.0296846635  WZ2       2222            0.0000000000
      9476      3159  TIP3      H1            -12.7017803985        5.7191342534       -8.6029046635  WZ2       2222            0.0000000000
      9477      3159  TIP3      H2            -13.7914303985        6.7270442534       -8.3051346635  WZ2       2222            0.0000000000
      9478      3160  TIP3      OH2            -9.0366403985        3.6905642534       -3.0011546635  WZ2       2223            0.0000000000
      9479      3160  TIP3      H1             -8.8445103985        2.7595042534       -3.1127046635  WZ2       2223            0.0000000000
      9480      3160  TIP3      H2             -8.1790103985        4.1155142534       -3.0116146635  WZ2       2223            0.0000000000
      9481      3161  TIP3      OH2            -7.7199203985        6.4790842534       -4.9238846635  WZ2       2224            0.0000000000
      9482      3161  TIP3      H1             -8.0014203985        7.1885442534       -5.5015046635  WZ2       2224            0.0000000000
      9483      3161  TIP3      H2             -6.7774903985        6.4063842534       -5.0747646635  WZ2       2224            0.0000000000
      9484      3162  TIP3      OH2           -16.9680403985        3.2645342534       -3.8503846635  WZ2       2225            0.0000000000
      9485      3162  TIP3      H1            -17.7351403985        2.7320142534       -4.0606246635  WZ2       2225            0.0000000000
      9486      3162  TIP3      H2            -16.2891403985        2.9545742534       -4.4497546635  WZ2       2225            0.0000000000
      9487      3163  TIP3      OH2           -14.2285503985       -2.1076657466       -7.8378446635  WZ2       2226            0.0000000000
      9488      3163  TIP3      H1            -14.3265903985       -1.1613457466       -7.9432246635  WZ2       2226            0.0000000000
      9489      3163  TIP3      H2            -14.9709303985       -2.4802857466       -8.3134946635  WZ2       2226            0.0000000000
      9490      3164  TIP3      OH2           -12.9645003985        2.2138742534       -4.2740046635  WZ2       2227            0.0000000000
      9491      3164  TIP3      H1            -13.1999603985        1.9945442534       -3.3725146635  WZ2       2227            0.0000000000
      9492      3164  TIP3      H2            -13.7478103985        2.0069942534       -4.7837546635  WZ2       2227            0.0000000000
      9493      3165  TIP3      OH2           -10.2488403985        1.3412242534       -5.1986546635  WZ2       2228            0.0000000000
      9494      3165  TIP3      H1            -11.1963003985        1.3731942534       -5.0663246635  WZ2       2228            0.0000000000
      9495      3165  TIP3      H2             -9.9361703985        0.7159342534       -4.5448346635  WZ2       2228            0.0000000000
      9496      3166  TIP3      OH2            -8.6146903985       -0.0246657466       -3.1934646635  WZ2       2229            0.0000000000
      9497      3166  TIP3      H1             -8.7115103985       -0.9769357466       -3.1992746635  WZ2       2229            0.0000000000
      9498      3166  TIP3      H2             -8.9363803985        0.2440142534       -2.3329146635  WZ2       2229            0.0000000000
      9499      3167  TIP3      OH2           -18.7877603985        1.1849142534       -4.1459146635  WZ2       2230            0.0000000000
      9500      3167  TIP3      H1            -18.5760203985        0.4785242534       -4.7561646635  WZ2       2230            0.0000000000
      9501      3167  TIP3      H2            -18.8990103985        0.7475142534       -3.3017946635  WZ2       2230            0.0000000000
      9502      3168  TIP3      OH2           -14.0067403985       -2.8139257466       -5.1665646635  WZ2       2231            0.0000000000
      9503      3168  TIP3      H1            -13.2949003985       -3.4537057466       -5.1806546635  WZ2       2231            0.0000000000
      9504      3168  TIP3      H2            -14.1077003985       -2.5470957466       -6.0802546635  WZ2       2231            0.0000000000
      9505      3169  TIP3      OH2           -13.6529903985       -1.1310857466       -3.1129346635  WZ2       2232            0.0000000000
      9506      3169  TIP3      H1            -13.7847703985       -1.6067057466       -3.9330846635  WZ2       2232            0.0000000000
      9507      3169  TIP3      H2            -14.2522503985       -0.3867257466       -3.1682246635  WZ2       2232            0.0000000000
      9508      3170  TIP3      OH2           -14.1067603985       15.7519442534      -19.9365346635  WZ2       2233            0.0000000000
      9509      3170  TIP3      H1            -13.1736903985       15.9098142534      -19.7926946635  WZ2       2233            0.0000000000
      9510      3170  TIP3      H2            -14.3708803985       16.4272442534      -20.5613846635  WZ2       2233            0.0000000000
      9511      3171  TIP3      OH2           -20.5382703985       10.3883242534      -20.4537246635  WZ2       2234            0.0000000000
      9512      3171  TIP3      H1            -19.6243503985       10.4672142534      -20.1803346635  WZ2       2234            0.0000000000
      9513      3171  TIP3      H2            -20.5309603985        9.7012842534      -21.1201646635  WZ2       2234            0.0000000000
      9514      3172  TIP3      OH2           -21.8892103985       15.7811742534      -15.3763346635  WZ2       2235            0.0000000000
      9515      3172  TIP3      H1            -22.5365003985       15.3193442534      -15.9092146635  WZ2       2235            0.0000000000
      9516      3172  TIP3      H2            -21.5347503985       15.1095042534      -14.7937146635  WZ2       2235            0.0000000000
      9517      3173  TIP3      OH2           -21.0192903985       13.8618742534      -13.5717146635  WZ2       2236            0.0000000000
      9518      3173  TIP3      H1            -21.3536103985       12.9816042534      -13.3996946635  WZ2       2236            0.0000000000
      9519      3173  TIP3      H2            -20.7970503985       14.2073742534      -12.7071546635  WZ2       2236            0.0000000000
      9520      3174  TIP3      OH2            -3.4708103985       14.6715142534      -10.5912346635  WZ2       2237            0.0000000000
      9521      3174  TIP3      H1             -3.4921403985       14.8563542534       -9.6522946635  WZ2       2237            0.0000000000
      9522      3174  TIP3      H2             -2.7801903985       15.2399142534      -10.9320946635  WZ2       2237            0.0000000000
      9523      3175  TIP3      OH2            -3.9075203985       14.2386242534       -7.6693246635  WZ2       2238            0.0000000000
      9524      3175  TIP3      H1             -4.3946503985       13.5030342534       -8.0405846635  WZ2       2238            0.0000000000
      9525      3175  TIP3      H2             -3.3582503985       13.8450142534       -6.9913846635  WZ2       2238            0.0000000000
      9526      3176  TIP3      OH2            -5.4567903985       10.0284342534       -3.0312946635  WZ2       2239            0.0000000000
      9527      3176  TIP3      H1             -6.3226803985        9.9234042534       -2.6370646635  WZ2       2239            0.0000000000
      9528      3176  TIP3      H2             -5.0802003985       10.7867642534       -2.5848246635  WZ2       2239            0.0000000000
      9529      3177  TIP3      OH2            -4.1558203985        8.2848042534      -17.5170446635  WZ2       2240            0.0000000000
      9530      3177  TIP3      H1             -3.3056803985        8.7058942534      -17.3898846635  WZ2       2240            0.0000000000
      9531      3177  TIP3      H2             -4.1503103985        7.5448142534      -16.9099046635  WZ2       2240            0.0000000000
      9532      3178  TIP3      OH2            -3.7612603985        6.3385442534      -15.6934746635  WZ2       2241            0.0000000000
      9533      3178  TIP3      H1             -4.4878003985        5.8588042534      -15.2957146635  WZ2       2241            0.0000000000
      9534      3178  TIP3      H2             -3.1799303985        6.5440142534      -14.9613146635  WZ2       2241            0.0000000000
      9535      3179  TIP3      OH2            -4.0021403985        9.1232942534      -10.7457146635  WZ2       2242            0.0000000000
      9536      3179  TIP3      H1             -3.1687203985        8.7452942534      -11.0263546635  WZ2       2242            0.0000000000
      9537      3179  TIP3      H2             -3.8901103985       10.0664142534      -10.8648046635  WZ2       2242            0.0000000000
      9538      3180  TIP3      OH2            -5.5159103985       12.0010442534       -8.4388746635  WZ2       2243            0.0000000000
      9539      3180  TIP3      H1             -6.1633803985       12.3261942534       -7.8133546635  WZ2       2243            0.0000000000
      9540      3180  TIP3      H2             -6.0335103985       11.5608142534       -9.1130446635  WZ2       2243            0.0000000000
      9541      3181  TIP3      OH2            -3.4929503985        6.2393942534      -19.3023446635  WZ2       2244            0.0000000000
      9542      3181  TIP3      H1             -4.0148403985        6.5958042534      -20.0212546635  WZ2       2244            0.0000000000
      9543      3181  TIP3      H2             -3.5260303985        6.9141742534      -18.6242546635  WZ2       2244            0.0000000000
      9544      3182  TIP3      OH2            -5.1440503985        3.4789542534      -20.7516346635  WZ2       2245            0.0000000000
      9545      3182  TIP3      H1             -5.0476103985        4.1456542534      -21.4316646635  WZ2       2245            0.0000000000
      9546      3182  TIP3      H2             -5.2840903985        2.6635842534      -21.2330846635  WZ2       2245            0.0000000000
      9547      3183  TIP3      OH2            -5.9745803985        4.8591942534      -15.1306046635  WZ2       2246            0.0000000000
      9548      3183  TIP3      H1             -6.1247003985        3.9140542534      -15.1508246635  WZ2       2246            0.0000000000
      9549      3183  TIP3      H2             -6.3281303985        5.1403342534      -14.2866946635  WZ2       2246            0.0000000000
      9550      3184  TIP3      OH2           -20.9393403985        6.9374142534      -11.1202246635  WZ2       2247            0.0000000000
      9551      3184  TIP3      H1            -20.7550503985        6.8555842534      -12.0559346635  WZ2       2247            0.0000000000
      9552      3184  TIP3      H2            -20.0900503985        6.8131142534      -10.6965846635  WZ2       2247            0.0000000000
      9553      3185  TIP3      OH2            -5.1182903985        6.8295242534       -5.4917746635  WZ2       2248            0.0000000000
      9554      3185  TIP3      H1             -4.5355603985        6.0947542534       -5.3000546635  WZ2       2248            0.0000000000
      9555      3185  TIP3      H2             -4.5543603985        7.6015542534       -5.4451946635  WZ2       2248            0.0000000000
      9556      3186  TIP3      OH2            -3.6215803985        4.7321042534       -4.8072346635  WZ2       2249            0.0000000000
      9557      3186  TIP3      H1             -4.4849103985        4.3533142534       -4.9727646635  WZ2       2249            0.0000000000
      9558      3186  TIP3      H2             -3.0172103985        3.9935842534       -4.8816546635  WZ2       2249            0.0000000000
      9559      3187  TIP3      OH2            -5.8966703985        0.8869342534      -21.6340846635  WZ2       2250            0.0000000000
      9560      3187  TIP3      H1             -5.2860903985        0.5156142534      -20.9972646635  WZ2       2250            0.0000000000
      9561      3187  TIP3      H2             -6.7335203985        0.4656242534      -21.4380846635  WZ2       2250            0.0000000000
      9562      3188  TIP3      OH2            -6.2641003985        2.4417742534      -16.6680946635  WZ2       2251            0.0000000000
      9563      3188  TIP3      H1             -5.9843903985        1.5348142534      -16.5439246635  WZ2       2251            0.0000000000
      9564      3188  TIP3      H2             -5.5049303985        2.8759242534      -17.0571746635  WZ2       2251            0.0000000000
      9565      3189  TIP3      OH2            -5.6522703985        3.0235142534      -11.2322046635  WZ2       2252            0.0000000000
      9566      3189  TIP3      H1             -4.7194703985        3.2355042534      -11.2666046635  WZ2       2252            0.0000000000
      9567      3189  TIP3      H2             -5.8875203985        3.1247242534      -10.3099046635  WZ2       2252            0.0000000000
      9568      3190  TIP3      OH2            -5.6230803985        3.7600442534       -8.4562646635  WZ2       2253            0.0000000000
      9569      3190  TIP3      H1             -6.4659503985        4.0280842534       -8.0902846635  WZ2       2253            0.0000000000
      9570      3190  TIP3      H2             -5.1806503985        4.5822342534       -8.6671546635  WZ2       2253            0.0000000000
      9571      3191  TIP3      OH2           -21.3418603985        2.2079142534       -4.9793446635  WZ2       2254            0.0000000000
      9572      3191  TIP3      H1            -20.4223703985        2.0857442534       -4.7430346635  WZ2       2254            0.0000000000
      9573      3191  TIP3      H2            -21.7914103985        1.4578842534       -4.5899946635  WZ2       2254            0.0000000000
      9574      3192  TIP3      OH2            -3.3399203985       -2.2599357466       -3.1027646635  WZ2       2255            0.0000000000
      9575      3192  TIP3      H1             -2.9902203985       -2.9135857466       -3.7082946635  WZ2       2255            0.0000000000
      9576      3192  TIP3      H2             -3.1929703985       -1.4225257466       -3.5425046635  WZ2       2255            0.0000000000
      9577      3193  TIP3      OH2            -5.6506203985       -0.2952957466      -16.6198946635  WZ2       2256            0.0000000000
      9578      3193  TIP3      H1             -5.4681203985       -0.7441457466      -15.7943946635  WZ2       2256            0.0000000000
      9579      3193  TIP3      H2             -6.2503303985       -0.8798557466      -17.0834346635  WZ2       2256            0.0000000000
      9580      3194  TIP3      OH2           -20.1206103985        0.5200742534      -12.0880546635  WZ2       2257            0.0000000000
      9581      3194  TIP3      H1            -19.6754503985       -0.2716757466      -11.7860846635  WZ2       2257            0.0000000000
      9582      3194  TIP3      H2            -19.6543103985        1.2365942534      -11.6574946635  WZ2       2257            0.0000000000
      9583      3195  TIP3      OH2           -21.8165803985        3.5193742534      -11.0190346635  WZ2       2258            0.0000000000
      9584      3195  TIP3      H1            -21.3246003985        3.2984242534      -11.8098346635  WZ2       2258            0.0000000000
      9585      3195  TIP3      H2            -21.4544903985        4.3597142534      -10.7380846635  WZ2       2258            0.0000000000
      9586      3196  TIP3      OH2            -3.8202003985       -0.1504757466       -4.7536346635  WZ2       2259            0.0000000000
      9587      3196  TIP3      H1             -4.7376303985        0.1202342534       -4.7892846635  WZ2       2259            0.0000000000
      9588      3196  TIP3      H2             -3.6972603985       -0.6856357466       -5.5376646635  WZ2       2259            0.0000000000
      9589      3197  TIP3      OH2            -3.7840003985       -0.2274857466      -20.0918646635  WZ2       2260            0.0000000000
      9590      3197  TIP3      H1             -3.3717403985       -0.9489157466      -20.5670646635  WZ2       2260            0.0000000000
      9591      3197  TIP3      H2             -3.1023503985        0.4419742534      -20.0334346635  WZ2       2260            0.0000000000
      9592      3198  TIP3      OH2           -21.5029303985       -0.2227157466      -16.9647946635  WZ2       2261            0.0000000000
      9593      3198  TIP3      H1            -22.4280903985       -0.0140557466      -17.0942446635  WZ2       2261            0.0000000000
      9594      3198  TIP3      H2            -21.0489403985        0.2613642534      -17.6545646635  WZ2       2261            0.0000000000
      9595      3199  TIP3      OH2            -6.7322103985       14.7614542534      -15.0190546635  WZ2       2262            0.0000000000
      9596      3199  TIP3      H1             -6.0799203985       14.4136642534      -15.6271446635  WZ2       2262            0.0000000000
      9597      3199  TIP3      H2             -6.2218303985       15.2497742534      -14.3730846635  WZ2       2262            0.0000000000
      9598      3200  TIP3      OH2           -21.5393903985       -1.4848157466       -8.6205446635  WZ2       2263            0.0000000000
      9599      3200  TIP3      H1            -22.2043403985       -1.7307857466       -7.9774546635  WZ2       2263            0.0000000000
      9600      3200  TIP3      H2            -21.9822603985       -0.8627757466       -9.1977446635  WZ2       2263            0.0000000000
      9601      3201  TIP3      OH2           -19.3474603985       11.6905942534       -4.4759646635  WZ2       2264            0.0000000000
      9602      3201  TIP3      H1            -20.1682103985       11.8652442534       -4.9364946635  WZ2       2264            0.0000000000
      9603      3201  TIP3      H2            -19.5996803985       11.6170642534       -3.5555246635  WZ2       2264            0.0000000000
      9604      3202  TIP3      OH2           -16.3931703985       12.6647142534       -8.2175646635  WZ2       2265            0.0000000000
      9605      3202  TIP3      H1            -16.8180603985       13.4745642534       -8.5001046635  WZ2       2265            0.0000000000
      9606      3202  TIP3      H2            -15.4888903985       12.7501242534       -8.5195846635  WZ2       2265            0.0000000000
      9607      3203  TIP3      OH2           -12.0820303985       14.0637142534       -5.2581946635  WZ2       2266            0.0000000000
      9608      3203  TIP3      H1            -11.8972803985       13.7303242534       -4.3801646635  WZ2       2266            0.0000000000
      9609      3203  TIP3      H2            -11.2355803985       14.3735742534       -5.5802746635  WZ2       2266            0.0000000000
      9610      3204  TIP3      OH2            -9.7369903985       15.3496042534       -6.0140546635  WZ2       2267            0.0000000000
      9611      3204  TIP3      H1             -9.0601003985       14.7168342534       -6.2541346635  WZ2       2267            0.0000000000
      9612      3204  TIP3      H2             -9.4151103985       15.7506542534       -5.2067246635  WZ2       2267            0.0000000000
      9613      3205  TIP3      OH2            -4.8196103985       -2.0608457466       -6.9345546635  WZ2       2268            0.0000000000
      9614      3205  TIP3      H1             -5.6322603985       -1.7358157466       -7.3220846635  WZ2       2268            0.0000000000
      9615      3205  TIP3      H2             -4.5867603985       -2.8209957466       -7.4676446635  WZ2       2268            0.0000000000
      9616      3206  TIP3      OH2           -18.9915003985       15.9211042534       -8.1700346635  WZ2       2269            0.0000000000
      9617      3206  TIP3      H1            -19.7118603985       16.3612042534       -8.6212646635  WZ2       2269            0.0000000000
      9618      3206  TIP3      H2            -19.3571003985       15.6705742534       -7.3216346635  WZ2       2269            0.0000000000
      9619      3207  TIP3      OH2           -16.5242403985       15.5214942534       -9.1403146635  WZ2       2270            0.0000000000
      9620      3207  TIP3      H1            -17.3890203985       15.5933442534       -8.7363046635  WZ2       2270            0.0000000000
      9621      3207  TIP3      H2            -16.5793403985       16.0682242534       -9.9240646635  WZ2       2270            0.0000000000
      9622      3208  TIP3      OH2           -11.8136803985       15.4093842534       -9.9647146635  WZ2       2271            0.0000000000
      9623      3208  TIP3      H1            -12.2702803985       15.9383542534      -10.6188746635  WZ2       2271            0.0000000000
      9624      3208  TIP3      H2            -11.6508803985       16.0125242534       -9.2394846635  WZ2       2271            0.0000000000
      9625      3209  TIP3      OH2            -9.4860503985       14.2873442534       -9.0196846635  WZ2       2272            0.0000000000
      9626      3209  TIP3      H1            -10.3906803985       14.4523642534       -9.2854746635  WZ2       2272            0.0000000000
      9627      3209  TIP3      H2             -9.0571903985       15.1405642534       -9.0853446635  WZ2       2272            0.0000000000
      9628      3210  TIP3      OH2            -6.8818603985       15.8572542534       -8.7249046635  WZ2       2273            0.0000000000
      9629      3210  TIP3      H1             -7.0636603985       16.7731442534       -8.9354146635  WZ2       2273            0.0000000000
      9630      3210  TIP3      H2             -6.7050803985       15.4469642534       -9.5714446635  WZ2       2273            0.0000000000
      9631      3211  TIP3      OH2           -19.5766903985       14.5443542534      -11.2598546635  WZ2       2274            0.0000000000
      9632      3211  TIP3      H1            -19.5950903985       14.1188642534      -10.4026246635  WZ2       2274            0.0000000000
      9633      3211  TIP3      H2            -18.7719003985       14.2258542534      -11.6686346635  WZ2       2274            0.0000000000
      9634      3212  TIP3      OH2           -17.4353803985       13.2542242534      -12.6048646635  WZ2       2275            0.0000000000
      9635      3212  TIP3      H1            -17.6543103985       12.3379642534      -12.4352646635  WZ2       2275            0.0000000000
      9636      3212  TIP3      H2            -16.6111603985       13.3942642534      -12.1387246635  WZ2       2275            0.0000000000
      9637      3213  TIP3      OH2           -14.8981303985       13.7241542534      -11.7560646635  WZ2       2276            0.0000000000
      9638      3213  TIP3      H1            -14.6855603985       12.8360542534      -12.0429746635  WZ2       2276            0.0000000000
      9639      3213  TIP3      H2            -14.8336203985       13.6899242534      -10.8016646635  WZ2       2276            0.0000000000
      9640      3214  TIP3      OH2           -11.3897603985       -0.6117857466      -12.6117346635  WZ2       2277            0.0000000000
      9641      3214  TIP3      H1            -12.0640803985       -1.2412257466      -12.3561546635  WZ2       2277            0.0000000000
      9642      3214  TIP3      H2            -10.8258403985       -1.0958957466      -13.2149446635  WZ2       2277            0.0000000000
      9643      3215  TIP3      OH2            -6.2470403985       -2.5043857466      -12.4990246635  WZ2       2278            0.0000000000
      9644      3215  TIP3      H1             -5.6432803985       -1.9568457466      -13.0009246635  WZ2       2278            0.0000000000
      9645      3215  TIP3      H2             -7.1168403985       -2.1853457466      -12.7396146635  WZ2       2278            0.0000000000
      9646      3216  TIP3      OH2            -4.5200003985       -1.3655157466      -14.1659346635  WZ2       2279            0.0000000000
      9647      3216  TIP3      H1             -3.9082503985       -1.8799457466      -14.6925746635  WZ2       2279            0.0000000000
      9648      3216  TIP3      H2             -4.1376603985       -0.4883057466      -14.1424946635  WZ2       2279            0.0000000000
      9649      3217  TIP3      OH2           -19.0630103985       -1.9777557466      -14.7897446635  WZ2       2280            0.0000000000
      9650      3217  TIP3      H1            -19.8400303985       -2.2122657466      -15.2971546635  WZ2       2280            0.0000000000
      9651      3217  TIP3      H2            -18.5326503985       -2.7745457466      -14.7809446635  WZ2       2280            0.0000000000
      9652      3218  TIP3      OH2           -20.2266703985       -2.1799457466      -18.9861346635  WZ2       2281            0.0000000000
      9653      3218  TIP3      H1            -19.7876003985       -1.5688957466      -19.5777846635  WZ2       2281            0.0000000000
      9654      3218  TIP3      H2            -20.8604303985       -1.6415357466      -18.5121346635  WZ2       2281            0.0000000000
      9655      3219  TIP3      OH2           -14.4837503985       -2.0510457466      -14.9764346635  WZ2       2282            0.0000000000
      9656      3219  TIP3      H1            -13.6094103985       -1.6626157466      -15.0060046635  WZ2       2282            0.0000000000
      9657      3219  TIP3      H2            -14.6196703985       -2.2662657466      -14.0537146635  WZ2       2282            0.0000000000
      9658      3220  TIP3      OH2            -8.9269103985       -2.0210657466      -13.3272646635  WZ2       2283            0.0000000000
      9659      3220  TIP3      H1             -8.8507503985       -1.9259057466      -14.2766646635  WZ2       2283            0.0000000000
      9660      3220  TIP3      H2             -9.2019903985       -2.9287757466      -13.1983546635  WZ2       2283            0.0000000000
      9661      3221  TIP3      OH2            -7.5736503985       -1.9952857466      -17.6347646635  WZ2       2284            0.0000000000
      9662      3221  TIP3      H1             -8.2765403985       -1.3803657466      -17.8446246635  WZ2       2284            0.0000000000
      9663      3221  TIP3      H2             -8.0185103985       -2.8326157466      -17.5036746635  WZ2       2284            0.0000000000
      9664      3222  TIP3      OH2           -20.3257203985       13.7682742534      -18.0886246635  WZ2       2285            0.0000000000
      9665      3222  TIP3      H1            -21.0107303985       13.7301642534      -18.7561146635  WZ2       2285            0.0000000000
      9666      3222  TIP3      H2            -20.3220003985       14.6810342534      -17.8004146635  WZ2       2285            0.0000000000
      9667      3223  TIP3      OH2           -18.3657603985       -0.2637957466      -20.5437246635  WZ2       2286            0.0000000000
      9668      3223  TIP3      H1            -17.8744203985       -0.8935557466      -21.0711746635  WZ2       2286            0.0000000000
      9669      3223  TIP3      H2            -17.7421303985        0.0321442534      -19.8806046635  WZ2       2286            0.0000000000
      9670      3224  TIP3      OH2           -13.3397503985        0.0293542534      -18.0866746635  WZ2       2287            0.0000000000
      9671      3224  TIP3      H1            -13.1616203985       -0.6173257466      -17.4038146635  WZ2       2287            0.0000000000
      9672      3224  TIP3      H2            -13.3931303985        0.8631242534      -17.6195646635  WZ2       2287            0.0000000000
      9673      3225  TIP3      OH2           -11.4613703985       14.9777642534      -19.6910046635  WZ2       2288            0.0000000000
      9674      3225  TIP3      H1            -10.5953503985       15.3445042534      -19.8691846635  WZ2       2288            0.0000000000
      9675      3225  TIP3      H2            -11.7080903985       14.5385642534      -20.5049246635  WZ2       2288            0.0000000000
      9676      3226  TIP3      OH2            -4.7524103985       14.5407942534      -17.0118946635  WZ2       2289            0.0000000000
      9677      3226  TIP3      H1             -4.9467003985       13.7930042534      -17.5769346635  WZ2       2289            0.0000000000
      9678      3226  TIP3      H2             -4.7914003985       15.2988042534      -17.5951046635  WZ2       2289            0.0000000000
      9679      3227  TIP3      OH2           -19.1052103985       -1.4635657466       -5.2721246635  WZ2       2290            0.0000000000
      9680      3227  TIP3      H1            -19.4713903985       -2.2293057466       -4.8296546635  WZ2       2290            0.0000000000
      9681      3227  TIP3      H2            -18.1923603985       -1.4345457466       -4.9856146635  WZ2       2290            0.0000000000
      9682      3228  TIP3      OH2           -17.1321303985       -2.1131257466       -3.7364146635  WZ2       2291            0.0000000000
      9683      3228  TIP3      H1            -16.2337703985       -2.3871057466       -3.9210746635  WZ2       2291            0.0000000000
      9684      3228  TIP3      H2            -17.5188203985       -2.8555257466       -3.2721546635  WZ2       2291            0.0000000000
      9685      3229  TIP3      OH2           -18.5076003985       14.6883542534      -21.0634146635  WZ2       2292            0.0000000000
      9686      3229  TIP3      H1            -18.7751403985       14.9746442534      -20.1901046635  WZ2       2292            0.0000000000
      9687      3229  TIP3      H2            -17.7363403985       14.1422742534      -20.9111646635  WZ2       2292            0.0000000000
      9688      3230  TIP3      OH2            -8.7109003985       -2.7805957466       -3.5541346635  WZ2       2293            0.0000000000
      9689      3230  TIP3      H1             -8.6341803985       -3.2065257466       -2.7003646635  WZ2       2293            0.0000000000
      9690      3230  TIP3      H2             -7.8172403985       -2.7671257466       -3.8967846635  WZ2       2293            0.0000000000
      9691      3231  TIP3      OH2            -5.5347903985       13.2920342534       -4.8617146635  WZ2       2294            0.0000000000
      9692      3231  TIP3      H1             -6.3166003985       13.1058342534       -5.3816546635  WZ2       2294            0.0000000000
      9693      3231  TIP3      H2             -5.6068003985       14.2214642534       -4.6444646635  WZ2       2294            0.0000000000
      9694      3232  TIP3      OH2             8.8712496015        7.1784742534      -14.8309946635  WZ2       2295            0.0000000000
      9695      3232  TIP3      H1              8.9603596015        8.1222942534      -14.9632846635  WZ2       2295            0.0000000000
      9696      3232  TIP3      H2              8.2330096015        6.9031142534      -15.4890546635  WZ2       2295            0.0000000000
      9697      3233  TIP3      OH2             7.8043796015        6.4335442534      -11.4121746635  WZ2       2296            0.0000000000
      9698      3233  TIP3      H1              7.7661296015        5.7871742534      -10.7072146635  WZ2       2296            0.0000000000
      9699      3233  TIP3      H2              7.4820296015        5.9669842534      -12.1833046635  WZ2       2296            0.0000000000
      9700      3234  TIP3      OH2             0.1728796015        6.0477542534       -9.8191846635  WZ2       2297            0.0000000000
      9701      3234  TIP3      H1              0.2140896015        5.4220842534       -9.0959446635  WZ2       2297            0.0000000000
      9702      3234  TIP3      H2              0.8756496015        6.6716142534       -9.6371446635  WZ2       2297            0.0000000000
      9703      3235  TIP3      OH2            11.5103996015        9.3725842534      -13.1106646635  WZ2       2298            0.0000000000
      9704      3235  TIP3      H1             11.0696696015        8.6521842534      -12.6601046635  WZ2       2298            0.0000000000
      9705      3235  TIP3      H2             11.4973696015       10.0933042534      -12.4808946635  WZ2       2298            0.0000000000
      9706      3236  TIP3      OH2             1.0961896015       10.4976442534      -11.2842746635  WZ2       2299            0.0000000000
      9707      3236  TIP3      H1              0.7267096015        9.6956942534      -11.6538446635  WZ2       2299            0.0000000000
      9708      3236  TIP3      H2              2.0372996015       10.3291342534      -11.2379346635  WZ2       2299            0.0000000000
      9709      3237  TIP3      OH2            -2.2937603985        4.1579042534      -15.8913946635  WZ2       2300            0.0000000000
      9710      3237  TIP3      H1             -2.7414203985        5.0037742534      -15.9097446635  WZ2       2300            0.0000000000
      9711      3237  TIP3      H2             -2.8546403985        3.5783242534      -16.4068846635  WZ2       2300            0.0000000000
      9712      3238  TIP3      OH2            -1.5831503985        6.3198642534      -13.7655946635  WZ2       2301            0.0000000000
      9713      3238  TIP3      H1             -1.3698003985        5.5500242534      -13.2382946635  WZ2       2301            0.0000000000
      9714      3238  TIP3      H2             -0.8453903985        6.4095342534      -14.3688346635  WZ2       2301            0.0000000000
      9715      3239  TIP3      OH2             8.6219496015       14.4767542534      -12.8986246635  WZ2       2302            0.0000000000
      9716      3239  TIP3      H1              9.2415896015       13.8002242534      -13.1717046635  WZ2       2302            0.0000000000
      9717      3239  TIP3      H2              8.4136896015       14.2588342534      -11.9901346635  WZ2       2302            0.0000000000
      9718      3240  TIP3      OH2             6.1938196015        8.8656842534      -11.0060746635  WZ2       2303            0.0000000000
      9719      3240  TIP3      H1              6.4976096015        8.1798242534      -11.6006646635  WZ2       2303            0.0000000000
      9720      3240  TIP3      H2              6.9152196015        8.9845542534      -10.3882746635  WZ2       2303            0.0000000000
      9721      3241  TIP3      OH2            14.8567996015        0.4672142534      -10.1454546635  WZ2       2304            0.0000000000
      9722      3241  TIP3      H1             14.9060196015        1.0773342534       -9.4095446635  WZ2       2304            0.0000000000
      9723      3241  TIP3      H2             15.2823096015        0.9283042534      -10.8683446635  WZ2       2304            0.0000000000
      9724      3242  TIP3      OH2             9.3345196015        3.2599242534      -10.6785946635  WZ2       2305            0.0000000000
      9725      3242  TIP3      H1              9.4771096015        2.3136242534      -10.6584346635  WZ2       2305            0.0000000000
      9726      3242  TIP3      H2              9.2284196015        3.4669042534      -11.6071046635  WZ2       2305            0.0000000000
      9727      3243  TIP3      OH2             2.4893496015        1.3615642534      -13.4061146635  WZ2       2306            0.0000000000
      9728      3243  TIP3      H1              2.5324596015        2.2214142534      -13.8244846635  WZ2       2306            0.0000000000
      9729      3243  TIP3      H2              2.0317596015        0.8090342534      -14.0397946635  WZ2       2306            0.0000000000
      9730      3244  TIP3      OH2            10.2116196015        1.4921242534      -15.0052846635  WZ2       2307            0.0000000000
      9731      3244  TIP3      H1             10.8580496015        1.1634442534      -14.3805246635  WZ2       2307            0.0000000000
      9732      3244  TIP3      H2             10.7215596015        2.0100242534      -15.6281446635  WZ2       2307            0.0000000000
      9733      3245  TIP3      OH2            -0.8905003985        3.7581442534      -12.6439746635  WZ2       2308            0.0000000000
      9734      3245  TIP3      H1             -0.2368403985        3.2083142534      -12.2119646635  WZ2       2308            0.0000000000
      9735      3245  TIP3      H2             -0.8665703985        3.4840442534      -13.5607746635  WZ2       2308            0.0000000000
      9736      3246  TIP3      OH2             4.2659496015        5.3082742534      -13.4288246635  WZ2       2309            0.0000000000
      9737      3246  TIP3      H1              4.8820496015        4.7818142534      -12.9194246635  WZ2       2309            0.0000000000
      9738      3246  TIP3      H2              3.6798296015        4.6681442534      -13.8324646635  WZ2       2309            0.0000000000
      9739      3247  TIP3      OH2            15.2482596015        1.9451342534       -7.9094746635  WZ2       2310            0.0000000000
      9740      3247  TIP3      H1             14.5597196015        2.6032042534       -8.0048146635  WZ2       2310            0.0000000000
      9741      3247  TIP3      H2             15.2637196015        1.7479242534       -6.9729346635  WZ2       2310            0.0000000000
      9742      3248  TIP3      OH2             1.2995396015        0.2794042534       -9.3320346635  WZ2       2311            0.0000000000
      9743      3248  TIP3      H1              1.0807096015        0.8094642534      -10.0984346635  WZ2       2311            0.0000000000
      9744      3248  TIP3      H2              0.6316296015        0.5059542534       -8.6848946635  WZ2       2311            0.0000000000
      9745      3249  TIP3      OH2             8.6685196015        9.7795142534      -15.7881246635  WZ2       2312            0.0000000000
      9746      3249  TIP3      H1              8.3730296015        9.4567442534      -16.6394346635  WZ2       2312            0.0000000000
      9747      3249  TIP3      H2              8.3442996015       10.6791842534      -15.7468646635  WZ2       2312            0.0000000000
      9748      3250  TIP3      OH2             3.8686796015        7.9549742534       -9.0446646635  WZ2       2313            0.0000000000
      9749      3250  TIP3      H1              3.1285896015        8.5531242534       -8.9411446635  WZ2       2313            0.0000000000
      9750      3250  TIP3      H2              4.5826296015        8.5089342534       -9.3603046635  WZ2       2313            0.0000000000
      9751      3251  TIP3      OH2            11.9754596015        0.7830542534      -13.0246946635  WZ2       2314            0.0000000000
      9752      3251  TIP3      H1             11.7602596015        0.0173942534      -12.4920946635  WZ2       2314            0.0000000000
      9753      3251  TIP3      H2             12.6311996015        1.2555142534      -12.5118446635  WZ2       2314            0.0000000000
      9754      3252  TIP3      OH2             0.8932696015        2.1715842534      -11.3798146635  WZ2       2315            0.0000000000
      9755      3252  TIP3      H1              1.5068996015        2.8043442534      -11.0065746635  WZ2       2315            0.0000000000
      9756      3252  TIP3      H2              1.4053396015        1.6990842534      -12.0361246635  WZ2       2315            0.0000000000
      9757      3253  TIP3      OH2             2.2761096015        9.9192742534       -8.2575146635  WZ2       2316            0.0000000000
      9758      3253  TIP3      H1              2.2708696015       10.7986242534       -8.6355846635  WZ2       2316            0.0000000000
      9759      3253  TIP3      H2              1.4225196015        9.8356842534       -7.8325246635  WZ2       2316            0.0000000000
      9760      3254  TIP3      OH2            -1.6028003985        9.5900642534      -17.4755846635  WZ2       2317            0.0000000000
      9761      3254  TIP3      H1             -1.8747103985        9.8191642534      -18.3642946635  WZ2       2317            0.0000000000
      9762      3254  TIP3      H2             -1.5572303985       10.4279442534      -17.0150546635  WZ2       2317            0.0000000000
      9763      3255  TIP3      OH2            12.0221696015       11.2116542534      -10.7627346635  WZ2       2318            0.0000000000
      9764      3255  TIP3      H1             11.0805396015       11.2700442534      -10.6010446635  WZ2       2318            0.0000000000
      9765      3255  TIP3      H2             12.2987796015       12.1177042534      -10.8997646635  WZ2       2318            0.0000000000
      9766      3256  TIP3      OH2            12.3228696015       -0.5018157466       -9.3453446635  WZ2       2319            0.0000000000
      9767      3256  TIP3      H1             11.5867896015        0.1088942534       -9.3832146635  WZ2       2319            0.0000000000
      9768      3256  TIP3      H2             13.0062696015       -0.0869157466       -9.8717046635  WZ2       2319            0.0000000000
      9769      3257  TIP3      OH2             5.3260096015       -2.4150857466      -11.8795446635  WZ2       2320            0.0000000000
      9770      3257  TIP3      H1              5.2084296015       -3.3634857466      -11.9337146635  WZ2       2320            0.0000000000
      9771      3257  TIP3      H2              4.4710196015       -2.0824757466      -11.6064346635  WZ2       2320            0.0000000000
      9772      3258  TIP3      OH2            10.2742896015       12.9930042534      -14.1375746635  WZ2       2321            0.0000000000
      9773      3258  TIP3      H1             10.6995196015       12.2857942534      -14.6226146635  WZ2       2321            0.0000000000
      9774      3258  TIP3      H2             10.5912896015       13.7942742534      -14.5543546635  WZ2       2321            0.0000000000
      9775      3259  TIP3      OH2            11.4339396015       10.8938542534      -15.6289146635  WZ2       2322            0.0000000000
      9776      3259  TIP3      H1             11.1764196015       10.2038642534      -16.2403246635  WZ2       2322            0.0000000000
      9777      3259  TIP3      H2             11.5050196015       10.4509742534      -14.7833246635  WZ2       2322            0.0000000000
      9778      3260  TIP3      OH2            13.1199596015        9.4605242534       -7.1515646635  WZ2       2323            0.0000000000
      9779      3260  TIP3      H1             13.2595896015        8.8687742534       -7.8908646635  WZ2       2323            0.0000000000
      9780      3260  TIP3      H2             13.2872396015       10.3331142534       -7.5076846635  WZ2       2323            0.0000000000
      9781      3261  TIP3      OH2             7.5924996015        6.4224742534      -17.3789646635  WZ2       2324            0.0000000000
      9782      3261  TIP3      H1              6.8810496015        6.9574442534      -17.7309146635  WZ2       2324            0.0000000000
      9783      3261  TIP3      H2              8.2834596015        6.4776842534      -18.0390746635  WZ2       2324            0.0000000000
      9784      3262  TIP3      OH2             7.6464196015        4.8799042534      -20.3404646635  WZ2       2325            0.0000000000
      9785      3262  TIP3      H1              8.3474096015        4.9025942534      -19.6890646635  WZ2       2325            0.0000000000
      9786      3262  TIP3      H2              7.9487096015        4.2518742534      -20.9965346635  WZ2       2325            0.0000000000
      9787      3263  TIP3      OH2            14.9618896015        5.8003242534       -9.0855246635  WZ2       2326            0.0000000000
      9788      3263  TIP3      H1             14.3092996015        6.4948842534       -8.9964346635  WZ2       2326            0.0000000000
      9789      3263  TIP3      H2             15.4269196015        6.0104142534       -9.8953646635  WZ2       2326            0.0000000000
      9790      3264  TIP3      OH2            10.9982696015        6.6318042534      -16.4273746635  WZ2       2327            0.0000000000
      9791      3264  TIP3      H1             10.2663696015        6.8601742534      -15.8543146635  WZ2       2327            0.0000000000
      9792      3264  TIP3      H2             11.4454896015        5.9180742534      -15.9726246635  WZ2       2327            0.0000000000
      9793      3265  TIP3      OH2            10.8956196015        4.8060642534       -7.3596746635  WZ2       2328            0.0000000000
      9794      3265  TIP3      H1             10.9755296015        5.5695042534       -6.7878246635  WZ2       2328            0.0000000000
      9795      3265  TIP3      H2             10.2943896015        5.0853042534       -8.0501646635  WZ2       2328            0.0000000000
      9796      3266  TIP3      OH2             2.6436396015        7.2624242534      -14.5448746635  WZ2       2329            0.0000000000
      9797      3266  TIP3      H1              2.3131596015        6.8917642534      -15.3631746635  WZ2       2329            0.0000000000
      9798      3266  TIP3      H2              3.2320496015        6.5918242534      -14.1980446635  WZ2       2329            0.0000000000
      9799      3267  TIP3      OH2             4.0103896015       10.6904842534      -11.8636546635  WZ2       2330            0.0000000000
      9800      3267  TIP3      H1              3.9155196015       10.1117942534      -12.6201946635  WZ2       2330            0.0000000000
      9801      3267  TIP3      H2              4.7397496015       10.3190542534      -11.3673746635  WZ2       2330            0.0000000000
      9802      3268  TIP3      OH2             3.0101896015        6.0309842534      -10.9113746635  WZ2       2331            0.0000000000
      9803      3268  TIP3      H1              3.5754396015        6.1524042534      -11.6742546635  WZ2       2331            0.0000000000
      9804      3268  TIP3      H2              3.3290796015        6.6684842534      -10.2725246635  WZ2       2331            0.0000000000
      9805      3269  TIP3      OH2             9.3194096015       11.5341742534      -10.1773246635  WZ2       2332            0.0000000000
      9806      3269  TIP3      H1              9.0790696015       12.1964842534       -9.5294046635  WZ2       2332            0.0000000000
      9807      3269  TIP3      H2              9.1212296015       10.6996942534       -9.7523646635  WZ2       2332            0.0000000000
      9808      3270  TIP3      OH2             3.8902596015       10.4302542534       -6.1941846635  WZ2       2333            0.0000000000
      9809      3270  TIP3      H1              3.5790096015       11.2125742534       -5.7388646635  WZ2       2333            0.0000000000
      9810      3270  TIP3      H2              3.2402796015       10.2771642534       -6.8799846635  WZ2       2333            0.0000000000
      9811      3271  TIP3      OH2             9.8692196015        5.7940942534      -18.7422546635  WZ2       2334            0.0000000000
      9812      3271  TIP3      H1             10.4487696015        5.9441242534      -17.9953646635  WZ2       2334            0.0000000000
      9813      3271  TIP3      H2             10.2832196015        6.2648342534      -19.4656146635  WZ2       2334            0.0000000000
      9814      3272  TIP3      OH2             0.8102496015        6.6283642534       -6.9656146635  WZ2       2335            0.0000000000
      9815      3272  TIP3      H1              0.8805696015        7.2790442534       -6.2671146635  WZ2       2335            0.0000000000
      9816      3272  TIP3      H2             -0.0805303985        6.7311142534       -7.3005246635  WZ2       2335            0.0000000000
      9817      3273  TIP3      OH2             7.5957096015       12.5309442534      -15.3069446635  WZ2       2336            0.0000000000
      9818      3273  TIP3      H1              8.0694696015       12.8265742534      -14.5295246635  WZ2       2336            0.0000000000
      9819      3273  TIP3      H2              7.0326396015       13.2691042534      -15.5399846635  WZ2       2336            0.0000000000
      9820      3274  TIP3      OH2             2.1298496015       12.5017542534       -5.4308046635  WZ2       2337            0.0000000000
      9821      3274  TIP3      H1              2.1373796015       12.3657242534       -6.3782546635  WZ2       2337            0.0000000000
      9822      3274  TIP3      H2              1.2138896015       12.3845642534       -5.1788046635  WZ2       2337            0.0000000000
      9823      3275  TIP3      OH2            13.5680596015       -2.4558657466      -18.9292846635  WZ2       2338            0.0000000000
      9824      3275  TIP3      H1             12.6681296015       -2.3169657466      -18.6342246635  WZ2       2338            0.0000000000
      9825      3275  TIP3      H2             13.8198996015       -1.6244057466      -19.3311146635  WZ2       2338            0.0000000000
      9826      3276  TIP3      OH2             1.6339096015        6.3318542534      -16.9555946635  WZ2       2339            0.0000000000
      9827      3276  TIP3      H1              1.3420396015        7.1000242534      -17.4464646635  WZ2       2339            0.0000000000
      9828      3276  TIP3      H2              0.9594296015        5.6724742534      -17.1184546635  WZ2       2339            0.0000000000
      9829      3277  TIP3      OH2            14.7571996015       11.9103742534      -20.5528946635  WZ2       2340            0.0000000000
      9830      3277  TIP3      H1             14.8305496015       12.8493942534      -20.3823646635  WZ2       2340            0.0000000000
      9831      3277  TIP3      H2             15.6627096015       11.6052342534      -20.6091646635  WZ2       2340            0.0000000000
      9832      3278  TIP3      OH2            -2.2730803985        8.6947742534       -8.1406146635  WZ2       2341            0.0000000000
      9833      3278  TIP3      H1             -2.7742403985        8.6667142534       -8.9556446635  WZ2       2341            0.0000000000
      9834      3278  TIP3      H2             -2.2677103985        7.7890942534       -7.8308846635  WZ2       2341            0.0000000000
      9835      3279  TIP3      OH2            -2.5228103985       11.4751542534      -11.2565946635  WZ2       2342            0.0000000000
      9836      3279  TIP3      H1             -1.5767503985       11.3308542534      -11.2756446635  WZ2       2342            0.0000000000
      9837      3279  TIP3      H2             -2.6351803985       12.2594342534      -10.7194746635  WZ2       2342            0.0000000000
      9838      3280  TIP3      OH2            15.6750396015       12.1411242534       -5.5742246635  WZ2       2343            0.0000000000
      9839      3280  TIP3      H1             15.6257196015       11.1859342534       -5.6114646635  WZ2       2343            0.0000000000
      9840      3280  TIP3      H2             14.8482696015       12.4086542534       -5.1728446635  WZ2       2343            0.0000000000
      9841      3281  TIP3      OH2             6.6534396015       11.7150442534       -6.6980846635  WZ2       2344            0.0000000000
      9842      3281  TIP3      H1              6.7408996015       12.5415042534       -6.2231746635  WZ2       2344            0.0000000000
      9843      3281  TIP3      H2              5.7899496015       11.3854242534       -6.4491546635  WZ2       2344            0.0000000000
      9844      3282  TIP3      OH2             7.0680196015       15.4874142534      -16.8920246635  WZ2       2345            0.0000000000
      9845      3282  TIP3      H1              6.9926196015       15.3661342534      -17.8385046635  WZ2       2345            0.0000000000
      9846      3282  TIP3      H2              7.1008896015       16.4366842534      -16.7735646635  WZ2       2345            0.0000000000
      9847      3283  TIP3      OH2             0.7213996015       14.2761142534      -15.1111246635  WZ2       2346            0.0000000000
      9848      3283  TIP3      H1              0.8734396015       13.9281542534      -14.2324746635  WZ2       2346            0.0000000000
      9849      3283  TIP3      H2             -0.1295603985       13.9198442534      -15.3664046635  WZ2       2346            0.0000000000
      9850      3284  TIP3      OH2            10.1696196015       14.6414342534      -19.8897846635  WZ2       2347            0.0000000000
      9851      3284  TIP3      H1             10.5444596015       13.8970442534      -20.3605246635  WZ2       2347            0.0000000000
      9852      3284  TIP3      H2             10.1739896015       14.3714942534      -18.9714546635  WZ2       2347            0.0000000000
      9853      3285  TIP3      OH2             9.8384296015       14.5671442534      -17.1405646635  WZ2       2348            0.0000000000
      9854      3285  TIP3      H1              8.9034096015       14.6673342534      -16.9618646635  WZ2       2348            0.0000000000
      9855      3285  TIP3      H2             10.1186196015       13.8577442534      -16.5622446635  WZ2       2348            0.0000000000
      9856      3286  TIP3      OH2            12.8270196015        3.6343742534       -5.0940046635  WZ2       2349            0.0000000000
      9857      3286  TIP3      H1             12.4196996015        4.1149342534       -5.8146746635  WZ2       2349            0.0000000000
      9858      3286  TIP3      H2             12.8675896015        2.7289742534       -5.4019246635  WZ2       2349            0.0000000000
      9859      3287  TIP3      OH2            -0.0240303985       10.0183142534       -7.0973346635  WZ2       2350            0.0000000000
      9860      3287  TIP3      H1              0.1920996015        9.6568742534       -6.2377546635  WZ2       2350            0.0000000000
      9861      3287  TIP3      H2             -0.8795603985        9.6436942534       -7.3069846635  WZ2       2350            0.0000000000
      9862      3288  TIP3      OH2             2.5947696015       -1.5116357466      -11.1019146635  WZ2       2351            0.0000000000
      9863      3288  TIP3      H1              1.7331396015       -1.5988157466      -11.5096246635  WZ2       2351            0.0000000000
      9864      3288  TIP3      H2              2.5723396015       -0.6556257466      -10.6741546635  WZ2       2351            0.0000000000
      9865      3289  TIP3      OH2             7.2575496015       -1.7895957466       -7.7272146635  WZ2       2352            0.0000000000
      9866      3289  TIP3      H1              7.6778596015       -2.2048857466       -6.9741546635  WZ2       2352            0.0000000000
      9867      3289  TIP3      H2              6.3245096015       -1.9682657466       -7.6100146635  WZ2       2352            0.0000000000
      9868      3290  TIP3      OH2            10.5840396015        1.9659242534       -6.8737646635  WZ2       2353            0.0000000000
      9869      3290  TIP3      H1             10.0699896015        1.8401442534       -6.0761646635  WZ2       2353            0.0000000000
      9870      3290  TIP3      H2             10.4285096015        2.8782342534       -7.1181446635  WZ2       2353            0.0000000000
      9871      3291  TIP3      OH2            11.3465296015        6.8269242534      -21.1124646635  WZ2       2354            0.0000000000
      9872      3291  TIP3      H1             11.3886096015        6.6043142534      -22.0424646635  WZ2       2354            0.0000000000
      9873      3291  TIP3      H2             12.1957396015        7.2256342534      -20.9224746635  WZ2       2354            0.0000000000
      9874      3292  TIP3      OH2             6.9192796015        0.7027442534      -20.4421346635  WZ2       2355            0.0000000000
      9875      3292  TIP3      H1              6.6657596015        0.7219042534      -19.5193246635  WZ2       2355            0.0000000000
      9876      3292  TIP3      H2              6.6624896015       -0.1687157466      -20.7435146635  WZ2       2355            0.0000000000
      9877      3293  TIP3      OH2             2.6857796015        3.4538142534      -10.0068946635  WZ2       2356            0.0000000000
      9878      3293  TIP3      H1              2.0439896015        3.4135442534       -9.2978846635  WZ2       2356            0.0000000000
      9879      3293  TIP3      H2              2.7229796015        4.3802842534      -10.2445946635  WZ2       2356            0.0000000000
      9880      3294  TIP3      OH2             2.6826896015        3.6748242534      -15.0948946635  WZ2       2357            0.0000000000
      9881      3294  TIP3      H1              1.7899796015        3.3344342534      -15.1535146635  WZ2       2357            0.0000000000
      9882      3294  TIP3      H2              3.1333496015        3.2979142534      -15.8505746635  WZ2       2357            0.0000000000
      9883      3295  TIP3      OH2             8.2182396015        4.0908542534      -16.2778146635  WZ2       2358            0.0000000000
      9884      3295  TIP3      H1              7.8092696015        4.9057142534      -16.5693346635  WZ2       2358            0.0000000000
      9885      3295  TIP3      H2              8.9388596015        3.9508642534      -16.8921046635  WZ2       2358            0.0000000000
      9886      3296  TIP3      OH2             7.3203996015        4.2664942534       -4.7897446635  WZ2       2359            0.0000000000
      9887      3296  TIP3      H1              6.7577796015        3.5616542534       -4.4689646635  WZ2       2359            0.0000000000
      9888      3296  TIP3      H2              8.1467396015        4.1456842534       -4.3219846635  WZ2       2359            0.0000000000
      9889      3297  TIP3      OH2             9.2230096015        3.5368942534      -13.4638446635  WZ2       2360            0.0000000000
      9890      3297  TIP3      H1              9.0274596015        4.1425742534      -14.1787846635  WZ2       2360            0.0000000000
      9891      3297  TIP3      H2              9.4042696015        2.7034142534      -13.8982146635  WZ2       2360            0.0000000000
      9892      3298  TIP3      OH2             0.4358296015        3.7741642534       -8.1396946635  WZ2       2361            0.0000000000
      9893      3298  TIP3      H1              0.3977696015        4.1743242534       -7.2709846635  WZ2       2361            0.0000000000
      9894      3298  TIP3      H2             -0.0550603985        2.9574042534       -8.0494046635  WZ2       2361            0.0000000000
      9895      3299  TIP3      OH2             3.8015696015        1.1483942534      -21.3410946635  WZ2       2362            0.0000000000
      9896      3299  TIP3      H1              3.3706396015        0.7034042534      -20.6113546635  WZ2       2362            0.0000000000
      9897      3299  TIP3      H2              3.0834396015        1.5200242534      -21.8533446635  WZ2       2362            0.0000000000
      9898      3300  TIP3      OH2            -2.9560903985        0.8903442534      -14.2892246635  WZ2       2363            0.0000000000
      9899      3300  TIP3      H1             -2.3253203985        0.8615542534      -13.5698346635  WZ2       2363            0.0000000000
      9900      3300  TIP3      H2             -2.5066603985        0.4652142534      -15.0196346635  WZ2       2363            0.0000000000
      9901      3301  TIP3      OH2            -1.6818803985        1.6365442534      -18.8651846635  WZ2       2364            0.0000000000
      9902      3301  TIP3      H1             -1.2077103985        2.2275342534      -19.4500946635  WZ2       2364            0.0000000000
      9903      3301  TIP3      H2             -2.3992403985        2.1668342534      -18.5181746635  WZ2       2364            0.0000000000
      9904      3302  TIP3      OH2             8.4869296015        5.1750242534       -8.7926046635  WZ2       2365            0.0000000000
      9905      3302  TIP3      H1              8.8104096015        4.5439942534       -9.4355546635  WZ2       2365            0.0000000000
      9906      3302  TIP3      H2              8.0468596015        4.6402442534       -8.1318646635  WZ2       2365            0.0000000000
      9907      3303  TIP3      OH2             5.2642196015        1.1025742534      -14.0084846635  WZ2       2366            0.0000000000
      9908      3303  TIP3      H1              4.3533296015        1.1592542534      -13.7198846635  WZ2       2366            0.0000000000
      9909      3303  TIP3      H2              5.7695096015        1.0421242534      -13.1977646635  WZ2       2366            0.0000000000
      9910      3304  TIP3      OH2             0.0925596015        2.7312042534      -15.1817246635  WZ2       2367            0.0000000000
      9911      3304  TIP3      H1             -0.7966403985        2.8307542534      -15.5217646635  WZ2       2367            0.0000000000
      9912      3304  TIP3      H2              0.3890496015        1.8895042534      -15.5279346635  WZ2       2367            0.0000000000
      9913      3305  TIP3      OH2             3.7457396015        2.7314642534      -17.5252646635  WZ2       2368            0.0000000000
      9914      3305  TIP3      H1              4.6772896015        2.8604642534      -17.3469546635  WZ2       2368            0.0000000000
      9915      3305  TIP3      H2              3.5307696015        3.4008942534      -18.1747946635  WZ2       2368            0.0000000000
      9916      3306  TIP3      OH2             9.6694096015        0.3372042534      -10.7443046635  WZ2       2369            0.0000000000
      9917      3306  TIP3      H1              8.9925696015        0.4685142534      -10.0803346635  WZ2       2369            0.0000000000
      9918      3306  TIP3      H2              9.1838996015        0.1821542534      -11.5545346635  WZ2       2369            0.0000000000
      9919      3307  TIP3      OH2             2.4197596015        3.9256842534      -19.9586546635  WZ2       2370            0.0000000000
      9920      3307  TIP3      H1              1.8772696015        3.5460642534      -20.6498946635  WZ2       2370            0.0000000000
      9921      3307  TIP3      H2              3.2532496015        4.1201542534      -20.3872446635  WZ2       2370            0.0000000000
      9922      3308  TIP3      OH2            12.9569196015       16.0087442534       -4.4675446635  WZ2       2371            0.0000000000
      9923      3308  TIP3      H1             13.1567896015       16.4329342534       -5.3020146635  WZ2       2371            0.0000000000
      9924      3308  TIP3      H2             13.6122896015       16.3525642534       -3.8605046635  WZ2       2371            0.0000000000
      9925      3309  TIP3      OH2             0.5548996015        8.4828742534       -4.8594946635  WZ2       2372            0.0000000000
      9926      3309  TIP3      H1              1.2871396015        8.7374642534       -4.2980446635  WZ2       2372            0.0000000000
      9927      3309  TIP3      H2             -0.2252303985        8.6874142534       -4.3439546635  WZ2       2372            0.0000000000
      9928      3310  TIP3      OH2             6.5841896015        3.8898742534      -12.1215246635  WZ2       2373            0.0000000000
      9929      3310  TIP3      H1              7.1485296015        3.3435342534      -12.6685646635  WZ2       2373            0.0000000000
      9930      3310  TIP3      H2              6.4365296015        3.3680642534      -11.3327646635  WZ2       2373            0.0000000000
      9931      3311  TIP3      OH2             1.5861596015        0.0264842534      -15.7030446635  WZ2       2374            0.0000000000
      9932      3311  TIP3      H1              1.2691096015       -0.8759857466      -15.7385046635  WZ2       2374            0.0000000000
      9933      3311  TIP3      H2              2.3675696015        0.0282242534      -16.2558846635  WZ2       2374            0.0000000000
      9934      3312  TIP3      OH2             5.2107796015        2.2784842534       -9.7074846635  WZ2       2375            0.0000000000
      9935      3312  TIP3      H1              4.3753096015        2.7324342534       -9.5972446635  WZ2       2375            0.0000000000
      9936      3312  TIP3      H2              5.7348396015        2.5543342534       -8.9554946635  WZ2       2375            0.0000000000
      9937      3313  TIP3      OH2             5.7550396015        8.4912542534      -18.0228446635  WZ2       2376            0.0000000000
      9938      3313  TIP3      H1              5.0101396015        7.9837842534      -18.3450546635  WZ2       2376            0.0000000000
      9939      3313  TIP3      H2              5.6207596015        8.5400542534      -17.0763646635  WZ2       2376            0.0000000000
      9940      3314  TIP3      OH2            12.9049296015        7.6240742534       -9.2360846635  WZ2       2377            0.0000000000
      9941      3314  TIP3      H1             13.5468096015        8.0807042534       -9.7798646635  WZ2       2377            0.0000000000
      9942      3314  TIP3      H2             12.0746196015        7.7373142534       -9.6986746635  WZ2       2377            0.0000000000
      9943      3315  TIP3      OH2             9.6527196015        1.3052442534      -19.8235846635  WZ2       2378            0.0000000000
      9944      3315  TIP3      H1              8.7141396015        1.4168042534      -19.9747046635  WZ2       2378            0.0000000000
      9945      3315  TIP3      H2              9.9499296015        2.1619342534      -19.5170146635  WZ2       2378            0.0000000000
      9946      3316  TIP3      OH2             7.2742496015        8.6755842534       -6.7859346635  WZ2       2379            0.0000000000
      9947      3316  TIP3      H1              6.9288596015        8.2938242534       -5.9789746635  WZ2       2379            0.0000000000
      9948      3316  TIP3      H2              7.0742596015        9.6089442534       -6.7146446635  WZ2       2379            0.0000000000
      9949      3317  TIP3      OH2            10.3710696015        3.1725142534      -18.1628446635  WZ2       2380            0.0000000000
      9950      3317  TIP3      H1             11.2629696015        3.0350142534      -17.8437246635  WZ2       2380            0.0000000000
      9951      3317  TIP3      H2             10.4274296015        3.9631242534      -18.6994946635  WZ2       2380            0.0000000000
      9952      3318  TIP3      OH2             0.8798696015        7.7862542534      -12.2530546635  WZ2       2381            0.0000000000
      9953      3318  TIP3      H1              1.6245896015        7.7838242534      -12.8544046635  WZ2       2381            0.0000000000
      9954      3318  TIP3      H2              0.9575296015        6.9626342534      -11.7715446635  WZ2       2381            0.0000000000
      9955      3319  TIP3      OH2             7.8804496015        9.9496842534      -18.9973846635  WZ2       2382            0.0000000000
      9956      3319  TIP3      H1              7.5852896015       10.7764742534      -18.6159046635  WZ2       2382            0.0000000000
      9957      3319  TIP3      H2              7.1774496015        9.3303742534      -18.8012446635  WZ2       2382            0.0000000000
      9958      3320  TIP3      OH2            -2.1121603985        6.2469442534       -6.9382046635  WZ2       2383            0.0000000000
      9959      3320  TIP3      H1             -1.8893003985        5.8289042534       -6.1064546635  WZ2       2383            0.0000000000
      9960      3320  TIP3      H2             -2.7141503985        5.6344442534       -7.3609246635  WZ2       2383            0.0000000000
      9961      3321  TIP3      OH2             4.9043296015        5.7639342534       -4.7252346635  WZ2       2384            0.0000000000
      9962      3321  TIP3      H1              4.6084096015        5.5982342534       -5.6203246635  WZ2       2384            0.0000000000
      9963      3321  TIP3      H2              5.8358496015        5.5439642534       -4.7358446635  WZ2       2384            0.0000000000
      9964      3322  TIP3      OH2             9.5246096015       11.1371342534       -6.8354346635  WZ2       2385            0.0000000000
      9965      3322  TIP3      H1              8.6240396015       11.3203942534       -7.1030446635  WZ2       2385            0.0000000000
      9966      3322  TIP3      H2              9.5587196015       11.3960642534       -5.9145546635  WZ2       2385            0.0000000000
      9967      3323  TIP3      OH2            15.2559396015        3.3819242534      -18.4681746635  WZ2       2386            0.0000000000
      9968      3323  TIP3      H1             14.7015696015        2.9857242534      -19.1404246635  WZ2       2386            0.0000000000
      9969      3323  TIP3      H2             15.3562996015        4.2924442534      -18.7458446635  WZ2       2386            0.0000000000
      9970      3324  TIP3      OH2            15.2191396015        9.1820942534       -5.6310246635  WZ2       2387            0.0000000000
      9971      3324  TIP3      H1             14.3679896015        9.4204742534       -5.9983846635  WZ2       2387            0.0000000000
      9972      3324  TIP3      H2             15.8094796015        9.1654142534       -6.3843146635  WZ2       2387            0.0000000000
      9973      3325  TIP3      OH2            13.5511096015       12.1679642534      -18.0029646635  WZ2       2388            0.0000000000
      9974      3325  TIP3      H1             13.1782196015       11.3423442534      -17.6939046635  WZ2       2388            0.0000000000
      9975      3325  TIP3      H2             13.8284596015       11.9849042534      -18.9006246635  WZ2       2388            0.0000000000
      9976      3326  TIP3      OH2            10.7114996015        6.9759142534      -10.9817746635  WZ2       2389            0.0000000000
      9977      3326  TIP3      H1              9.7831896015        6.7441042534      -11.0088446635  WZ2       2389            0.0000000000
      9978      3326  TIP3      H2             11.1626096015        6.1988942534      -11.3118946635  WZ2       2389            0.0000000000
      9979      3327  TIP3      OH2             3.2548096015       11.3040742534      -14.8489046635  WZ2       2390            0.0000000000
      9980      3327  TIP3      H1              3.7820296015       12.0775142534      -15.0490246635  WZ2       2390            0.0000000000
      9981      3327  TIP3      H2              2.3746596015       11.5289942534      -15.1505046635  WZ2       2390            0.0000000000
      9982      3328  TIP3      OH2            -0.9904203985        6.1664842534      -20.2616646635  WZ2       2391            0.0000000000
      9983      3328  TIP3      H1             -0.3744303985        6.7932042534      -19.8821846635  WZ2       2391            0.0000000000
      9984      3328  TIP3      H2             -1.8521603985        6.4824642534      -19.9900146635  WZ2       2391            0.0000000000
      9985      3329  TIP3      OH2             4.6820396015        8.9670642534      -15.2724746635  WZ2       2392            0.0000000000
      9986      3329  TIP3      H1              4.4410396015        9.8925042534      -15.2309446635  WZ2       2392            0.0000000000
      9987      3329  TIP3      H2              3.9413996015        8.5081942534      -14.8760846635  WZ2       2392            0.0000000000
      9988      3330  TIP3      OH2             5.1966996015       13.1164242534       -8.9573646635  WZ2       2393            0.0000000000
      9989      3330  TIP3      H1              5.5591696015       13.9709842534       -9.1909246635  WZ2       2393            0.0000000000
      9990      3330  TIP3      H2              5.7282196015       12.8245842534       -8.2167346635  WZ2       2393            0.0000000000
      9991      3331  TIP3      OH2             3.3651196015       13.9888242534      -15.7272546635  WZ2       2394            0.0000000000
      9992      3331  TIP3      H1              2.4151696015       14.0945642534      -15.6759246635  WZ2       2394            0.0000000000
      9993      3331  TIP3      H2              3.7169296015       14.8095642534      -15.3825046635  WZ2       2394            0.0000000000
      9994      3332  TIP3      OH2             8.7407796015        9.2154942534       -9.2568046635  WZ2       2395            0.0000000000
      9995      3332  TIP3      H1              8.3149096015        8.9876642534       -8.4304046635  WZ2       2395            0.0000000000
      9996      3332  TIP3      H2              9.3213596015        8.4766742534       -9.4392746635  WZ2       2395            0.0000000000
      9997      3333  TIP3      OH2            10.9436696015       10.1445442534      -20.1829046635  WZ2       2396            0.0000000000
      9998      3333  TIP3      H1             11.2969796015        9.7645242534      -19.3785546635  WZ2       2396            0.0000000000
      9999      3333  TIP3      H2              9.9950196015       10.0510242534      -20.0959746635  WZ2       2396            0.0000000000
     10000      3334  TIP3      OH2            11.3991996015       13.7674442534       -6.7873246635  WZ2       2397            0.0000000000
     10001      3334  TIP3      H1             10.7975196015       13.2117342534       -7.2826946635  WZ2       2397            0.0000000000
     10002      3334  TIP3      H2             11.6805696015       14.4344242534       -7.4135846635  WZ2       2397            0.0000000000
     10003      3335  TIP3      OH2            15.4471096015       14.6237942534      -19.9818846635  WZ2       2398            0.0000000000
     10004      3335  TIP3      H1             16.1908996015       15.2098442534      -20.1217246635  WZ2       2398            0.0000000000
     10005      3335  TIP3      H2             14.7529196015       15.1923742534      -19.6486446635  WZ2       2398            0.0000000000
     10006      3336  TIP3      OH2            -0.4782103985        1.0002142534       -7.3800646635  WZ2       2399            0.0000000000
     10007      3336  TIP3      H1             -1.3709803985        1.3387542534       -7.4476646635  WZ2       2399            0.0000000000
     10008      3336  TIP3      H2             -0.5769303985        0.1448242534       -6.9619846635  WZ2       2399            0.0000000000
     10009      3337  TIP3      OH2            11.8095996015        8.8167442534      -17.9561146635  WZ2       2400            0.0000000000
     10010      3337  TIP3      H1             11.5323596015        8.0886742534      -17.4000046635  WZ2       2400            0.0000000000
     10011      3337  TIP3      H2             12.7368996015        8.9359442534      -17.7508546635  WZ2       2400            0.0000000000
     10012      3338  TIP3      OH2            -0.8270103985       12.8046542534       -8.9451246635  WZ2       2401            0.0000000000
     10013      3338  TIP3      H1             -0.6099803985       11.8728942534       -8.9761546635  WZ2       2401            0.0000000000
     10014      3338  TIP3      H2             -0.5806603985       13.0791542534       -8.0618446635  WZ2       2401            0.0000000000
     10015      3339  TIP3      OH2             5.0344496015       11.2561542534      -21.7359046635  WZ2       2402            0.0000000000
     10016      3339  TIP3      H1              5.2734296015       10.5079642534      -22.2830146635  WZ2       2402            0.0000000000
     10017      3339  TIP3      H2              4.7655796015       10.8683242534      -20.9031246635  WZ2       2402            0.0000000000
     10018      3340  TIP3      OH2             3.9715096015       10.8265342534      -19.2796446635  WZ2       2403            0.0000000000
     10019      3340  TIP3      H1              4.1183096015       10.3065142534      -18.4895546635  WZ2       2403            0.0000000000
     10020      3340  TIP3      H2              3.9686796015       11.7332942534      -18.9730546635  WZ2       2403            0.0000000000
     10021      3341  TIP3      OH2             0.4246196015        8.0788642534      -18.7691046635  WZ2       2404            0.0000000000
     10022      3341  TIP3      H1             -0.2614503985        8.4311142534      -18.2021346635  WZ2       2404            0.0000000000
     10023      3341  TIP3      H2              0.9474096015        8.8418242534      -19.0156746635  WZ2       2404            0.0000000000
     10024      3342  TIP3      OH2             8.2561296015        0.7412442534       -8.4902046635  WZ2       2405            0.0000000000
     10025      3342  TIP3      H1              8.9549196015        0.8151142534       -7.8402346635  WZ2       2405            0.0000000000
     10026      3342  TIP3      H2              7.8752696015       -0.1232557466       -8.3359146635  WZ2       2405            0.0000000000
     10027      3343  TIP3      OH2             9.0406196015        0.3934142534      -17.3929746635  WZ2       2406            0.0000000000
     10028      3343  TIP3      H1              9.2604496015        0.8649542534      -18.1964346635  WZ2       2406            0.0000000000
     10029      3343  TIP3      H2              9.5990196015        0.7876742534      -16.7229146635  WZ2       2406            0.0000000000
     10030      3344  TIP3      OH2             6.7092296015       12.5238942534      -18.5302246635  WZ2       2407            0.0000000000
     10031      3344  TIP3      H1              5.8928396015       13.0208642534      -18.4777946635  WZ2       2407            0.0000000000
     10032      3344  TIP3      H2              7.2388596015       12.9992442534      -19.1703446635  WZ2       2407            0.0000000000
     10033      3345  TIP3      OH2             6.2406096015        2.1212942534      -16.5581346635  WZ2       2408            0.0000000000
     10034      3345  TIP3      H1              7.0528696015        2.6256142534      -16.5119646635  WZ2       2408            0.0000000000
     10035      3345  TIP3      H2              5.9959096015        1.9762642534      -15.6441746635  WZ2       2408            0.0000000000
     10036      3346  TIP3      OH2             6.7762496015        3.1075642534       -7.3734746635  WZ2       2409            0.0000000000
     10037      3346  TIP3      H1              6.8952796015        3.6811042534       -6.6164346635  WZ2       2409            0.0000000000
     10038      3346  TIP3      H2              7.4317096015        2.4195042534       -7.2586946635  WZ2       2409            0.0000000000
     10039      3347  TIP3      OH2             7.1242796015       -0.7974057466      -15.6200246635  WZ2       2410            0.0000000000
     10040      3347  TIP3      H1              6.7776296015       -0.1803457466      -14.9755946635  WZ2       2410            0.0000000000
     10041      3347  TIP3      H2              7.7829696015       -0.2968357466      -16.1014746635  WZ2       2410            0.0000000000
     10042      3348  TIP3      OH2             4.0475396015       13.5676142534      -18.5485346635  WZ2       2411            0.0000000000
     10043      3348  TIP3      H1              4.2084096015       14.3673642534      -19.0492746635  WZ2       2411            0.0000000000
     10044      3348  TIP3      H2              3.8503196015       13.8742142534      -17.6634746635  WZ2       2411            0.0000000000
     10045      3349  TIP3      OH2             2.7819796015        0.2655342534      -18.9327746635  WZ2       2412            0.0000000000
     10046      3349  TIP3      H1              2.6984596015        1.1538442534      -18.5861346635  WZ2       2412            0.0000000000
     10047      3349  TIP3      H2              3.6720096015        0.0002042534      -18.7010946635  WZ2       2412            0.0000000000
     10048      3350  TIP3      OH2            12.9808296015        1.0145942534       -6.5385046635  WZ2       2413            0.0000000000
     10049      3350  TIP3      H1             12.0644096015        1.2767642534       -6.6261346635  WZ2       2413            0.0000000000
     10050      3350  TIP3      H2             13.3163296015        1.0114942534       -7.4349746635  WZ2       2413            0.0000000000
     10051      3351  TIP3      OH2            11.5829296015        4.7646942534      -12.4427746635  WZ2       2414            0.0000000000
     10052      3351  TIP3      H1             10.7853696015        4.3497142534      -12.7712746635  WZ2       2414            0.0000000000
     10053      3351  TIP3      H2             12.0280396015        4.0740642534      -11.9517246635  WZ2       2414            0.0000000000
     10054      3352  TIP3      OH2             1.0405096015       10.6927542534      -19.8723246635  WZ2       2415            0.0000000000
     10055      3352  TIP3      H1              1.6326596015       11.3922342534      -19.5960846635  WZ2       2415            0.0000000000
     10056      3352  TIP3      H2              1.4998096015       10.2597042534      -20.5918646635  WZ2       2415            0.0000000000
     10057      3353  TIP3      OH2            -0.6435703985        3.3570542534      -20.7563846635  WZ2       2416            0.0000000000
     10058      3353  TIP3      H1             -0.6883103985        4.2963642534      -20.5776846635  WZ2       2416            0.0000000000
     10059      3353  TIP3      H2             -1.5312503985        3.1215442534      -21.0261746635  WZ2       2416            0.0000000000
     10060      3354  TIP3      OH2            12.6693896015       14.0209442534      -10.8204246635  WZ2       2417            0.0000000000
     10061      3354  TIP3      H1             12.5138196015       14.6993842534      -11.4774946635  WZ2       2417            0.0000000000
     10062      3354  TIP3      H2             13.6020296015       14.0928742534      -10.6173646635  WZ2       2417            0.0000000000
     10063      3355  TIP3      OH2             0.1646296015       -1.8612857466      -12.0832846635  WZ2       2418            0.0000000000
     10064      3355  TIP3      H1             -0.0643903985       -1.8020357466      -13.0107846635  WZ2       2418            0.0000000000
     10065      3355  TIP3      H2             -0.2780303985       -2.6527357466      -11.7768746635  WZ2       2418            0.0000000000
     10066      3356  TIP3      OH2            -0.9050403985       12.0794242534      -15.9227046635  WZ2       2419            0.0000000000
     10067      3356  TIP3      H1             -1.7371803985       12.5516942534      -15.8955646635  WZ2       2419            0.0000000000
     10068      3356  TIP3      H2             -0.3592103985       12.5891842534      -16.5213946635  WZ2       2419            0.0000000000
     10069      3357  TIP3      OH2            -1.6166703985       14.6917942534       -4.5929046635  WZ2       2420            0.0000000000
     10070      3357  TIP3      H1             -1.0764503985       14.4751942534       -3.8329846635  WZ2       2420            0.0000000000
     10071      3357  TIP3      H2             -2.0978703985       13.8863942534       -4.7826546635  WZ2       2420            0.0000000000
     10072      3358  TIP3      OH2             2.9806696015       13.6112342534       -2.9724846635  WZ2       2421            0.0000000000
     10073      3358  TIP3      H1              3.7483896015       13.1523142534       -2.6315646635  WZ2       2421            0.0000000000
     10074      3358  TIP3      H2              2.9592896015       13.3852142534       -3.9023646635  WZ2       2421            0.0000000000
     10075      3359  TIP3      OH2             7.0726296015       13.1192942534      -21.5973046635  WZ2       2422            0.0000000000
     10076      3359  TIP3      H1              6.4287296015       12.4881542534      -21.2759346635  WZ2       2422            0.0000000000
     10077      3359  TIP3      H2              7.8344596015       12.5880942534      -21.8289546635  WZ2       2422            0.0000000000
     10078      3360  TIP3      OH2             9.5575396015       11.9913442534       -4.2433346635  WZ2       2423            0.0000000000
     10079      3360  TIP3      H1              9.2064896015       11.1346442534       -4.0002946635  WZ2       2423            0.0000000000
     10080      3360  TIP3      H2             10.2838596015       12.1340142534       -3.6364346635  WZ2       2423            0.0000000000
     10081      3361  TIP3      OH2            11.6769196015       12.9362842534      -21.3635046635  WZ2       2424            0.0000000000
     10082      3361  TIP3      H1             11.9599596015       12.1418042534      -20.9108146635  WZ2       2424            0.0000000000
     10083      3361  TIP3      H2             12.4167096015       13.1693842534      -21.9243946635  WZ2       2424            0.0000000000
     10084      3362  TIP3      OH2            -1.7097203985        8.5022042534       -3.6384746635  WZ2       2425            0.0000000000
     10085      3362  TIP3      H1             -1.5656703985        7.6002742534       -3.9248046635  WZ2       2425            0.0000000000
     10086      3362  TIP3      H2             -2.4819803985        8.7884142534       -4.1262446635  WZ2       2425            0.0000000000
     10087      3363  TIP3      OH2             2.6316496015        8.8457742534      -21.5060146635  WZ2       2426            0.0000000000
     10088      3363  TIP3      H1              2.6960596015        8.0517342534      -20.9753746635  WZ2       2426            0.0000000000
     10089      3363  TIP3      H2              3.2845696015        8.7270542534      -22.1958146635  WZ2       2426            0.0000000000
     10090      3364  TIP3      OH2             4.9458896015        8.4720142534       -4.2058346635  WZ2       2427            0.0000000000
     10091      3364  TIP3      H1              4.6172696015        8.7428242534       -5.0630946635  WZ2       2427            0.0000000000
     10092      3364  TIP3      H2              5.0977096015        7.5309942534       -4.2933346635  WZ2       2427            0.0000000000
     10093      3365  TIP3      OH2             7.9839896015        9.8929442534      -21.7702146635  WZ2       2428            0.0000000000
     10094      3365  TIP3      H1              7.7153996015       10.0731542534      -20.8693246635  WZ2       2428            0.0000000000
     10095      3365  TIP3      H2              7.7775496015        8.9675642534      -21.9016346635  WZ2       2428            0.0000000000
     10096      3366  TIP3      OH2            10.6804096015        8.3877442534       -6.8226046635  WZ2       2429            0.0000000000
     10097      3366  TIP3      H1             11.4258896015        8.9761142534       -6.9422046635  WZ2       2429            0.0000000000
     10098      3366  TIP3      H2              9.9230896015        8.9697142534       -6.7592946635  WZ2       2429            0.0000000000
     10099      3367  TIP3      OH2            -0.8770703985        5.7025342534       -4.2185446635  WZ2       2430            0.0000000000
     10100      3367  TIP3      H1             -0.4689503985        4.8451942534       -4.3394846635  WZ2       2430            0.0000000000
     10101      3367  TIP3      H2             -1.1373103985        5.7166642534       -3.2975146635  WZ2       2430            0.0000000000
     10102      3368  TIP3      OH2             3.7810296015        6.8183942534      -19.2002146635  WZ2       2431            0.0000000000
     10103      3368  TIP3      H1              3.3212296015        6.3342242534      -18.5143646635  WZ2       2431            0.0000000000
     10104      3368  TIP3      H2              4.0358996015        6.1499342534      -19.8361646635  WZ2       2431            0.0000000000
     10105      3369  TIP3      OH2             3.0699596015        4.7111042534       -6.8442546635  WZ2       2432            0.0000000000
     10106      3369  TIP3      H1              2.4515696015        5.3857642534       -6.5637846635  WZ2       2432            0.0000000000
     10107      3369  TIP3      H2              3.4140796015        5.0324942534       -7.6776346635  WZ2       2432            0.0000000000
     10108      3370  TIP3      OH2             4.8520696015        5.0615742534      -20.9378946635  WZ2       2433            0.0000000000
     10109      3370  TIP3      H1              4.6715696015        4.9066942534      -21.8650646635  WZ2       2433            0.0000000000
     10110      3370  TIP3      H2              5.8021196015        5.1694442534      -20.8931046635  WZ2       2433            0.0000000000
     10111      3371  TIP3      OH2             8.0897796015        7.1826342534       -3.5667746635  WZ2       2434            0.0000000000
     10112      3371  TIP3      H1              9.0428996015        7.2665442534       -3.5941746635  WZ2       2434            0.0000000000
     10113      3371  TIP3      H2              7.9292396015        6.4708142534       -2.9472846635  WZ2       2434            0.0000000000
     10114      3372  TIP3      OH2            14.2418996015        7.4159942534      -21.4920846635  WZ2       2435            0.0000000000
     10115      3372  TIP3      H1             13.9683796015        6.9915442534      -22.3052546635  WZ2       2435            0.0000000000
     10116      3372  TIP3      H2             14.2813096015        8.3474442534      -21.7090446635  WZ2       2435            0.0000000000
     10117      3373  TIP3      OH2             3.4093296015        2.0661842534       -5.7619446635  WZ2       2436            0.0000000000
     10118      3373  TIP3      H1              3.5594196015        1.3373142534       -6.3639746635  WZ2       2436            0.0000000000
     10119      3373  TIP3      H2              3.4115696015        2.8433542534       -6.3207246635  WZ2       2436            0.0000000000
     10120      3374  TIP3      OH2             3.8218996015        0.4357642534       -8.2692046635  WZ2       2437            0.0000000000
     10121      3374  TIP3      H1              4.3576496015        0.8874342534       -8.9212746635  WZ2       2437            0.0000000000
     10122      3374  TIP3      H2              2.9698596015        0.3277442534       -8.6917946635  WZ2       2437            0.0000000000
     10123      3375  TIP3      OH2             5.4037396015        5.8753842534       -8.0296846635  WZ2       2438            0.0000000000
     10124      3375  TIP3      H1              6.1542196015        5.7191342534       -8.6029046635  WZ2       2438            0.0000000000
     10125      3375  TIP3      H2              5.0645696015        6.7270442534       -8.3051346635  WZ2       2438            0.0000000000
     10126      3376  TIP3      OH2             9.8193596015        3.6905642534       -3.0011546635  WZ2       2439            0.0000000000
     10127      3376  TIP3      H1             10.0114896015        2.7595042534       -3.1127046635  WZ2       2439            0.0000000000
     10128      3376  TIP3      H2             10.6769896015        4.1155142534       -3.0116146635  WZ2       2439            0.0000000000
     10129      3377  TIP3      OH2            11.1360796015        6.4790842534       -4.9238846635  WZ2       2440            0.0000000000
     10130      3377  TIP3      H1             10.8545796015        7.1885442534       -5.5015046635  WZ2       2440            0.0000000000
     10131      3377  TIP3      H2             12.0785096015        6.4063842534       -5.0747646635  WZ2       2440            0.0000000000
     10132      3378  TIP3      OH2             1.8879596015        3.2645342534       -3.8503846635  WZ2       2441            0.0000000000
     10133      3378  TIP3      H1              1.1208596015        2.7320142534       -4.0606246635  WZ2       2441            0.0000000000
     10134      3378  TIP3      H2              2.5668596015        2.9545742534       -4.4497546635  WZ2       2441            0.0000000000
     10135      3379  TIP3      OH2             4.6274496015       -2.1076657466       -7.8378446635  WZ2       2442            0.0000000000
     10136      3379  TIP3      H1              4.5294096015       -1.1613457466       -7.9432246635  WZ2       2442            0.0000000000
     10137      3379  TIP3      H2              3.8850696015       -2.4802857466       -8.3134946635  WZ2       2442            0.0000000000
     10138      3380  TIP3      OH2             5.8914996015        2.2138742534       -4.2740046635  WZ2       2443            0.0000000000
     10139      3380  TIP3      H1              5.6560396015        1.9945442534       -3.3725146635  WZ2       2443            0.0000000000
     10140      3380  TIP3      H2              5.1081896015        2.0069942534       -4.7837546635  WZ2       2443            0.0000000000
     10141      3381  TIP3      OH2             8.6071596015        1.3412242534       -5.1986546635  WZ2       2444            0.0000000000
     10142      3381  TIP3      H1              7.6596996015        1.3731942534       -5.0663246635  WZ2       2444            0.0000000000
     10143      3381  TIP3      H2              8.9198296015        0.7159342534       -4.5448346635  WZ2       2444            0.0000000000
     10144      3382  TIP3      OH2            10.2413096015       -0.0246657466       -3.1934646635  WZ2       2445            0.0000000000
     10145      3382  TIP3      H1             10.1444896015       -0.9769357466       -3.1992746635  WZ2       2445            0.0000000000
     10146      3382  TIP3      H2              9.9196196015        0.2440142534       -2.3329146635  WZ2       2445            0.0000000000
     10147      3383  TIP3      OH2             0.0682396015        1.1849142534       -4.1459146635  WZ2       2446            0.0000000000
     10148      3383  TIP3      H1              0.2799796015        0.4785242534       -4.7561646635  WZ2       2446            0.0000000000
     10149      3383  TIP3      H2             -0.0430103985        0.7475142534       -3.3017946635  WZ2       2446            0.0000000000
     10150      3384  TIP3      OH2             4.8492596015       -2.8139257466       -5.1665646635  WZ2       2447            0.0000000000
     10151      3384  TIP3      H1              5.5610996015       -3.4537057466       -5.1806546635  WZ2       2447            0.0000000000
     10152      3384  TIP3      H2              4.7482996015       -2.5470957466       -6.0802546635  WZ2       2447            0.0000000000
     10153      3385  TIP3      OH2             5.2030096015       -1.1310857466       -3.1129346635  WZ2       2448            0.0000000000
     10154      3385  TIP3      H1              5.0712296015       -1.6067057466       -3.9330846635  WZ2       2448            0.0000000000
     10155      3385  TIP3      H2              4.6037496015       -0.3867257466       -3.1682246635  WZ2       2448            0.0000000000
     10156      3386  TIP3      OH2             4.7492396015       15.7519442534      -19.9365346635  WZ2       2449            0.0000000000
     10157      3386  TIP3      H1              5.6823096015       15.9098142534      -19.7926946635  WZ2       2449            0.0000000000
     10158      3386  TIP3      H2              4.4851196015       16.4272442534      -20.5613846635  WZ2       2449            0.0000000000
     10159      3387  TIP3      OH2            -1.6822703985       10.3883242534      -20.4537246635  WZ2       2450            0.0000000000
     10160      3387  TIP3      H1             -0.7683503985       10.4672142534      -20.1803346635  WZ2       2450            0.0000000000
     10161      3387  TIP3      H2             -1.6749603985        9.7012842534      -21.1201646635  WZ2       2450            0.0000000000
     10162      3388  TIP3      OH2            -3.0332103985       15.7811742534      -15.3763346635  WZ2       2451            0.0000000000
     10163      3388  TIP3      H1             -3.6805003985       15.3193442534      -15.9092146635  WZ2       2451            0.0000000000
     10164      3388  TIP3      H2             -2.6787503985       15.1095042534      -14.7937146635  WZ2       2451            0.0000000000
     10165      3389  TIP3      OH2            -2.1632903985       13.8618742534      -13.5717146635  WZ2       2452            0.0000000000
     10166      3389  TIP3      H1             -2.4976103985       12.9816042534      -13.3996946635  WZ2       2452            0.0000000000
     10167      3389  TIP3      H2             -1.9410503985       14.2073742534      -12.7071546635  WZ2       2452            0.0000000000
     10168      3390  TIP3      OH2            15.3851896015       14.6715142534      -10.5912346635  WZ2       2453            0.0000000000
     10169      3390  TIP3      H1             15.3638596015       14.8563542534       -9.6522946635  WZ2       2453            0.0000000000
     10170      3390  TIP3      H2             16.0758096015       15.2399142534      -10.9320946635  WZ2       2453            0.0000000000
     10171      3391  TIP3      OH2            14.9484796015       14.2386242534       -7.6693246635  WZ2       2454            0.0000000000
     10172      3391  TIP3      H1             14.4613496015       13.5030342534       -8.0405846635  WZ2       2454            0.0000000000
     10173      3391  TIP3      H2             15.4977496015       13.8450142534       -6.9913846635  WZ2       2454            0.0000000000
     10174      3392  TIP3      OH2            13.3992096015       10.0284342534       -3.0312946635  WZ2       2455            0.0000000000
     10175      3392  TIP3      H1             12.5333196015        9.9234042534       -2.6370646635  WZ2       2455            0.0000000000
     10176      3392  TIP3      H2             13.7757996015       10.7867642534       -2.5848246635  WZ2       2455            0.0000000000
     10177      3393  TIP3      OH2            14.7001796015        8.2848042534      -17.5170446635  WZ2       2456            0.0000000000
     10178      3393  TIP3      H1             15.5503196015        8.7058942534      -17.3898846635  WZ2       2456            0.0000000000
     10179      3393  TIP3      H2             14.7056896015        7.5448142534      -16.9099046635  WZ2       2456            0.0000000000
     10180      3394  TIP3      OH2            15.0947396015        6.3385442534      -15.6934746635  WZ2       2457            0.0000000000
     10181      3394  TIP3      H1             14.3681996015        5.8588042534      -15.2957146635  WZ2       2457            0.0000000000
     10182      3394  TIP3      H2             15.6760696015        6.5440142534      -14.9613146635  WZ2       2457            0.0000000000
     10183      3395  TIP3      OH2            14.8538596015        9.1232942534      -10.7457146635  WZ2       2458            0.0000000000
     10184      3395  TIP3      H1             15.6872796015        8.7452942534      -11.0263546635  WZ2       2458            0.0000000000
     10185      3395  TIP3      H2             14.9658896015       10.0664142534      -10.8648046635  WZ2       2458            0.0000000000
     10186      3396  TIP3      OH2            13.3400896015       12.0010442534       -8.4388746635  WZ2       2459            0.0000000000
     10187      3396  TIP3      H1             12.6926196015       12.3261942534       -7.8133546635  WZ2       2459            0.0000000000
     10188      3396  TIP3      H2             12.8224896015       11.5608142534       -9.1130446635  WZ2       2459            0.0000000000
     10189      3397  TIP3      OH2            15.3630496015        6.2393942534      -19.3023446635  WZ2       2460            0.0000000000
     10190      3397  TIP3      H1             14.8411596015        6.5958042534      -20.0212546635  WZ2       2460            0.0000000000
     10191      3397  TIP3      H2             15.3299696015        6.9141742534      -18.6242546635  WZ2       2460            0.0000000000
     10192      3398  TIP3      OH2            13.7119496015        3.4789542534      -20.7516346635  WZ2       2461            0.0000000000
     10193      3398  TIP3      H1             13.8083896015        4.1456542534      -21.4316646635  WZ2       2461            0.0000000000
     10194      3398  TIP3      H2             13.5719096015        2.6635842534      -21.2330846635  WZ2       2461            0.0000000000
     10195      3399  TIP3      OH2            12.8814196015        4.8591942534      -15.1306046635  WZ2       2462            0.0000000000
     10196      3399  TIP3      H1             12.7312996015        3.9140542534      -15.1508246635  WZ2       2462            0.0000000000
     10197      3399  TIP3      H2             12.5278696015        5.1403342534      -14.2866946635  WZ2       2462            0.0000000000
     10198      3400  TIP3      OH2            -2.0833403985        6.9374142534      -11.1202246635  WZ2       2463            0.0000000000
     10199      3400  TIP3      H1             -1.8990503985        6.8555842534      -12.0559346635  WZ2       2463            0.0000000000
     10200      3400  TIP3      H2             -1.2340503985        6.8131142534      -10.6965846635  WZ2       2463            0.0000000000
     10201      3401  TIP3      OH2            13.7377096015        6.8295242534       -5.4917746635  WZ2       2464            0.0000000000
     10202      3401  TIP3      H1             14.3204396015        6.0947542534       -5.3000546635  WZ2       2464            0.0000000000
     10203      3401  TIP3      H2             14.3016396015        7.6015542534       -5.4451946635  WZ2       2464            0.0000000000
     10204      3402  TIP3      OH2            15.2344196015        4.7321042534       -4.8072346635  WZ2       2465            0.0000000000
     10205      3402  TIP3      H1             14.3710896015        4.3533142534       -4.9727646635  WZ2       2465            0.0000000000
     10206      3402  TIP3      H2             15.8387896015        3.9935842534       -4.8816546635  WZ2       2465            0.0000000000
     10207      3403  TIP3      OH2            12.9593296015        0.8869342534      -21.6340846635  WZ2       2466            0.0000000000
     10208      3403  TIP3      H1             13.5699096015        0.5156142534      -20.9972646635  WZ2       2466            0.0000000000
     10209      3403  TIP3      H2             12.1224796015        0.4656242534      -21.4380846635  WZ2       2466            0.0000000000
     10210      3404  TIP3      OH2            12.5918996015        2.4417742534      -16.6680946635  WZ2       2467            0.0000000000
     10211      3404  TIP3      H1             12.8716096015        1.5348142534      -16.5439246635  WZ2       2467            0.0000000000
     10212      3404  TIP3      H2             13.3510696015        2.8759242534      -17.0571746635  WZ2       2467            0.0000000000
     10213      3405  TIP3      OH2            13.2037296015        3.0235142534      -11.2322046635  WZ2       2468            0.0000000000
     10214      3405  TIP3      H1             14.1365296015        3.2355042534      -11.2666046635  WZ2       2468            0.0000000000
     10215      3405  TIP3      H2             12.9684796015        3.1247242534      -10.3099046635  WZ2       2468            0.0000000000
     10216      3406  TIP3      OH2            13.2329196015        3.7600442534       -8.4562646635  WZ2       2469            0.0000000000
     10217      3406  TIP3      H1             12.3900496015        4.0280842534       -8.0902846635  WZ2       2469            0.0000000000
     10218      3406  TIP3      H2             13.6753496015        4.5822342534       -8.6671546635  WZ2       2469            0.0000000000
     10219      3407  TIP3      OH2            -2.4858603985        2.2079142534       -4.9793446635  WZ2       2470            0.0000000000
     10220      3407  TIP3      H1             -1.5663703985        2.0857442534       -4.7430346635  WZ2       2470            0.0000000000
     10221      3407  TIP3      H2             -2.9354103985        1.4578842534       -4.5899946635  WZ2       2470            0.0000000000
     10222      3408  TIP3      OH2            15.5160796015       -2.2599357466       -3.1027646635  WZ2       2471            0.0000000000
     10223      3408  TIP3      H1             15.8657796015       -2.9135857466       -3.7082946635  WZ2       2471            0.0000000000
     10224      3408  TIP3      H2             15.6630296015       -1.4225257466       -3.5425046635  WZ2       2471            0.0000000000
     10225      3409  TIP3      OH2            13.2053796015       -0.2952957466      -16.6198946635  WZ2       2472            0.0000000000
     10226      3409  TIP3      H1             13.3878796015       -0.7441457466      -15.7943946635  WZ2       2472            0.0000000000
     10227      3409  TIP3      H2             12.6056696015       -0.8798557466      -17.0834346635  WZ2       2472            0.0000000000
     10228      3410  TIP3      OH2            -1.2646103985        0.5200742534      -12.0880546635  WZ2       2473            0.0000000000
     10229      3410  TIP3      H1             -0.8194503985       -0.2716757466      -11.7860846635  WZ2       2473            0.0000000000
     10230      3410  TIP3      H2             -0.7983103985        1.2365942534      -11.6574946635  WZ2       2473            0.0000000000
     10231      3411  TIP3      OH2            -2.9605803985        3.5193742534      -11.0190346635  WZ2       2474            0.0000000000
     10232      3411  TIP3      H1             -2.4686003985        3.2984242534      -11.8098346635  WZ2       2474            0.0000000000
     10233      3411  TIP3      H2             -2.5984903985        4.3597142534      -10.7380846635  WZ2       2474            0.0000000000
     10234      3412  TIP3      OH2            15.0357996015       -0.1504757466       -4.7536346635  WZ2       2475            0.0000000000
     10235      3412  TIP3      H1             14.1183696015        0.1202342534       -4.7892846635  WZ2       2475            0.0000000000
     10236      3412  TIP3      H2             15.1587396015       -0.6856357466       -5.5376646635  WZ2       2475            0.0000000000
     10237      3413  TIP3      OH2            15.0719996015       -0.2274857466      -20.0918646635  WZ2       2476            0.0000000000
     10238      3413  TIP3      H1             15.4842596015       -0.9489157466      -20.5670646635  WZ2       2476            0.0000000000
     10239      3413  TIP3      H2             15.7536496015        0.4419742534      -20.0334346635  WZ2       2476            0.0000000000
     10240      3414  TIP3      OH2            -2.6469303985       -0.2227157466      -16.9647946635  WZ2       2477            0.0000000000
     10241      3414  TIP3      H1             -3.5720903985       -0.0140557466      -17.0942446635  WZ2       2477            0.0000000000
     10242      3414  TIP3      H2             -2.1929403985        0.2613642534      -17.6545646635  WZ2       2477            0.0000000000
     10243      3415  TIP3      OH2            12.1237896015       14.7614542534      -15.0190546635  WZ2       2478            0.0000000000
     10244      3415  TIP3      H1             12.7760796015       14.4136642534      -15.6271446635  WZ2       2478            0.0000000000
     10245      3415  TIP3      H2             12.6341696015       15.2497742534      -14.3730846635  WZ2       2478            0.0000000000
     10246      3416  TIP3      OH2            -2.6833903985       -1.4848157466       -8.6205446635  WZ2       2479            0.0000000000
     10247      3416  TIP3      H1             -3.3483403985       -1.7307857466       -7.9774546635  WZ2       2479            0.0000000000
     10248      3416  TIP3      H2             -3.1262603985       -0.8627757466       -9.1977446635  WZ2       2479            0.0000000000
     10249      3417  TIP3      OH2            -0.4914603985       11.6905942534       -4.4759646635  WZ2       2480            0.0000000000
     10250      3417  TIP3      H1             -1.3122103985       11.8652442534       -4.9364946635  WZ2       2480            0.0000000000
     10251      3417  TIP3      H2             -0.7436803985       11.6170642534       -3.5555246635  WZ2       2480            0.0000000000
     10252      3418  TIP3      OH2             2.4628296015       12.6647142534       -8.2175646635  WZ2       2481            0.0000000000
     10253      3418  TIP3      H1              2.0379396015       13.4745642534       -8.5001046635  WZ2       2481            0.0000000000
     10254      3418  TIP3      H2              3.3671096015       12.7501242534       -8.5195846635  WZ2       2481            0.0000000000
     10255      3419  TIP3      OH2             6.7739696015       14.0637142534       -5.2581946635  WZ2       2482            0.0000000000
     10256      3419  TIP3      H1              6.9587196015       13.7303242534       -4.3801646635  WZ2       2482            0.0000000000
     10257      3419  TIP3      H2              7.6204196015       14.3735742534       -5.5802746635  WZ2       2482            0.0000000000
     10258      3420  TIP3      OH2             9.1190096015       15.3496042534       -6.0140546635  WZ2       2483            0.0000000000
     10259      3420  TIP3      H1              9.7958996015       14.7168342534       -6.2541346635  WZ2       2483            0.0000000000
     10260      3420  TIP3      H2              9.4408896015       15.7506542534       -5.2067246635  WZ2       2483            0.0000000000
     10261      3421  TIP3      OH2            14.0363896015       -2.0608457466       -6.9345546635  WZ2       2484            0.0000000000
     10262      3421  TIP3      H1             13.2237396015       -1.7358157466       -7.3220846635  WZ2       2484            0.0000000000
     10263      3421  TIP3      H2             14.2692396015       -2.8209957466       -7.4676446635  WZ2       2484            0.0000000000
     10264      3422  TIP3      OH2            -0.1355003985       15.9211042534       -8.1700346635  WZ2       2485            0.0000000000
     10265      3422  TIP3      H1             -0.8558603985       16.3612042534       -8.6212646635  WZ2       2485            0.0000000000
     10266      3422  TIP3      H2             -0.5011003985       15.6705742534       -7.3216346635  WZ2       2485            0.0000000000
     10267      3423  TIP3      OH2             2.3317596015       15.5214942534       -9.1403146635  WZ2       2486            0.0000000000
     10268      3423  TIP3      H1              1.4669796015       15.5933442534       -8.7363046635  WZ2       2486            0.0000000000
     10269      3423  TIP3      H2              2.2766596015       16.0682242534       -9.9240646635  WZ2       2486            0.0000000000
     10270      3424  TIP3      OH2             7.0423196015       15.4093842534       -9.9647146635  WZ2       2487            0.0000000000
     10271      3424  TIP3      H1              6.5857196015       15.9383542534      -10.6188746635  WZ2       2487            0.0000000000
     10272      3424  TIP3      H2              7.2051196015       16.0125242534       -9.2394846635  WZ2       2487            0.0000000000
     10273      3425  TIP3      OH2             9.3699496015       14.2873442534       -9.0196846635  WZ2       2488            0.0000000000
     10274      3425  TIP3      H1              8.4653196015       14.4523642534       -9.2854746635  WZ2       2488            0.0000000000
     10275      3425  TIP3      H2              9.7988096015       15.1405642534       -9.0853446635  WZ2       2488            0.0000000000
     10276      3426  TIP3      OH2            11.9741396015       15.8572542534       -8.7249046635  WZ2       2489            0.0000000000
     10277      3426  TIP3      H1             11.7923396015       16.7731442534       -8.9354146635  WZ2       2489            0.0000000000
     10278      3426  TIP3      H2             12.1509196015       15.4469642534       -9.5714446635  WZ2       2489            0.0000000000
     10279      3427  TIP3      OH2            -0.7206903985       14.5443542534      -11.2598546635  WZ2       2490            0.0000000000
     10280      3427  TIP3      H1             -0.7390903985       14.1188642534      -10.4026246635  WZ2       2490            0.0000000000
     10281      3427  TIP3      H2              0.0840996015       14.2258542534      -11.6686346635  WZ2       2490            0.0000000000
     10282      3428  TIP3      OH2             1.4206196015       13.2542242534      -12.6048646635  WZ2       2491            0.0000000000
     10283      3428  TIP3      H1              1.2016896015       12.3379642534      -12.4352646635  WZ2       2491            0.0000000000
     10284      3428  TIP3      H2              2.2448396015       13.3942642534      -12.1387246635  WZ2       2491            0.0000000000
     10285      3429  TIP3      OH2             3.9578696015       13.7241542534      -11.7560646635  WZ2       2492            0.0000000000
     10286      3429  TIP3      H1              4.1704396015       12.8360542534      -12.0429746635  WZ2       2492            0.0000000000
     10287      3429  TIP3      H2              4.0223796015       13.6899242534      -10.8016646635  WZ2       2492            0.0000000000
     10288      3430  TIP3      OH2             7.4662396015       -0.6117857466      -12.6117346635  WZ2       2493            0.0000000000
     10289      3430  TIP3      H1              6.7919196015       -1.2412257466      -12.3561546635  WZ2       2493            0.0000000000
     10290      3430  TIP3      H2              8.0301596015       -1.0958957466      -13.2149446635  WZ2       2493            0.0000000000
     10291      3431  TIP3      OH2            12.6089596015       -2.5043857466      -12.4990246635  WZ2       2494            0.0000000000
     10292      3431  TIP3      H1             13.2127196015       -1.9568457466      -13.0009246635  WZ2       2494            0.0000000000
     10293      3431  TIP3      H2             11.7391596015       -2.1853457466      -12.7396146635  WZ2       2494            0.0000000000
     10294      3432  TIP3      OH2            14.3359996015       -1.3655157466      -14.1659346635  WZ2       2495            0.0000000000
     10295      3432  TIP3      H1             14.9477496015       -1.8799457466      -14.6925746635  WZ2       2495            0.0000000000
     10296      3432  TIP3      H2             14.7183396015       -0.4883057466      -14.1424946635  WZ2       2495            0.0000000000
     10297      3433  TIP3      OH2            -0.2070103985       -1.9777557466      -14.7897446635  WZ2       2496            0.0000000000
     10298      3433  TIP3      H1             -0.9840303985       -2.2122657466      -15.2971546635  WZ2       2496            0.0000000000
     10299      3433  TIP3      H2              0.3233496015       -2.7745457466      -14.7809446635  WZ2       2496            0.0000000000
     10300      3434  TIP3      OH2            -1.3706703985       -2.1799457466      -18.9861346635  WZ2       2497            0.0000000000
     10301      3434  TIP3      H1             -0.9316003985       -1.5688957466      -19.5777846635  WZ2       2497            0.0000000000
     10302      3434  TIP3      H2             -2.0044303985       -1.6415357466      -18.5121346635  WZ2       2497            0.0000000000
     10303      3435  TIP3      OH2             4.3722496015       -2.0510457466      -14.9764346635  WZ2       2498            0.0000000000
     10304      3435  TIP3      H1              5.2465896015       -1.6626157466      -15.0060046635  WZ2       2498            0.0000000000
     10305      3435  TIP3      H2              4.2363296015       -2.2662657466      -14.0537146635  WZ2       2498            0.0000000000
     10306      3436  TIP3      OH2             9.9290896015       -2.0210657466      -13.3272646635  WZ2       2499            0.0000000000
     10307      3436  TIP3      H1             10.0052496015       -1.9259057466      -14.2766646635  WZ2       2499            0.0000000000
     10308      3436  TIP3      H2              9.6540096015       -2.9287757466      -13.1983546635  WZ2       2499            0.0000000000
     10309      3437  TIP3      OH2            11.2823496015       -1.9952857466      -17.6347646635  WZ2       2500            0.0000000000
     10310      3437  TIP3      H1             10.5794596015       -1.3803657466      -17.8446246635  WZ2       2500            0.0000000000
     10311      3437  TIP3      H2             10.8374896015       -2.8326157466      -17.5036746635  WZ2       2500            0.0000000000
     10312      3438  TIP3      OH2            -1.4697203985       13.7682742534      -18.0886246635  WZ2       2501            0.0000000000
     10313      3438  TIP3      H1             -2.1547303985       13.7301642534      -18.7561146635  WZ2       2501            0.0000000000
     10314      3438  TIP3      H2             -1.4660003985       14.6810342534      -17.8004146635  WZ2       2501            0.0000000000
     10315      3439  TIP3      OH2             0.4902396015       -0.2637957466      -20.5437246635  WZ2       2502            0.0000000000
     10316      3439  TIP3      H1              0.9815796015       -0.8935557466      -21.0711746635  WZ2       2502            0.0000000000
     10317      3439  TIP3      H2              1.1138696015        0.0321442534      -19.8806046635  WZ2       2502            0.0000000000
     10318      3440  TIP3      OH2             5.5162496015        0.0293542534      -18.0866746635  WZ2       2503            0.0000000000
     10319      3440  TIP3      H1              5.6943796015       -0.6173257466      -17.4038146635  WZ2       2503            0.0000000000
     10320      3440  TIP3      H2              5.4628696015        0.8631242534      -17.6195646635  WZ2       2503            0.0000000000
     10321      3441  TIP3      OH2             7.3946296015       14.9777642534      -19.6910046635  WZ2       2504            0.0000000000
     10322      3441  TIP3      H1              8.2606496015       15.3445042534      -19.8691846635  WZ2       2504            0.0000000000
     10323      3441  TIP3      H2              7.1479096015       14.5385642534      -20.5049246635  WZ2       2504            0.0000000000
     10324      3442  TIP3      OH2            14.1035896015       14.5407942534      -17.0118946635  WZ2       2505            0.0000000000
     10325      3442  TIP3      H1             13.9092996015       13.7930042534      -17.5769346635  WZ2       2505            0.0000000000
     10326      3442  TIP3      H2             14.0645996015       15.2988042534      -17.5951046635  WZ2       2505            0.0000000000
     10327      3443  TIP3      OH2            -0.2492103985       -1.4635657466       -5.2721246635  WZ2       2506            0.0000000000
     10328      3443  TIP3      H1             -0.6153903985       -2.2293057466       -4.8296546635  WZ2       2506            0.0000000000
     10329      3443  TIP3      H2              0.6636396015       -1.4345457466       -4.9856146635  WZ2       2506            0.0000000000
     10330      3444  TIP3      OH2             1.7238696015       -2.1131257466       -3.7364146635  WZ2       2507            0.0000000000
     10331      3444  TIP3      H1              2.6222296015       -2.3871057466       -3.9210746635  WZ2       2507            0.0000000000
     10332      3444  TIP3      H2              1.3371796015       -2.8555257466       -3.2721546635  WZ2       2507            0.0000000000
     10333      3445  TIP3      OH2             0.3483996015       14.6883542534      -21.0634146635  WZ2       2508            0.0000000000
     10334      3445  TIP3      H1              0.0808596015       14.9746442534      -20.1901046635  WZ2       2508            0.0000000000
     10335      3445  TIP3      H2              1.1196596015       14.1422742534      -20.9111646635  WZ2       2508            0.0000000000
     10336      3446  TIP3      OH2            10.1450996015       -2.7805957466       -3.5541346635  WZ2       2509            0.0000000000
     10337      3446  TIP3      H1             10.2218196015       -3.2065257466       -2.7003646635  WZ2       2509            0.0000000000
     10338      3446  TIP3      H2             11.0387596015       -2.7671257466       -3.8967846635  WZ2       2509            0.0000000000
     10339      3447  TIP3      OH2            13.3212096015       13.2920342534       -4.8617146635  WZ2       2510            0.0000000000
     10340      3447  TIP3      H1             12.5393996015       13.1058342534       -5.3816546635  WZ2       2510            0.0000000000
     10341      3447  TIP3      H2             13.2491996015       14.2214642534       -4.6444646635  WZ2       2510            0.0000000000
     10342      3448  TIP3      OH2            27.7272496015        7.1784742534      -14.8309946635  WZ2       2511            0.0000000000
     10343      3448  TIP3      H1             27.8163596015        8.1222942534      -14.9632846635  WZ2       2511            0.0000000000
     10344      3448  TIP3      H2             27.0890096015        6.9031142534      -15.4890546635  WZ2       2511            0.0000000000
     10345      3449  TIP3      OH2            26.6603796015        6.4335442534      -11.4121746635  WZ2       2512            0.0000000000
     10346      3449  TIP3      H1             26.6221296015        5.7871742534      -10.7072146635  WZ2       2512            0.0000000000
     10347      3449  TIP3      H2             26.3380296015        5.9669842534      -12.1833046635  WZ2       2512            0.0000000000
     10348      3450  TIP3      OH2            19.0288796015        6.0477542534       -9.8191846635  WZ2       2513            0.0000000000
     10349      3450  TIP3      H1             19.0700896015        5.4220842534       -9.0959446635  WZ2       2513            0.0000000000
     10350      3450  TIP3      H2             19.7316496015        6.6716142534       -9.6371446635  WZ2       2513            0.0000000000
     10351      3451  TIP3      OH2            30.3663996015        9.3725842534      -13.1106646635  WZ2       2514            0.0000000000
     10352      3451  TIP3      H1             29.9256696015        8.6521842534      -12.6601046635  WZ2       2514            0.0000000000
     10353      3451  TIP3      H2             30.3533696015       10.0933042534      -12.4808946635  WZ2       2514            0.0000000000
     10354      3452  TIP3      OH2            19.9521896015       10.4976442534      -11.2842746635  WZ2       2515            0.0000000000
     10355      3452  TIP3      H1             19.5827096015        9.6956942534      -11.6538446635  WZ2       2515            0.0000000000
     10356      3452  TIP3      H2             20.8932996015       10.3291342534      -11.2379346635  WZ2       2515            0.0000000000
     10357      3453  TIP3      OH2            16.5622396015        4.1579042534      -15.8913946635  WZ2       2516            0.0000000000
     10358      3453  TIP3      H1             16.1145796015        5.0037742534      -15.9097446635  WZ2       2516            0.0000000000
     10359      3453  TIP3      H2             16.0013596015        3.5783242534      -16.4068846635  WZ2       2516            0.0000000000
     10360      3454  TIP3      OH2            17.2728496015        6.3198642534      -13.7655946635  WZ2       2517            0.0000000000
     10361      3454  TIP3      H1             17.4861996015        5.5500242534      -13.2382946635  WZ2       2517            0.0000000000
     10362      3454  TIP3      H2             18.0106096015        6.4095342534      -14.3688346635  WZ2       2517            0.0000000000
     10363      3455  TIP3      OH2            27.4779496015       14.4767542534      -12.8986246635  WZ2       2518            0.0000000000
     10364      3455  TIP3      H1             28.0975896015       13.8002242534      -13.1717046635  WZ2       2518            0.0000000000
     10365      3455  TIP3      H2             27.2696896015       14.2588342534      -11.9901346635  WZ2       2518            0.0000000000
     10366      3456  TIP3      OH2            25.0498196015        8.8656842534      -11.0060746635  WZ2       2519            0.0000000000
     10367      3456  TIP3      H1             25.3536096015        8.1798242534      -11.6006646635  WZ2       2519            0.0000000000
     10368      3456  TIP3      H2             25.7712196015        8.9845542534      -10.3882746635  WZ2       2519            0.0000000000
     10369      3457  TIP3      OH2            33.7127996015        0.4672142534      -10.1454546635  WZ2       2520            0.0000000000
     10370      3457  TIP3      H1             33.7620196015        1.0773342534       -9.4095446635  WZ2       2520            0.0000000000
     10371      3457  TIP3      H2             34.1383096015        0.9283042534      -10.8683446635  WZ2       2520            0.0000000000
     10372      3458  TIP3      OH2            28.1905196015        3.2599242534      -10.6785946635  WZ2       2521            0.0000000000
     10373      3458  TIP3      H1             28.3331096015        2.3136242534      -10.6584346635  WZ2       2521            0.0000000000
     10374      3458  TIP3      H2             28.0844196015        3.4669042534      -11.6071046635  WZ2       2521            0.0000000000
     10375      3459  TIP3      OH2            21.3453496015        1.3615642534      -13.4061146635  WZ2       2522            0.0000000000
     10376      3459  TIP3      H1             21.3884596015        2.2214142534      -13.8244846635  WZ2       2522            0.0000000000
     10377      3459  TIP3      H2             20.8877596015        0.8090342534      -14.0397946635  WZ2       2522            0.0000000000
     10378      3460  TIP3      OH2            29.0676196015        1.4921242534      -15.0052846635  WZ2       2523            0.0000000000
     10379      3460  TIP3      H1             29.7140496015        1.1634442534      -14.3805246635  WZ2       2523            0.0000000000
     10380      3460  TIP3      H2             29.5775596015        2.0100242534      -15.6281446635  WZ2       2523            0.0000000000
     10381      3461  TIP3      OH2            17.9654996015        3.7581442534      -12.6439746635  WZ2       2524            0.0000000000
     10382      3461  TIP3      H1             18.6191596015        3.2083142534      -12.2119646635  WZ2       2524            0.0000000000
     10383      3461  TIP3      H2             17.9894296015        3.4840442534      -13.5607746635  WZ2       2524            0.0000000000
     10384      3462  TIP3      OH2            23.1219496015        5.3082742534      -13.4288246635  WZ2       2525            0.0000000000
     10385      3462  TIP3      H1             23.7380496015        4.7818142534      -12.9194246635  WZ2       2525            0.0000000000
     10386      3462  TIP3      H2             22.5358296015        4.6681442534      -13.8324646635  WZ2       2525            0.0000000000
     10387      3463  TIP3      OH2            34.1042596015        1.9451342534       -7.9094746635  WZ2       2526            0.0000000000
     10388      3463  TIP3      H1             33.4157196015        2.6032042534       -8.0048146635  WZ2       2526            0.0000000000
     10389      3463  TIP3      H2             34.1197196015        1.7479242534       -6.9729346635  WZ2       2526            0.0000000000
     10390      3464  TIP3      OH2            20.1555396015        0.2794042534       -9.3320346635  WZ2       2527            0.0000000000
     10391      3464  TIP3      H1             19.9367096015        0.8094642534      -10.0984346635  WZ2       2527            0.0000000000
     10392      3464  TIP3      H2             19.4876296015        0.5059542534       -8.6848946635  WZ2       2527            0.0000000000
     10393      3465  TIP3      OH2            27.5245196015        9.7795142534      -15.7881246635  WZ2       2528            0.0000000000
     10394      3465  TIP3      H1             27.2290296015        9.4567442534      -16.6394346635  WZ2       2528            0.0000000000
     10395      3465  TIP3      H2             27.2002996015       10.6791842534      -15.7468646635  WZ2       2528            0.0000000000
     10396      3466  TIP3      OH2            22.7246796015        7.9549742534       -9.0446646635  WZ2       2529            0.0000000000
     10397      3466  TIP3      H1             21.9845896015        8.5531242534       -8.9411446635  WZ2       2529            0.0000000000
     10398      3466  TIP3      H2             23.4386296015        8.5089342534       -9.3603046635  WZ2       2529            0.0000000000
     10399      3467  TIP3      OH2            30.8314596015        0.7830542534      -13.0246946635  WZ2       2530            0.0000000000
     10400      3467  TIP3      H1             30.6162596015        0.0173942534      -12.4920946635  WZ2       2530            0.0000000000
     10401      3467  TIP3      H2             31.4871996015        1.2555142534      -12.5118446635  WZ2       2530            0.0000000000
     10402      3468  TIP3      OH2            19.7492696015        2.1715842534      -11.3798146635  WZ2       2531            0.0000000000
     10403      3468  TIP3      H1             20.3628996015        2.8043442534      -11.0065746635  WZ2       2531            0.0000000000
     10404      3468  TIP3      H2             20.2613396015        1.6990842534      -12.0361246635  WZ2       2531            0.0000000000
     10405      3469  TIP3      OH2            21.1321096015        9.9192742534       -8.2575146635  WZ2       2532            0.0000000000
     10406      3469  TIP3      H1             21.1268696015       10.7986242534       -8.6355846635  WZ2       2532            0.0000000000
     10407      3469  TIP3      H2             20.2785196015        9.8356842534       -7.8325246635  WZ2       2532            0.0000000000
     10408      3470  TIP3      OH2            17.2531996015        9.5900642534      -17.4755846635  WZ2       2533            0.0000000000
     10409      3470  TIP3      H1             16.9812896015        9.8191642534      -18.3642946635  WZ2       2533            0.0000000000
     10410      3470  TIP3      H2             17.2987696015       10.4279442534      -17.0150546635  WZ2       2533            0.0000000000
     10411      3471  TIP3      OH2            30.8781696015       11.2116542534      -10.7627346635  WZ2       2534            0.0000000000
     10412      3471  TIP3      H1             29.9365396015       11.2700442534      -10.6010446635  WZ2       2534            0.0000000000
     10413      3471  TIP3      H2             31.1547796015       12.1177042534      -10.8997646635  WZ2       2534            0.0000000000
     10414      3472  TIP3      OH2            31.1788696015       -0.5018157466       -9.3453446635  WZ2       2535            0.0000000000
     10415      3472  TIP3      H1             30.4427896015        0.1088942534       -9.3832146635  WZ2       2535            0.0000000000
     10416      3472  TIP3      H2             31.8622696015       -0.0869157466       -9.8717046635  WZ2       2535            0.0000000000
     10417      3473  TIP3      OH2            24.1820096015       -2.4150857466      -11.8795446635  WZ2       2536            0.0000000000
     10418      3473  TIP3      H1             24.0644296015       -3.3634857466      -11.9337146635  WZ2       2536            0.0000000000
     10419      3473  TIP3      H2             23.3270196015       -2.0824757466      -11.6064346635  WZ2       2536            0.0000000000
     10420      3474  TIP3      OH2            29.1302896015       12.9930042534      -14.1375746635  WZ2       2537            0.0000000000
     10421      3474  TIP3      H1             29.5555196015       12.2857942534      -14.6226146635  WZ2       2537            0.0000000000
     10422      3474  TIP3      H2             29.4472896015       13.7942742534      -14.5543546635  WZ2       2537            0.0000000000
     10423      3475  TIP3      OH2            30.2899396015       10.8938542534      -15.6289146635  WZ2       2538            0.0000000000
     10424      3475  TIP3      H1             30.0324196015       10.2038642534      -16.2403246635  WZ2       2538            0.0000000000
     10425      3475  TIP3      H2             30.3610196015       10.4509742534      -14.7833246635  WZ2       2538            0.0000000000
     10426      3476  TIP3      OH2            31.9759596015        9.4605242534       -7.1515646635  WZ2       2539            0.0000000000
     10427      3476  TIP3      H1             32.1155896015        8.8687742534       -7.8908646635  WZ2       2539            0.0000000000
     10428      3476  TIP3      H2             32.1432396015       10.3331142534       -7.5076846635  WZ2       2539            0.0000000000
     10429      3477  TIP3      OH2            26.4484996015        6.4224742534      -17.3789646635  WZ2       2540            0.0000000000
     10430      3477  TIP3      H1             25.7370496015        6.9574442534      -17.7309146635  WZ2       2540            0.0000000000
     10431      3477  TIP3      H2             27.1394596015        6.4776842534      -18.0390746635  WZ2       2540            0.0000000000
     10432      3478  TIP3      OH2            26.5024196015        4.8799042534      -20.3404646635  WZ2       2541            0.0000000000
     10433      3478  TIP3      H1             27.2034096015        4.9025942534      -19.6890646635  WZ2       2541            0.0000000000
     10434      3478  TIP3      H2             26.8047096015        4.2518742534      -20.9965346635  WZ2       2541            0.0000000000
     10435      3479  TIP3      OH2            33.8178896015        5.8003242534       -9.0855246635  WZ2       2542            0.0000000000
     10436      3479  TIP3      H1             33.1652996015        6.4948842534       -8.9964346635  WZ2       2542            0.0000000000
     10437      3479  TIP3      H2             34.2829196015        6.0104142534       -9.8953646635  WZ2       2542            0.0000000000
     10438      3480  TIP3      OH2            29.8542696015        6.6318042534      -16.4273746635  WZ2       2543            0.0000000000
     10439      3480  TIP3      H1             29.1223696015        6.8601742534      -15.8543146635  WZ2       2543            0.0000000000
     10440      3480  TIP3      H2             30.3014896015        5.9180742534      -15.9726246635  WZ2       2543            0.0000000000
     10441      3481  TIP3      OH2            29.7516196015        4.8060642534       -7.3596746635  WZ2       2544            0.0000000000
     10442      3481  TIP3      H1             29.8315296015        5.5695042534       -6.7878246635  WZ2       2544            0.0000000000
     10443      3481  TIP3      H2             29.1503896015        5.0853042534       -8.0501646635  WZ2       2544            0.0000000000
     10444      3482  TIP3      OH2            21.4996396015        7.2624242534      -14.5448746635  WZ2       2545            0.0000000000
     10445      3482  TIP3      H1             21.1691596015        6.8917642534      -15.3631746635  WZ2       2545            0.0000000000
     10446      3482  TIP3      H2             22.0880496015        6.5918242534      -14.1980446635  WZ2       2545            0.0000000000
     10447      3483  TIP3      OH2            22.8663896015       10.6904842534      -11.8636546635  WZ2       2546            0.0000000000
     10448      3483  TIP3      H1             22.7715196015       10.1117942534      -12.6201946635  WZ2       2546            0.0000000000
     10449      3483  TIP3      H2             23.5957496015       10.3190542534      -11.3673746635  WZ2       2546            0.0000000000
     10450      3484  TIP3      OH2            21.8661896015        6.0309842534      -10.9113746635  WZ2       2547            0.0000000000
     10451      3484  TIP3      H1             22.4314396015        6.1524042534      -11.6742546635  WZ2       2547            0.0000000000
     10452      3484  TIP3      H2             22.1850796015        6.6684842534      -10.2725246635  WZ2       2547            0.0000000000
     10453      3485  TIP3      OH2            28.1754096015       11.5341742534      -10.1773246635  WZ2       2548            0.0000000000
     10454      3485  TIP3      H1             27.9350696015       12.1964842534       -9.5294046635  WZ2       2548            0.0000000000
     10455      3485  TIP3      H2             27.9772296015       10.6996942534       -9.7523646635  WZ2       2548            0.0000000000
     10456      3486  TIP3      OH2            22.7462596015       10.4302542534       -6.1941846635  WZ2       2549            0.0000000000
     10457      3486  TIP3      H1             22.4350096015       11.2125742534       -5.7388646635  WZ2       2549            0.0000000000
     10458      3486  TIP3      H2             22.0962796015       10.2771642534       -6.8799846635  WZ2       2549            0.0000000000
     10459      3487  TIP3      OH2            28.7252196015        5.7940942534      -18.7422546635  WZ2       2550            0.0000000000
     10460      3487  TIP3      H1             29.3047696015        5.9441242534      -17.9953646635  WZ2       2550            0.0000000000
     10461      3487  TIP3      H2             29.1392196015        6.2648342534      -19.4656146635  WZ2       2550            0.0000000000
     10462      3488  TIP3      OH2            19.6662496015        6.6283642534       -6.9656146635  WZ2       2551            0.0000000000
     10463      3488  TIP3      H1             19.7365696015        7.2790442534       -6.2671146635  WZ2       2551            0.0000000000
     10464      3488  TIP3      H2             18.7754696015        6.7311142534       -7.3005246635  WZ2       2551            0.0000000000
     10465      3489  TIP3      OH2            26.4517096015       12.5309442534      -15.3069446635  WZ2       2552            0.0000000000
     10466      3489  TIP3      H1             26.9254696015       12.8265742534      -14.5295246635  WZ2       2552            0.0000000000
     10467      3489  TIP3      H2             25.8886396015       13.2691042534      -15.5399846635  WZ2       2552            0.0000000000
     10468      3490  TIP3      OH2            20.9858496015       12.5017542534       -5.4308046635  WZ2       2553            0.0000000000
     10469      3490  TIP3      H1             20.9933796015       12.3657242534       -6.3782546635  WZ2       2553            0.0000000000
     10470      3490  TIP3      H2             20.0698896015       12.3845642534       -5.1788046635  WZ2       2553            0.0000000000
     10471      3491  TIP3      OH2            32.4240596015       -2.4558657466      -18.9292846635  WZ2       2554            0.0000000000
     10472      3491  TIP3      H1             31.5241296015       -2.3169657466      -18.6342246635  WZ2       2554            0.0000000000
     10473      3491  TIP3      H2             32.6758996015       -1.6244057466      -19.3311146635  WZ2       2554            0.0000000000
     10474      3492  TIP3      OH2            20.4899096015        6.3318542534      -16.9555946635  WZ2       2555            0.0000000000
     10475      3492  TIP3      H1             20.1980396015        7.1000242534      -17.4464646635  WZ2       2555            0.0000000000
     10476      3492  TIP3      H2             19.8154296015        5.6724742534      -17.1184546635  WZ2       2555            0.0000000000
     10477      3493  TIP3      OH2            33.6131996015       11.9103742534      -20.5528946635  WZ2       2556            0.0000000000
     10478      3493  TIP3      H1             33.6865496015       12.8493942534      -20.3823646635  WZ2       2556            0.0000000000
     10479      3493  TIP3      H2             34.5187096015       11.6052342534      -20.6091646635  WZ2       2556            0.0000000000
     10480      3494  TIP3      OH2            16.5829196015        8.6947742534       -8.1406146635  WZ2       2557            0.0000000000
     10481      3494  TIP3      H1             16.0817596015        8.6667142534       -8.9556446635  WZ2       2557            0.0000000000
     10482      3494  TIP3      H2             16.5882896015        7.7890942534       -7.8308846635  WZ2       2557            0.0000000000
     10483      3495  TIP3      OH2            16.3331896015       11.4751542534      -11.2565946635  WZ2       2558            0.0000000000
     10484      3495  TIP3      H1             17.2792496015       11.3308542534      -11.2756446635  WZ2       2558            0.0000000000
     10485      3495  TIP3      H2             16.2208196015       12.2594342534      -10.7194746635  WZ2       2558            0.0000000000
     10486      3496  TIP3      OH2            34.5310396015       12.1411242534       -5.5742246635  WZ2       2559            0.0000000000
     10487      3496  TIP3      H1             34.4817196015       11.1859342534       -5.6114646635  WZ2       2559            0.0000000000
     10488      3496  TIP3      H2             33.7042696015       12.4086542534       -5.1728446635  WZ2       2559            0.0000000000
     10489      3497  TIP3      OH2            25.5094396015       11.7150442534       -6.6980846635  WZ2       2560            0.0000000000
     10490      3497  TIP3      H1             25.5968996015       12.5415042534       -6.2231746635  WZ2       2560            0.0000000000
     10491      3497  TIP3      H2             24.6459496015       11.3854242534       -6.4491546635  WZ2       2560            0.0000000000
     10492      3498  TIP3      OH2            25.9240196015       15.4874142534      -16.8920246635  WZ2       2561            0.0000000000
     10493      3498  TIP3      H1             25.8486196015       15.3661342534      -17.8385046635  WZ2       2561            0.0000000000
     10494      3498  TIP3      H2             25.9568896015       16.4366842534      -16.7735646635  WZ2       2561            0.0000000000
     10495      3499  TIP3      OH2            19.5773996015       14.2761142534      -15.1111246635  WZ2       2562            0.0000000000
     10496      3499  TIP3      H1             19.7294396015       13.9281542534      -14.2324746635  WZ2       2562            0.0000000000
     10497      3499  TIP3      H2             18.7264396015       13.9198442534      -15.3664046635  WZ2       2562            0.0000000000
     10498      3500  TIP3      OH2            29.0256196015       14.6414342534      -19.8897846635  WZ2       2563            0.0000000000
     10499      3500  TIP3      H1             29.4004596015       13.8970442534      -20.3605246635  WZ2       2563            0.0000000000
     10500      3500  TIP3      H2             29.0299896015       14.3714942534      -18.9714546635  WZ2       2563            0.0000000000
     10501      3501  TIP3      OH2            28.6944296015       14.5671442534      -17.1405646635  WZ2       2564            0.0000000000
     10502      3501  TIP3      H1             27.7594096015       14.6673342534      -16.9618646635  WZ2       2564            0.0000000000
     10503      3501  TIP3      H2             28.9746196015       13.8577442534      -16.5622446635  WZ2       2564            0.0000000000
     10504      3502  TIP3      OH2            31.6830196015        3.6343742534       -5.0940046635  WZ2       2565            0.0000000000
     10505      3502  TIP3      H1             31.2756996015        4.1149342534       -5.8146746635  WZ2       2565            0.0000000000
     10506      3502  TIP3      H2             31.7235896015        2.7289742534       -5.4019246635  WZ2       2565            0.0000000000
     10507      3503  TIP3      OH2            18.8319696015       10.0183142534       -7.0973346635  WZ2       2566            0.0000000000
     10508      3503  TIP3      H1             19.0480996015        9.6568742534       -6.2377546635  WZ2       2566            0.0000000000
     10509      3503  TIP3      H2             17.9764396015        9.6436942534       -7.3069846635  WZ2       2566            0.0000000000
     10510      3504  TIP3      OH2            21.4507696015       -1.5116357466      -11.1019146635  WZ2       2567            0.0000000000
     10511      3504  TIP3      H1             20.5891396015       -1.5988157466      -11.5096246635  WZ2       2567            0.0000000000
     10512      3504  TIP3      H2             21.4283396015       -0.6556257466      -10.6741546635  WZ2       2567            0.0000000000
     10513      3505  TIP3      OH2            26.1135496015       -1.7895957466       -7.7272146635  WZ2       2568            0.0000000000
     10514      3505  TIP3      H1             26.5338596015       -2.2048857466       -6.9741546635  WZ2       2568            0.0000000000
     10515      3505  TIP3      H2             25.1805096015       -1.9682657466       -7.6100146635  WZ2       2568            0.0000000000
     10516      3506  TIP3      OH2            29.4400396015        1.9659242534       -6.8737646635  WZ2       2569            0.0000000000
     10517      3506  TIP3      H1             28.9259896015        1.8401442534       -6.0761646635  WZ2       2569            0.0000000000
     10518      3506  TIP3      H2             29.2845096015        2.8782342534       -7.1181446635  WZ2       2569            0.0000000000
     10519      3507  TIP3      OH2            30.2025296015        6.8269242534      -21.1124646635  WZ2       2570            0.0000000000
     10520      3507  TIP3      H1             30.2446096015        6.6043142534      -22.0424646635  WZ2       2570            0.0000000000
     10521      3507  TIP3      H2             31.0517396015        7.2256342534      -20.9224746635  WZ2       2570            0.0000000000
     10522      3508  TIP3      OH2            25.7752796015        0.7027442534      -20.4421346635  WZ2       2571            0.0000000000
     10523      3508  TIP3      H1             25.5217596015        0.7219042534      -19.5193246635  WZ2       2571            0.0000000000
     10524      3508  TIP3      H2             25.5184896015       -0.1687157466      -20.7435146635  WZ2       2571            0.0000000000
     10525      3509  TIP3      OH2            21.5417796015        3.4538142534      -10.0068946635  WZ2       2572            0.0000000000
     10526      3509  TIP3      H1             20.8999896015        3.4135442534       -9.2978846635  WZ2       2572            0.0000000000
     10527      3509  TIP3      H2             21.5789796015        4.3802842534      -10.2445946635  WZ2       2572            0.0000000000
     10528      3510  TIP3      OH2            21.5386896015        3.6748242534      -15.0948946635  WZ2       2573            0.0000000000
     10529      3510  TIP3      H1             20.6459796015        3.3344342534      -15.1535146635  WZ2       2573            0.0000000000
     10530      3510  TIP3      H2             21.9893496015        3.2979142534      -15.8505746635  WZ2       2573            0.0000000000
     10531      3511  TIP3      OH2            27.0742396015        4.0908542534      -16.2778146635  WZ2       2574            0.0000000000
     10532      3511  TIP3      H1             26.6652696015        4.9057142534      -16.5693346635  WZ2       2574            0.0000000000
     10533      3511  TIP3      H2             27.7948596015        3.9508642534      -16.8921046635  WZ2       2574            0.0000000000
     10534      3512  TIP3      OH2            26.1763996015        4.2664942534       -4.7897446635  WZ2       2575            0.0000000000
     10535      3512  TIP3      H1             25.6137796015        3.5616542534       -4.4689646635  WZ2       2575            0.0000000000
     10536      3512  TIP3      H2             27.0027396015        4.1456842534       -4.3219846635  WZ2       2575            0.0000000000
     10537      3513  TIP3      OH2            28.0790096015        3.5368942534      -13.4638446635  WZ2       2576            0.0000000000
     10538      3513  TIP3      H1             27.8834596015        4.1425742534      -14.1787846635  WZ2       2576            0.0000000000
     10539      3513  TIP3      H2             28.2602696015        2.7034142534      -13.8982146635  WZ2       2576            0.0000000000
     10540      3514  TIP3      OH2            19.2918296015        3.7741642534       -8.1396946635  WZ2       2577            0.0000000000
     10541      3514  TIP3      H1             19.2537696015        4.1743242534       -7.2709846635  WZ2       2577            0.0000000000
     10542      3514  TIP3      H2             18.8009396015        2.9574042534       -8.0494046635  WZ2       2577            0.0000000000
     10543      3515  TIP3      OH2            22.6575696015        1.1483942534      -21.3410946635  WZ2       2578            0.0000000000
     10544      3515  TIP3      H1             22.2266396015        0.7034042534      -20.6113546635  WZ2       2578            0.0000000000
     10545      3515  TIP3      H2             21.9394396015        1.5200242534      -21.8533446635  WZ2       2578            0.0000000000
     10546      3516  TIP3      OH2            15.8999096015        0.8903442534      -14.2892246635  WZ2       2579            0.0000000000
     10547      3516  TIP3      H1             16.5306796015        0.8615542534      -13.5698346635  WZ2       2579            0.0000000000
     10548      3516  TIP3      H2             16.3493396015        0.4652142534      -15.0196346635  WZ2       2579            0.0000000000
     10549      3517  TIP3      OH2            17.1741196015        1.6365442534      -18.8651846635  WZ2       2580            0.0000000000
     10550      3517  TIP3      H1             17.6482896015        2.2275342534      -19.4500946635  WZ2       2580            0.0000000000
     10551      3517  TIP3      H2             16.4567596015        2.1668342534      -18.5181746635  WZ2       2580            0.0000000000
     10552      3518  TIP3      OH2            27.3429296015        5.1750242534       -8.7926046635  WZ2       2581            0.0000000000
     10553      3518  TIP3      H1             27.6664096015        4.5439942534       -9.4355546635  WZ2       2581            0.0000000000
     10554      3518  TIP3      H2             26.9028596015        4.6402442534       -8.1318646635  WZ2       2581            0.0000000000
     10555      3519  TIP3      OH2            24.1202196015        1.1025742534      -14.0084846635  WZ2       2582            0.0000000000
     10556      3519  TIP3      H1             23.2093296015        1.1592542534      -13.7198846635  WZ2       2582            0.0000000000
     10557      3519  TIP3      H2             24.6255096015        1.0421242534      -13.1977646635  WZ2       2582            0.0000000000
     10558      3520  TIP3      OH2            18.9485596015        2.7312042534      -15.1817246635  WZ2       2583            0.0000000000
     10559      3520  TIP3      H1             18.0593596015        2.8307542534      -15.5217646635  WZ2       2583            0.0000000000
     10560      3520  TIP3      H2             19.2450496015        1.8895042534      -15.5279346635  WZ2       2583            0.0000000000
     10561      3521  TIP3      OH2            22.6017396015        2.7314642534      -17.5252646635  WZ2       2584            0.0000000000
     10562      3521  TIP3      H1             23.5332896015        2.8604642534      -17.3469546635  WZ2       2584            0.0000000000
     10563      3521  TIP3      H2             22.3867696015        3.4008942534      -18.1747946635  WZ2       2584            0.0000000000
     10564      3522  TIP3      OH2            28.5254096015        0.3372042534      -10.7443046635  WZ2       2585            0.0000000000
     10565      3522  TIP3      H1             27.8485696015        0.4685142534      -10.0803346635  WZ2       2585            0.0000000000
     10566      3522  TIP3      H2             28.0398996015        0.1821542534      -11.5545346635  WZ2       2585            0.0000000000
     10567      3523  TIP3      OH2            21.2757596015        3.9256842534      -19.9586546635  WZ2       2586            0.0000000000
     10568      3523  TIP3      H1             20.7332696015        3.5460642534      -20.6498946635  WZ2       2586            0.0000000000
     10569      3523  TIP3      H2             22.1092496015        4.1201542534      -20.3872446635  WZ2       2586            0.0000000000
     10570      3524  TIP3      OH2            31.8129196015       16.0087442534       -4.4675446635  WZ2       2587            0.0000000000
     10571      3524  TIP3      H1             32.0127896015       16.4329342534       -5.3020146635  WZ2       2587            0.0000000000
     10572      3524  TIP3      H2             32.4682896015       16.3525642534       -3.8605046635  WZ2       2587            0.0000000000
     10573      3525  TIP3      OH2            19.4108996015        8.4828742534       -4.8594946635  WZ2       2588            0.0000000000
     10574      3525  TIP3      H1             20.1431396015        8.7374642534       -4.2980446635  WZ2       2588            0.0000000000
     10575      3525  TIP3      H2             18.6307696015        8.6874142534       -4.3439546635  WZ2       2588            0.0000000000
     10576      3526  TIP3      OH2            25.4401896015        3.8898742534      -12.1215246635  WZ2       2589            0.0000000000
     10577      3526  TIP3      H1             26.0045296015        3.3435342534      -12.6685646635  WZ2       2589            0.0000000000
     10578      3526  TIP3      H2             25.2925296015        3.3680642534      -11.3327646635  WZ2       2589            0.0000000000
     10579      3527  TIP3      OH2            20.4421596015        0.0264842534      -15.7030446635  WZ2       2590            0.0000000000
     10580      3527  TIP3      H1             20.1251096015       -0.8759857466      -15.7385046635  WZ2       2590            0.0000000000
     10581      3527  TIP3      H2             21.2235696015        0.0282242534      -16.2558846635  WZ2       2590            0.0000000000
     10582      3528  TIP3      OH2            24.0667796015        2.2784842534       -9.7074846635  WZ2       2591            0.0000000000
     10583      3528  TIP3      H1             23.2313096015        2.7324342534       -9.5972446635  WZ2       2591            0.0000000000
     10584      3528  TIP3      H2             24.5908396015        2.5543342534       -8.9554946635  WZ2       2591            0.0000000000
     10585      3529  TIP3      OH2            24.6110396015        8.4912542534      -18.0228446635  WZ2       2592            0.0000000000
     10586      3529  TIP3      H1             23.8661396015        7.9837842534      -18.3450546635  WZ2       2592            0.0000000000
     10587      3529  TIP3      H2             24.4767596015        8.5400542534      -17.0763646635  WZ2       2592            0.0000000000
     10588      3530  TIP3      OH2            31.7609296015        7.6240742534       -9.2360846635  WZ2       2593            0.0000000000
     10589      3530  TIP3      H1             32.4028096015        8.0807042534       -9.7798646635  WZ2       2593            0.0000000000
     10590      3530  TIP3      H2             30.9306196015        7.7373142534       -9.6986746635  WZ2       2593            0.0000000000
     10591      3531  TIP3      OH2            28.5087196015        1.3052442534      -19.8235846635  WZ2       2594            0.0000000000
     10592      3531  TIP3      H1             27.5701396015        1.4168042534      -19.9747046635  WZ2       2594            0.0000000000
     10593      3531  TIP3      H2             28.8059296015        2.1619342534      -19.5170146635  WZ2       2594            0.0000000000
     10594      3532  TIP3      OH2            26.1302496015        8.6755842534       -6.7859346635  WZ2       2595            0.0000000000
     10595      3532  TIP3      H1             25.7848596015        8.2938242534       -5.9789746635  WZ2       2595            0.0000000000
     10596      3532  TIP3      H2             25.9302596015        9.6089442534       -6.7146446635  WZ2       2595            0.0000000000
     10597      3533  TIP3      OH2            29.2270696015        3.1725142534      -18.1628446635  WZ2       2596            0.0000000000
     10598      3533  TIP3      H1             30.1189696015        3.0350142534      -17.8437246635  WZ2       2596            0.0000000000
     10599      3533  TIP3      H2             29.2834296015        3.9631242534      -18.6994946635  WZ2       2596            0.0000000000
     10600      3534  TIP3      OH2            19.7358696015        7.7862542534      -12.2530546635  WZ2       2597            0.0000000000
     10601      3534  TIP3      H1             20.4805896015        7.7838242534      -12.8544046635  WZ2       2597            0.0000000000
     10602      3534  TIP3      H2             19.8135296015        6.9626342534      -11.7715446635  WZ2       2597            0.0000000000
     10603      3535  TIP3      OH2            26.7364496015        9.9496842534      -18.9973846635  WZ2       2598            0.0000000000
     10604      3535  TIP3      H1             26.4412896015       10.7764742534      -18.6159046635  WZ2       2598            0.0000000000
     10605      3535  TIP3      H2             26.0334496015        9.3303742534      -18.8012446635  WZ2       2598            0.0000000000
     10606      3536  TIP3      OH2            16.7438396015        6.2469442534       -6.9382046635  WZ2       2599            0.0000000000
     10607      3536  TIP3      H1             16.9666996015        5.8289042534       -6.1064546635  WZ2       2599            0.0000000000
     10608      3536  TIP3      H2             16.1418496015        5.6344442534       -7.3609246635  WZ2       2599            0.0000000000
     10609      3537  TIP3      OH2            23.7603296015        5.7639342534       -4.7252346635  WZ2       2600            0.0000000000
     10610      3537  TIP3      H1             23.4644096015        5.5982342534       -5.6203246635  WZ2       2600            0.0000000000
     10611      3537  TIP3      H2             24.6918496015        5.5439642534       -4.7358446635  WZ2       2600            0.0000000000
     10612      3538  TIP3      OH2            28.3806096015       11.1371342534       -6.8354346635  WZ2       2601            0.0000000000
     10613      3538  TIP3      H1             27.4800396015       11.3203942534       -7.1030446635  WZ2       2601            0.0000000000
     10614      3538  TIP3      H2             28.4147196015       11.3960642534       -5.9145546635  WZ2       2601            0.0000000000
     10615      3539  TIP3      OH2            34.1119396015        3.3819242534      -18.4681746635  WZ2       2602            0.0000000000
     10616      3539  TIP3      H1             33.5575696015        2.9857242534      -19.1404246635  WZ2       2602            0.0000000000
     10617      3539  TIP3      H2             34.2122996015        4.2924442534      -18.7458446635  WZ2       2602            0.0000000000
     10618      3540  TIP3      OH2            34.0751396015        9.1820942534       -5.6310246635  WZ2       2603            0.0000000000
     10619      3540  TIP3      H1             33.2239896015        9.4204742534       -5.9983846635  WZ2       2603            0.0000000000
     10620      3540  TIP3      H2             34.6654796015        9.1654142534       -6.3843146635  WZ2       2603            0.0000000000
     10621      3541  TIP3      OH2            32.4071096015       12.1679642534      -18.0029646635  WZ2       2604            0.0000000000
     10622      3541  TIP3      H1             32.0342196015       11.3423442534      -17.6939046635  WZ2       2604            0.0000000000
     10623      3541  TIP3      H2             32.6844596015       11.9849042534      -18.9006246635  WZ2       2604            0.0000000000
     10624      3542  TIP3      OH2            29.5674996015        6.9759142534      -10.9817746635  WZ2       2605            0.0000000000
     10625      3542  TIP3      H1             28.6391896015        6.7441042534      -11.0088446635  WZ2       2605            0.0000000000
     10626      3542  TIP3      H2             30.0186096015        6.1988942534      -11.3118946635  WZ2       2605            0.0000000000
     10627      3543  TIP3      OH2            22.1108096015       11.3040742534      -14.8489046635  WZ2       2606            0.0000000000
     10628      3543  TIP3      H1             22.6380296015       12.0775142534      -15.0490246635  WZ2       2606            0.0000000000
     10629      3543  TIP3      H2             21.2306596015       11.5289942534      -15.1505046635  WZ2       2606            0.0000000000
     10630      3544  TIP3      OH2            17.8655796015        6.1664842534      -20.2616646635  WZ2       2607            0.0000000000
     10631      3544  TIP3      H1             18.4815696015        6.7932042534      -19.8821846635  WZ2       2607            0.0000000000
     10632      3544  TIP3      H2             17.0038396015        6.4824642534      -19.9900146635  WZ2       2607            0.0000000000
     10633      3545  TIP3      OH2            23.5380396015        8.9670642534      -15.2724746635  WZ2       2608            0.0000000000
     10634      3545  TIP3      H1             23.2970396015        9.8925042534      -15.2309446635  WZ2       2608            0.0000000000
     10635      3545  TIP3      H2             22.7973996015        8.5081942534      -14.8760846635  WZ2       2608            0.0000000000
     10636      3546  TIP3      OH2            24.0526996015       13.1164242534       -8.9573646635  WZ2       2609            0.0000000000
     10637      3546  TIP3      H1             24.4151696015       13.9709842534       -9.1909246635  WZ2       2609            0.0000000000
     10638      3546  TIP3      H2             24.5842196015       12.8245842534       -8.2167346635  WZ2       2609            0.0000000000
     10639      3547  TIP3      OH2            22.2211196015       13.9888242534      -15.7272546635  WZ2       2610            0.0000000000
     10640      3547  TIP3      H1             21.2711696015       14.0945642534      -15.6759246635  WZ2       2610            0.0000000000
     10641      3547  TIP3      H2             22.5729296015       14.8095642534      -15.3825046635  WZ2       2610            0.0000000000
     10642      3548  TIP3      OH2            27.5967796015        9.2154942534       -9.2568046635  WZ2       2611            0.0000000000
     10643      3548  TIP3      H1             27.1709096015        8.9876642534       -8.4304046635  WZ2       2611            0.0000000000
     10644      3548  TIP3      H2             28.1773596015        8.4766742534       -9.4392746635  WZ2       2611            0.0000000000
     10645      3549  TIP3      OH2            29.7996696015       10.1445442534      -20.1829046635  WZ2       2612            0.0000000000
     10646      3549  TIP3      H1             30.1529796015        9.7645242534      -19.3785546635  WZ2       2612            0.0000000000
     10647      3549  TIP3      H2             28.8510196015       10.0510242534      -20.0959746635  WZ2       2612            0.0000000000
     10648      3550  TIP3      OH2            30.2551996015       13.7674442534       -6.7873246635  WZ2       2613            0.0000000000
     10649      3550  TIP3      H1             29.6535196015       13.2117342534       -7.2826946635  WZ2       2613            0.0000000000
     10650      3550  TIP3      H2             30.5365696015       14.4344242534       -7.4135846635  WZ2       2613            0.0000000000
     10651      3551  TIP3      OH2            18.3777896015        1.0002142534       -7.3800646635  WZ2       2615            0.0000000000
     10652      3551  TIP3      H1             17.4850196015        1.3387542534       -7.4476646635  WZ2       2615            0.0000000000
     10653      3551  TIP3      H2             18.2790696015        0.1448242534       -6.9619846635  WZ2       2615            0.0000000000
     10654      3552  TIP3      OH2            30.6655996015        8.8167442534      -17.9561146635  WZ2       2616            0.0000000000
     10655      3552  TIP3      H1             30.3883596015        8.0886742534      -17.4000046635  WZ2       2616            0.0000000000
     10656      3552  TIP3      H2             31.5928996015        8.9359442534      -17.7508546635  WZ2       2616            0.0000000000
     10657      3553  TIP3      OH2            18.0289896015       12.8046542534       -8.9451246635  WZ2       2617            0.0000000000
     10658      3553  TIP3      H1             18.2460196015       11.8728942534       -8.9761546635  WZ2       2617            0.0000000000
     10659      3553  TIP3      H2             18.2753396015       13.0791542534       -8.0618446635  WZ2       2617            0.0000000000
     10660      3554  TIP3      OH2            23.8904496015       11.2561542534      -21.7359046635  WZ2       2618            0.0000000000
     10661      3554  TIP3      H1             24.1294296015       10.5079642534      -22.2830146635  WZ2       2618            0.0000000000
     10662      3554  TIP3      H2             23.6215796015       10.8683242534      -20.9031246635  WZ2       2618            0.0000000000
     10663      3555  TIP3      OH2            22.8275096015       10.8265342534      -19.2796446635  WZ2       2619            0.0000000000
     10664      3555  TIP3      H1             22.9743096015       10.3065142534      -18.4895546635  WZ2       2619            0.0000000000
     10665      3555  TIP3      H2             22.8246796015       11.7332942534      -18.9730546635  WZ2       2619            0.0000000000
     10666      3556  TIP3      OH2            19.2806196015        8.0788642534      -18.7691046635  WZ2       2620            0.0000000000
     10667      3556  TIP3      H1             18.5945496015        8.4311142534      -18.2021346635  WZ2       2620            0.0000000000
     10668      3556  TIP3      H2             19.8034096015        8.8418242534      -19.0156746635  WZ2       2620            0.0000000000
     10669      3557  TIP3      OH2            27.1121296015        0.7412442534       -8.4902046635  WZ2       2621            0.0000000000
     10670      3557  TIP3      H1             27.8109196015        0.8151142534       -7.8402346635  WZ2       2621            0.0000000000
     10671      3557  TIP3      H2             26.7312696015       -0.1232557466       -8.3359146635  WZ2       2621            0.0000000000
     10672      3558  TIP3      OH2            27.8966196015        0.3934142534      -17.3929746635  WZ2       2622            0.0000000000
     10673      3558  TIP3      H1             28.1164496015        0.8649542534      -18.1964346635  WZ2       2622            0.0000000000
     10674      3558  TIP3      H2             28.4550196015        0.7876742534      -16.7229146635  WZ2       2622            0.0000000000
     10675      3559  TIP3      OH2            25.5652296015       12.5238942534      -18.5302246635  WZ2       2623            0.0000000000
     10676      3559  TIP3      H1             24.7488396015       13.0208642534      -18.4777946635  WZ2       2623            0.0000000000
     10677      3559  TIP3      H2             26.0948596015       12.9992442534      -19.1703446635  WZ2       2623            0.0000000000
     10678      3560  TIP3      OH2            25.0966096015        2.1212942534      -16.5581346635  WZ2       2624            0.0000000000
     10679      3560  TIP3      H1             25.9088696015        2.6256142534      -16.5119646635  WZ2       2624            0.0000000000
     10680      3560  TIP3      H2             24.8519096015        1.9762642534      -15.6441746635  WZ2       2624            0.0000000000
     10681      3561  TIP3      OH2            25.6322496015        3.1075642534       -7.3734746635  WZ2       2625            0.0000000000
     10682      3561  TIP3      H1             25.7512796015        3.6811042534       -6.6164346635  WZ2       2625            0.0000000000
     10683      3561  TIP3      H2             26.2877096015        2.4195042534       -7.2586946635  WZ2       2625            0.0000000000
     10684      3562  TIP3      OH2            25.9802796015       -0.7974057466      -15.6200246635  WZ2       2626            0.0000000000
     10685      3562  TIP3      H1             25.6336296015       -0.1803457466      -14.9755946635  WZ2       2626            0.0000000000
     10686      3562  TIP3      H2             26.6389696015       -0.2968357466      -16.1014746635  WZ2       2626            0.0000000000
     10687      3563  TIP3      OH2            22.9035396015       13.5676142534      -18.5485346635  WZ2       2627            0.0000000000
     10688      3563  TIP3      H1             23.0644096015       14.3673642534      -19.0492746635  WZ2       2627            0.0000000000
     10689      3563  TIP3      H2             22.7063196015       13.8742142534      -17.6634746635  WZ2       2627            0.0000000000
     10690      3564  TIP3      OH2            21.6379796015        0.2655342534      -18.9327746635  WZ2       2628            0.0000000000
     10691      3564  TIP3      H1             21.5544596015        1.1538442534      -18.5861346635  WZ2       2628            0.0000000000
     10692      3564  TIP3      H2             22.5280096015        0.0002042534      -18.7010946635  WZ2       2628            0.0000000000
     10693      3565  TIP3      OH2            31.8368296015        1.0145942534       -6.5385046635  WZ2       2629            0.0000000000
     10694      3565  TIP3      H1             30.9204096015        1.2767642534       -6.6261346635  WZ2       2629            0.0000000000
     10695      3565  TIP3      H2             32.1723296015        1.0114942534       -7.4349746635  WZ2       2629            0.0000000000
     10696      3566  TIP3      OH2            30.4389296015        4.7646942534      -12.4427746635  WZ2       2630            0.0000000000
     10697      3566  TIP3      H1             29.6413696015        4.3497142534      -12.7712746635  WZ2       2630            0.0000000000
     10698      3566  TIP3      H2             30.8840396015        4.0740642534      -11.9517246635  WZ2       2630            0.0000000000
     10699      3567  TIP3      OH2            19.8965096015       10.6927542534      -19.8723246635  WZ2       2631            0.0000000000
     10700      3567  TIP3      H1             20.4886596015       11.3922342534      -19.5960846635  WZ2       2631            0.0000000000
     10701      3567  TIP3      H2             20.3558096015       10.2597042534      -20.5918646635  WZ2       2631            0.0000000000
     10702      3568  TIP3      OH2            18.2124296015        3.3570542534      -20.7563846635  WZ2       2632            0.0000000000
     10703      3568  TIP3      H1             18.1676896015        4.2963642534      -20.5776846635  WZ2       2632            0.0000000000
     10704      3568  TIP3      H2             17.3247496015        3.1215442534      -21.0261746635  WZ2       2632            0.0000000000
     10705      3569  TIP3      OH2            31.5253896015       14.0209442534      -10.8204246635  WZ2       2633            0.0000000000
     10706      3569  TIP3      H1             31.3698196015       14.6993842534      -11.4774946635  WZ2       2633            0.0000000000
     10707      3569  TIP3      H2             32.4580296015       14.0928742534      -10.6173646635  WZ2       2633            0.0000000000
     10708      3570  TIP3      OH2            19.0206296015       -1.8612857466      -12.0832846635  WZ2       2634            0.0000000000
     10709      3570  TIP3      H1             18.7916096015       -1.8020357466      -13.0107846635  WZ2       2634            0.0000000000
     10710      3570  TIP3      H2             18.5779696015       -2.6527357466      -11.7768746635  WZ2       2634            0.0000000000
     10711      3571  TIP3      OH2            17.9509596015       12.0794242534      -15.9227046635  WZ2       2635            0.0000000000
     10712      3571  TIP3      H1             17.1188196015       12.5516942534      -15.8955646635  WZ2       2635            0.0000000000
     10713      3571  TIP3      H2             18.4967896015       12.5891842534      -16.5213946635  WZ2       2635            0.0000000000
     10714      3572  TIP3      OH2            17.2393296015       14.6917942534       -4.5929046635  WZ2       2636            0.0000000000
     10715      3572  TIP3      H1             17.7795496015       14.4751942534       -3.8329846635  WZ2       2636            0.0000000000
     10716      3572  TIP3      H2             16.7581296015       13.8863942534       -4.7826546635  WZ2       2636            0.0000000000
     10717      3573  TIP3      OH2            21.8366696015       13.6112342534       -2.9724846635  WZ2       2637            0.0000000000
     10718      3573  TIP3      H1             22.6043896015       13.1523142534       -2.6315646635  WZ2       2637            0.0000000000
     10719      3573  TIP3      H2             21.8152896015       13.3852142534       -3.9023646635  WZ2       2637            0.0000000000
     10720      3574  TIP3      OH2            25.9286296015       13.1192942534      -21.5973046635  WZ2       2638            0.0000000000
     10721      3574  TIP3      H1             25.2847296015       12.4881542534      -21.2759346635  WZ2       2638            0.0000000000
     10722      3574  TIP3      H2             26.6904596015       12.5880942534      -21.8289546635  WZ2       2638            0.0000000000
     10723      3575  TIP3      OH2            28.4135396015       11.9913442534       -4.2433346635  WZ2       2639            0.0000000000
     10724      3575  TIP3      H1             28.0624896015       11.1346442534       -4.0002946635  WZ2       2639            0.0000000000
     10725      3575  TIP3      H2             29.1398596015       12.1340142534       -3.6364346635  WZ2       2639            0.0000000000
     10726      3576  TIP3      OH2            30.5329196015       12.9362842534      -21.3635046635  WZ2       2640            0.0000000000
     10727      3576  TIP3      H1             30.8159596015       12.1418042534      -20.9108146635  WZ2       2640            0.0000000000
     10728      3576  TIP3      H2             31.2727096015       13.1693842534      -21.9243946635  WZ2       2640            0.0000000000
     10729      3577  TIP3      OH2            17.1462796015        8.5022042534       -3.6384746635  WZ2       2641            0.0000000000
     10730      3577  TIP3      H1             17.2903296015        7.6002742534       -3.9248046635  WZ2       2641            0.0000000000
     10731      3577  TIP3      H2             16.3740196015        8.7884142534       -4.1262446635  WZ2       2641            0.0000000000
     10732      3578  TIP3      OH2            21.4876496015        8.8457742534      -21.5060146635  WZ2       2642            0.0000000000
     10733      3578  TIP3      H1             21.5520596015        8.0517342534      -20.9753746635  WZ2       2642            0.0000000000
     10734      3578  TIP3      H2             22.1405696015        8.7270542534      -22.1958146635  WZ2       2642            0.0000000000
     10735      3579  TIP3      OH2            23.8018896015        8.4720142534       -4.2058346635  WZ2       2643            0.0000000000
     10736      3579  TIP3      H1             23.4732696015        8.7428242534       -5.0630946635  WZ2       2643            0.0000000000
     10737      3579  TIP3      H2             23.9537096015        7.5309942534       -4.2933346635  WZ2       2643            0.0000000000
     10738      3580  TIP3      OH2            26.8399896015        9.8929442534      -21.7702146635  WZ2       2644            0.0000000000
     10739      3580  TIP3      H1             26.5713996015       10.0731542534      -20.8693246635  WZ2       2644            0.0000000000
     10740      3580  TIP3      H2             26.6335496015        8.9675642534      -21.9016346635  WZ2       2644            0.0000000000
     10741      3581  TIP3      OH2            29.5364096015        8.3877442534       -6.8226046635  WZ2       2645            0.0000000000
     10742      3581  TIP3      H1             30.2818896015        8.9761142534       -6.9422046635  WZ2       2645            0.0000000000
     10743      3581  TIP3      H2             28.7790896015        8.9697142534       -6.7592946635  WZ2       2645            0.0000000000
     10744      3582  TIP3      OH2            17.9789296015        5.7025342534       -4.2185446635  WZ2       2646            0.0000000000
     10745      3582  TIP3      H1             18.3870496015        4.8451942534       -4.3394846635  WZ2       2646            0.0000000000
     10746      3582  TIP3      H2             17.7186896015        5.7166642534       -3.2975146635  WZ2       2646            0.0000000000
     10747      3583  TIP3      OH2            22.6370296015        6.8183942534      -19.2002146635  WZ2       2647            0.0000000000
     10748      3583  TIP3      H1             22.1772296015        6.3342242534      -18.5143646635  WZ2       2647            0.0000000000
     10749      3583  TIP3      H2             22.8918996015        6.1499342534      -19.8361646635  WZ2       2647            0.0000000000
     10750      3584  TIP3      OH2            21.9259596015        4.7111042534       -6.8442546635  WZ2       2648            0.0000000000
     10751      3584  TIP3      H1             21.3075696015        5.3857642534       -6.5637846635  WZ2       2648            0.0000000000
     10752      3584  TIP3      H2             22.2700796015        5.0324942534       -7.6776346635  WZ2       2648            0.0000000000
     10753      3585  TIP3      OH2            23.7080696015        5.0615742534      -20.9378946635  WZ2       2649            0.0000000000
     10754      3585  TIP3      H1             23.5275696015        4.9066942534      -21.8650646635  WZ2       2649            0.0000000000
     10755      3585  TIP3      H2             24.6581196015        5.1694442534      -20.8931046635  WZ2       2649            0.0000000000
     10756      3586  TIP3      OH2            26.9457796015        7.1826342534       -3.5667746635  WZ2       2650            0.0000000000
     10757      3586  TIP3      H1             27.8988996015        7.2665442534       -3.5941746635  WZ2       2650            0.0000000000
     10758      3586  TIP3      H2             26.7852396015        6.4708142534       -2.9472846635  WZ2       2650            0.0000000000
     10759      3587  TIP3      OH2            33.0978996015        7.4159942534      -21.4920846635  WZ2       2651            0.0000000000
     10760      3587  TIP3      H1             32.8243796015        6.9915442534      -22.3052546635  WZ2       2651            0.0000000000
     10761      3587  TIP3      H2             33.1373096015        8.3474442534      -21.7090446635  WZ2       2651            0.0000000000
     10762      3588  TIP3      OH2            22.2653296015        2.0661842534       -5.7619446635  WZ2       2652            0.0000000000
     10763      3588  TIP3      H1             22.4154196015        1.3373142534       -6.3639746635  WZ2       2652            0.0000000000
     10764      3588  TIP3      H2             22.2675696015        2.8433542534       -6.3207246635  WZ2       2652            0.0000000000
     10765      3589  TIP3      OH2            22.6778996015        0.4357642534       -8.2692046635  WZ2       2653            0.0000000000
     10766      3589  TIP3      H1             23.2136496015        0.8874342534       -8.9212746635  WZ2       2653            0.0000000000
     10767      3589  TIP3      H2             21.8258596015        0.3277442534       -8.6917946635  WZ2       2653            0.0000000000
     10768      3590  TIP3      OH2            24.2597396015        5.8753842534       -8.0296846635  WZ2       2654            0.0000000000
     10769      3590  TIP3      H1             25.0102196015        5.7191342534       -8.6029046635  WZ2       2654            0.0000000000
     10770      3590  TIP3      H2             23.9205696015        6.7270442534       -8.3051346635  WZ2       2654            0.0000000000
     10771      3591  TIP3      OH2            28.6753596015        3.6905642534       -3.0011546635  WZ2       2655            0.0000000000
     10772      3591  TIP3      H1             28.8674896015        2.7595042534       -3.1127046635  WZ2       2655            0.0000000000
     10773      3591  TIP3      H2             29.5329896015        4.1155142534       -3.0116146635  WZ2       2655            0.0000000000
     10774      3592  TIP3      OH2            29.9920796015        6.4790842534       -4.9238846635  WZ2       2656            0.0000000000
     10775      3592  TIP3      H1             29.7105796015        7.1885442534       -5.5015046635  WZ2       2656            0.0000000000
     10776      3592  TIP3      H2             30.9345096015        6.4063842534       -5.0747646635  WZ2       2656            0.0000000000
     10777      3593  TIP3      OH2            20.7439596015        3.2645342534       -3.8503846635  WZ2       2657            0.0000000000
     10778      3593  TIP3      H1             19.9768596015        2.7320142534       -4.0606246635  WZ2       2657            0.0000000000
     10779      3593  TIP3      H2             21.4228596015        2.9545742534       -4.4497546635  WZ2       2657            0.0000000000
     10780      3594  TIP3      OH2            23.4834496015       -2.1076657466       -7.8378446635  WZ2       2658            0.0000000000
     10781      3594  TIP3      H1             23.3854096015       -1.1613457466       -7.9432246635  WZ2       2658            0.0000000000
     10782      3594  TIP3      H2             22.7410696015       -2.4802857466       -8.3134946635  WZ2       2658            0.0000000000
     10783      3595  TIP3      OH2            24.7474996015        2.2138742534       -4.2740046635  WZ2       2659            0.0000000000
     10784      3595  TIP3      H1             24.5120396015        1.9945442534       -3.3725146635  WZ2       2659            0.0000000000
     10785      3595  TIP3      H2             23.9641896015        2.0069942534       -4.7837546635  WZ2       2659            0.0000000000
     10786      3596  TIP3      OH2            27.4631596015        1.3412242534       -5.1986546635  WZ2       2660            0.0000000000
     10787      3596  TIP3      H1             26.5156996015        1.3731942534       -5.0663246635  WZ2       2660            0.0000000000
     10788      3596  TIP3      H2             27.7758296015        0.7159342534       -4.5448346635  WZ2       2660            0.0000000000
     10789      3597  TIP3      OH2            29.0973096015       -0.0246657466       -3.1934646635  WZ2       2661            0.0000000000
     10790      3597  TIP3      H1             29.0004896015       -0.9769357466       -3.1992746635  WZ2       2661            0.0000000000
     10791      3597  TIP3      H2             28.7756196015        0.2440142534       -2.3329146635  WZ2       2661            0.0000000000
     10792      3598  TIP3      OH2            18.9242396015        1.1849142534       -4.1459146635  WZ2       2662            0.0000000000
     10793      3598  TIP3      H1             19.1359796015        0.4785242534       -4.7561646635  WZ2       2662            0.0000000000
     10794      3598  TIP3      H2             18.8129896015        0.7475142534       -3.3017946635  WZ2       2662            0.0000000000
     10795      3599  TIP3      OH2            23.7052596015       -2.8139257466       -5.1665646635  WZ2       2663            0.0000000000
     10796      3599  TIP3      H1             24.4170996015       -3.4537057466       -5.1806546635  WZ2       2663            0.0000000000
     10797      3599  TIP3      H2             23.6042996015       -2.5470957466       -6.0802546635  WZ2       2663            0.0000000000
     10798      3600  TIP3      OH2            24.0590096015       -1.1310857466       -3.1129346635  WZ2       2664            0.0000000000
     10799      3600  TIP3      H1             23.9272296015       -1.6067057466       -3.9330846635  WZ2       2664            0.0000000000
     10800      3600  TIP3      H2             23.4597496015       -0.3867257466       -3.1682246635  WZ2       2664            0.0000000000
     10801      3601  TIP3      OH2            23.6052396015       15.7519442534      -19.9365346635  WZ2       2665            0.0000000000
     10802      3601  TIP3      H1             24.5383096015       15.9098142534      -19.7926946635  WZ2       2665            0.0000000000
     10803      3601  TIP3      H2             23.3411196015       16.4272442534      -20.5613846635  WZ2       2665            0.0000000000
     10804      3602  TIP3      OH2            17.1737296015       10.3883242534      -20.4537246635  WZ2       2666            0.0000000000
     10805      3602  TIP3      H1             18.0876496015       10.4672142534      -20.1803346635  WZ2       2666            0.0000000000
     10806      3602  TIP3      H2             17.1810396015        9.7012842534      -21.1201646635  WZ2       2666            0.0000000000
     10807      3603  TIP3      OH2            15.8227896015       15.7811742534      -15.3763346635  WZ2       2667            0.0000000000
     10808      3603  TIP3      H1             15.1754996015       15.3193442534      -15.9092146635  WZ2       2667            0.0000000000
     10809      3603  TIP3      H2             16.1772496015       15.1095042534      -14.7937146635  WZ2       2667            0.0000000000
     10810      3604  TIP3      OH2            16.6927096015       13.8618742534      -13.5717146635  WZ2       2668            0.0000000000
     10811      3604  TIP3      H1             16.3583896015       12.9816042534      -13.3996946635  WZ2       2668            0.0000000000
     10812      3604  TIP3      H2             16.9149496015       14.2073742534      -12.7071546635  WZ2       2668            0.0000000000
     10813      3605  TIP3      OH2            34.2411896015       14.6715142534      -10.5912346635  WZ2       2669            0.0000000000
     10814      3605  TIP3      H1             34.2198596015       14.8563542534       -9.6522946635  WZ2       2669            0.0000000000
     10815      3605  TIP3      H2             34.9318096015       15.2399142534      -10.9320946635  WZ2       2669            0.0000000000
     10816      3606  TIP3      OH2            33.8044796015       14.2386242534       -7.6693246635  WZ2       2670            0.0000000000
     10817      3606  TIP3      H1             33.3173496015       13.5030342534       -8.0405846635  WZ2       2670            0.0000000000
     10818      3606  TIP3      H2             34.3537496015       13.8450142534       -6.9913846635  WZ2       2670            0.0000000000
     10819      3607  TIP3      OH2            32.2552096015       10.0284342534       -3.0312946635  WZ2       2671            0.0000000000
     10820      3607  TIP3      H1             31.3893196015        9.9234042534       -2.6370646635  WZ2       2671            0.0000000000
     10821      3607  TIP3      H2             32.6317996015       10.7867642534       -2.5848246635  WZ2       2671            0.0000000000
     10822      3608  TIP3      OH2            33.5561796015        8.2848042534      -17.5170446635  WZ2       2672            0.0000000000
     10823      3608  TIP3      H1             34.4063196015        8.7058942534      -17.3898846635  WZ2       2672            0.0000000000
     10824      3608  TIP3      H2             33.5616896015        7.5448142534      -16.9099046635  WZ2       2672            0.0000000000
     10825      3609  TIP3      OH2            33.9507396015        6.3385442534      -15.6934746635  WZ2       2673            0.0000000000
     10826      3609  TIP3      H1             33.2241996015        5.8588042534      -15.2957146635  WZ2       2673            0.0000000000
     10827      3609  TIP3      H2             34.5320696015        6.5440142534      -14.9613146635  WZ2       2673            0.0000000000
     10828      3610  TIP3      OH2            33.7098596015        9.1232942534      -10.7457146635  WZ2       2674            0.0000000000
     10829      3610  TIP3      H1             34.5432796015        8.7452942534      -11.0263546635  WZ2       2674            0.0000000000
     10830      3610  TIP3      H2             33.8218896015       10.0664142534      -10.8648046635  WZ2       2674            0.0000000000
     10831      3611  TIP3      OH2            32.1960896015       12.0010442534       -8.4388746635  WZ2       2675            0.0000000000
     10832      3611  TIP3      H1             31.5486196015       12.3261942534       -7.8133546635  WZ2       2675            0.0000000000
     10833      3611  TIP3      H2             31.6784896015       11.5608142534       -9.1130446635  WZ2       2675            0.0000000000
     10834      3612  TIP3      OH2            34.2190496015        6.2393942534      -19.3023446635  WZ2       2676            0.0000000000
     10835      3612  TIP3      H1             33.6971596015        6.5958042534      -20.0212546635  WZ2       2676            0.0000000000
     10836      3612  TIP3      H2             34.1859696015        6.9141742534      -18.6242546635  WZ2       2676            0.0000000000
     10837      3613  TIP3      OH2            32.5679496015        3.4789542534      -20.7516346635  WZ2       2677            0.0000000000
     10838      3613  TIP3      H1             32.6643896015        4.1456542534      -21.4316646635  WZ2       2677            0.0000000000
     10839      3613  TIP3      H2             32.4279096015        2.6635842534      -21.2330846635  WZ2       2677            0.0000000000
     10840      3614  TIP3      OH2            31.7374196015        4.8591942534      -15.1306046635  WZ2       2678            0.0000000000
     10841      3614  TIP3      H1             31.5872996015        3.9140542534      -15.1508246635  WZ2       2678            0.0000000000
     10842      3614  TIP3      H2             31.3838696015        5.1403342534      -14.2866946635  WZ2       2678            0.0000000000
     10843      3615  TIP3      OH2            16.7726596015        6.9374142534      -11.1202246635  WZ2       2679            0.0000000000
     10844      3615  TIP3      H1             16.9569496015        6.8555842534      -12.0559346635  WZ2       2679            0.0000000000
     10845      3615  TIP3      H2             17.6219496015        6.8131142534      -10.6965846635  WZ2       2679            0.0000000000
     10846      3616  TIP3      OH2            32.5937096015        6.8295242534       -5.4917746635  WZ2       2680            0.0000000000
     10847      3616  TIP3      H1             33.1764396015        6.0947542534       -5.3000546635  WZ2       2680            0.0000000000
     10848      3616  TIP3      H2             33.1576396015        7.6015542534       -5.4451946635  WZ2       2680            0.0000000000
     10849      3617  TIP3      OH2            34.0904196015        4.7321042534       -4.8072346635  WZ2       2681            0.0000000000
     10850      3617  TIP3      H1             33.2270896015        4.3533142534       -4.9727646635  WZ2       2681            0.0000000000
     10851      3617  TIP3      H2             34.6947896015        3.9935842534       -4.8816546635  WZ2       2681            0.0000000000
     10852      3618  TIP3      OH2            31.8153296015        0.8869342534      -21.6340846635  WZ2       2682            0.0000000000
     10853      3618  TIP3      H1             32.4259096015        0.5156142534      -20.9972646635  WZ2       2682            0.0000000000
     10854      3618  TIP3      H2             30.9784796015        0.4656242534      -21.4380846635  WZ2       2682            0.0000000000
     10855      3619  TIP3      OH2            31.4478996015        2.4417742534      -16.6680946635  WZ2       2683            0.0000000000
     10856      3619  TIP3      H1             31.7276096015        1.5348142534      -16.5439246635  WZ2       2683            0.0000000000
     10857      3619  TIP3      H2             32.2070696015        2.8759242534      -17.0571746635  WZ2       2683            0.0000000000
     10858      3620  TIP3      OH2            32.0597296015        3.0235142534      -11.2322046635  WZ2       2684            0.0000000000
     10859      3620  TIP3      H1             32.9925296015        3.2355042534      -11.2666046635  WZ2       2684            0.0000000000
     10860      3620  TIP3      H2             31.8244796015        3.1247242534      -10.3099046635  WZ2       2684            0.0000000000
     10861      3621  TIP3      OH2            32.0889196015        3.7600442534       -8.4562646635  WZ2       2685            0.0000000000
     10862      3621  TIP3      H1             31.2460496015        4.0280842534       -8.0902846635  WZ2       2685            0.0000000000
     10863      3621  TIP3      H2             32.5313496015        4.5822342534       -8.6671546635  WZ2       2685            0.0000000000
     10864      3622  TIP3      OH2            16.3701396015        2.2079142534       -4.9793446635  WZ2       2686            0.0000000000
     10865      3622  TIP3      H1             17.2896296015        2.0857442534       -4.7430346635  WZ2       2686            0.0000000000
     10866      3622  TIP3      H2             15.9205896015        1.4578842534       -4.5899946635  WZ2       2686            0.0000000000
     10867      3623  TIP3      OH2            34.3720796015       -2.2599357466       -3.1027646635  WZ2       2687            0.0000000000
     10868      3623  TIP3      H1             34.7217796015       -2.9135857466       -3.7082946635  WZ2       2687            0.0000000000
     10869      3623  TIP3      H2             34.5190296015       -1.4225257466       -3.5425046635  WZ2       2687            0.0000000000
     10870      3624  TIP3      OH2            32.0613796015       -0.2952957466      -16.6198946635  WZ2       2688            0.0000000000
     10871      3624  TIP3      H1             32.2438796015       -0.7441457466      -15.7943946635  WZ2       2688            0.0000000000
     10872      3624  TIP3      H2             31.4616696015       -0.8798557466      -17.0834346635  WZ2       2688            0.0000000000
     10873      3625  TIP3      OH2            17.5913896015        0.5200742534      -12.0880546635  WZ2       2689            0.0000000000
     10874      3625  TIP3      H1             18.0365496015       -0.2716757466      -11.7860846635  WZ2       2689            0.0000000000
     10875      3625  TIP3      H2             18.0576896015        1.2365942534      -11.6574946635  WZ2       2689            0.0000000000
     10876      3626  TIP3      OH2            15.8954196015        3.5193742534      -11.0190346635  WZ2       2690            0.0000000000
     10877      3626  TIP3      H1             16.3873996015        3.2984242534      -11.8098346635  WZ2       2690            0.0000000000
     10878      3626  TIP3      H2             16.2575096015        4.3597142534      -10.7380846635  WZ2       2690            0.0000000000
     10879      3627  TIP3      OH2            33.8917996015       -0.1504757466       -4.7536346635  WZ2       2691            0.0000000000
     10880      3627  TIP3      H1             32.9743696015        0.1202342534       -4.7892846635  WZ2       2691            0.0000000000
     10881      3627  TIP3      H2             34.0147396015       -0.6856357466       -5.5376646635  WZ2       2691            0.0000000000
     10882      3628  TIP3      OH2            33.9279996015       -0.2274857466      -20.0918646635  WZ2       2692            0.0000000000
     10883      3628  TIP3      H1             34.3402596015       -0.9489157466      -20.5670646635  WZ2       2692            0.0000000000
     10884      3628  TIP3      H2             34.6096496015        0.4419742534      -20.0334346635  WZ2       2692            0.0000000000
     10885      3629  TIP3      OH2            16.2090696015       -0.2227157466      -16.9647946635  WZ2       2693            0.0000000000
     10886      3629  TIP3      H1             15.2839096015       -0.0140557466      -17.0942446635  WZ2       2693            0.0000000000
     10887      3629  TIP3      H2             16.6630596015        0.2613642534      -17.6545646635  WZ2       2693            0.0000000000
     10888      3630  TIP3      OH2            30.9797896015       14.7614542534      -15.0190546635  WZ2       2694            0.0000000000
     10889      3630  TIP3      H1             31.6320796015       14.4136642534      -15.6271446635  WZ2       2694            0.0000000000
     10890      3630  TIP3      H2             31.4901696015       15.2497742534      -14.3730846635  WZ2       2694            0.0000000000
     10891      3631  TIP3      OH2            16.1726096015       -1.4848157466       -8.6205446635  WZ2       2695            0.0000000000
     10892      3631  TIP3      H1             15.5076596015       -1.7307857466       -7.9774546635  WZ2       2695            0.0000000000
     10893      3631  TIP3      H2             15.7297396015       -0.8627757466       -9.1977446635  WZ2       2695            0.0000000000
     10894      3632  TIP3      OH2            18.3645396015       11.6905942534       -4.4759646635  WZ2       2696            0.0000000000
     10895      3632  TIP3      H1             17.5437896015       11.8652442534       -4.9364946635  WZ2       2696            0.0000000000
     10896      3632  TIP3      H2             18.1123196015       11.6170642534       -3.5555246635  WZ2       2696            0.0000000000
     10897      3633  TIP3      OH2            21.3188296015       12.6647142534       -8.2175646635  WZ2       2697            0.0000000000
     10898      3633  TIP3      H1             20.8939396015       13.4745642534       -8.5001046635  WZ2       2697            0.0000000000
     10899      3633  TIP3      H2             22.2231096015       12.7501242534       -8.5195846635  WZ2       2697            0.0000000000
     10900      3634  TIP3      OH2            25.6299696015       14.0637142534       -5.2581946635  WZ2       2698            0.0000000000
     10901      3634  TIP3      H1             25.8147196015       13.7303242534       -4.3801646635  WZ2       2698            0.0000000000
     10902      3634  TIP3      H2             26.4764196015       14.3735742534       -5.5802746635  WZ2       2698            0.0000000000
     10903      3635  TIP3      OH2            27.9750096015       15.3496042534       -6.0140546635  WZ2       2699            0.0000000000
     10904      3635  TIP3      H1             28.6518996015       14.7168342534       -6.2541346635  WZ2       2699            0.0000000000
     10905      3635  TIP3      H2             28.2968896015       15.7506542534       -5.2067246635  WZ2       2699            0.0000000000
     10906      3636  TIP3      OH2            32.8923896015       -2.0608457466       -6.9345546635  WZ2       2700            0.0000000000
     10907      3636  TIP3      H1             32.0797396015       -1.7358157466       -7.3220846635  WZ2       2700            0.0000000000
     10908      3636  TIP3      H2             33.1252396015       -2.8209957466       -7.4676446635  WZ2       2700            0.0000000000
     10909      3637  TIP3      OH2            18.7204996015       15.9211042534       -8.1700346635  WZ2       2701            0.0000000000
     10910      3637  TIP3      H1             18.0001396015       16.3612042534       -8.6212646635  WZ2       2701            0.0000000000
     10911      3637  TIP3      H2             18.3548996015       15.6705742534       -7.3216346635  WZ2       2701            0.0000000000
     10912      3638  TIP3      OH2            21.1877596015       15.5214942534       -9.1403146635  WZ2       2702            0.0000000000
     10913      3638  TIP3      H1             20.3229796015       15.5933442534       -8.7363046635  WZ2       2702            0.0000000000
     10914      3638  TIP3      H2             21.1326596015       16.0682242534       -9.9240646635  WZ2       2702            0.0000000000
     10915      3639  TIP3      OH2            25.8983196015       15.4093842534       -9.9647146635  WZ2       2703            0.0000000000
     10916      3639  TIP3      H1             25.4417196015       15.9383542534      -10.6188746635  WZ2       2703            0.0000000000
     10917      3639  TIP3      H2             26.0611196015       16.0125242534       -9.2394846635  WZ2       2703            0.0000000000
     10918      3640  TIP3      OH2            28.2259496015       14.2873442534       -9.0196846635  WZ2       2704            0.0000000000
     10919      3640  TIP3      H1             27.3213196015       14.4523642534       -9.2854746635  WZ2       2704            0.0000000000
     10920      3640  TIP3      H2             28.6548096015       15.1405642534       -9.0853446635  WZ2       2704            0.0000000000
     10921      3641  TIP3      OH2            30.8301396015       15.8572542534       -8.7249046635  WZ2       2705            0.0000000000
     10922      3641  TIP3      H1             30.6483396015       16.7731442534       -8.9354146635  WZ2       2705            0.0000000000
     10923      3641  TIP3      H2             31.0069196015       15.4469642534       -9.5714446635  WZ2       2705            0.0000000000
     10924      3642  TIP3      OH2            18.1353096015       14.5443542534      -11.2598546635  WZ2       2706            0.0000000000
     10925      3642  TIP3      H1             18.1169096015       14.1188642534      -10.4026246635  WZ2       2706            0.0000000000
     10926      3642  TIP3      H2             18.9400996015       14.2258542534      -11.6686346635  WZ2       2706            0.0000000000
     10927      3643  TIP3      OH2            20.2766196015       13.2542242534      -12.6048646635  WZ2       2707            0.0000000000
     10928      3643  TIP3      H1             20.0576896015       12.3379642534      -12.4352646635  WZ2       2707            0.0000000000
     10929      3643  TIP3      H2             21.1008396015       13.3942642534      -12.1387246635  WZ2       2707            0.0000000000
     10930      3644  TIP3      OH2            22.8138696015       13.7241542534      -11.7560646635  WZ2       2708            0.0000000000
     10931      3644  TIP3      H1             23.0264396015       12.8360542534      -12.0429746635  WZ2       2708            0.0000000000
     10932      3644  TIP3      H2             22.8783796015       13.6899242534      -10.8016646635  WZ2       2708            0.0000000000
     10933      3645  TIP3      OH2            26.3222396015       -0.6117857466      -12.6117346635  WZ2       2709            0.0000000000
     10934      3645  TIP3      H1             25.6479196015       -1.2412257466      -12.3561546635  WZ2       2709            0.0000000000
     10935      3645  TIP3      H2             26.8861596015       -1.0958957466      -13.2149446635  WZ2       2709            0.0000000000
     10936      3646  TIP3      OH2            31.4649596015       -2.5043857466      -12.4990246635  WZ2       2710            0.0000000000
     10937      3646  TIP3      H1             32.0687196015       -1.9568457466      -13.0009246635  WZ2       2710            0.0000000000
     10938      3646  TIP3      H2             30.5951596015       -2.1853457466      -12.7396146635  WZ2       2710            0.0000000000
     10939      3647  TIP3      OH2            33.1919996015       -1.3655157466      -14.1659346635  WZ2       2711            0.0000000000
     10940      3647  TIP3      H1             33.8037496015       -1.8799457466      -14.6925746635  WZ2       2711            0.0000000000
     10941      3647  TIP3      H2             33.5743396015       -0.4883057466      -14.1424946635  WZ2       2711            0.0000000000
     10942      3648  TIP3      OH2            18.6489896015       -1.9777557466      -14.7897446635  WZ2       2712            0.0000000000
     10943      3648  TIP3      H1             17.8719696015       -2.2122657466      -15.2971546635  WZ2       2712            0.0000000000
     10944      3648  TIP3      H2             19.1793496015       -2.7745457466      -14.7809446635  WZ2       2712            0.0000000000
     10945      3649  TIP3      OH2            17.4853296015       -2.1799457466      -18.9861346635  WZ2       2713            0.0000000000
     10946      3649  TIP3      H1             17.9243996015       -1.5688957466      -19.5777846635  WZ2       2713            0.0000000000
     10947      3649  TIP3      H2             16.8515696015       -1.6415357466      -18.5121346635  WZ2       2713            0.0000000000
     10948      3650  TIP3      OH2            23.2282496015       -2.0510457466      -14.9764346635  WZ2       2714            0.0000000000
     10949      3650  TIP3      H1             24.1025896015       -1.6626157466      -15.0060046635  WZ2       2714            0.0000000000
     10950      3650  TIP3      H2             23.0923296015       -2.2662657466      -14.0537146635  WZ2       2714            0.0000000000
     10951      3651  TIP3      OH2            28.7850896015       -2.0210657466      -13.3272646635  WZ2       2715            0.0000000000
     10952      3651  TIP3      H1             28.8612496015       -1.9259057466      -14.2766646635  WZ2       2715            0.0000000000
     10953      3651  TIP3      H2             28.5100096015       -2.9287757466      -13.1983546635  WZ2       2715            0.0000000000
     10954      3652  TIP3      OH2            30.1383496015       -1.9952857466      -17.6347646635  WZ2       2716            0.0000000000
     10955      3652  TIP3      H1             29.4354596015       -1.3803657466      -17.8446246635  WZ2       2716            0.0000000000
     10956      3652  TIP3      H2             29.6934896015       -2.8326157466      -17.5036746635  WZ2       2716            0.0000000000
     10957      3653  TIP3      OH2            17.3862796015       13.7682742534      -18.0886246635  WZ2       2717            0.0000000000
     10958      3653  TIP3      H1             16.7012696015       13.7301642534      -18.7561146635  WZ2       2717            0.0000000000
     10959      3653  TIP3      H2             17.3899996015       14.6810342534      -17.8004146635  WZ2       2717            0.0000000000
     10960      3654  TIP3      OH2            19.3462396015       -0.2637957466      -20.5437246635  WZ2       2718            0.0000000000
     10961      3654  TIP3      H1             19.8375796015       -0.8935557466      -21.0711746635  WZ2       2718            0.0000000000
     10962      3654  TIP3      H2             19.9698696015        0.0321442534      -19.8806046635  WZ2       2718            0.0000000000
     10963      3655  TIP3      OH2            24.3722496015        0.0293542534      -18.0866746635  WZ2       2719            0.0000000000
     10964      3655  TIP3      H1             24.5503796015       -0.6173257466      -17.4038146635  WZ2       2719            0.0000000000
     10965      3655  TIP3      H2             24.3188696015        0.8631242534      -17.6195646635  WZ2       2719            0.0000000000
     10966      3656  TIP3      OH2            26.2506296015       14.9777642534      -19.6910046635  WZ2       2720            0.0000000000
     10967      3656  TIP3      H1             27.1166496015       15.3445042534      -19.8691846635  WZ2       2720            0.0000000000
     10968      3656  TIP3      H2             26.0039096015       14.5385642534      -20.5049246635  WZ2       2720            0.0000000000
     10969      3657  TIP3      OH2            32.9595896015       14.5407942534      -17.0118946635  WZ2       2721            0.0000000000
     10970      3657  TIP3      H1             32.7652996015       13.7930042534      -17.5769346635  WZ2       2721            0.0000000000
     10971      3657  TIP3      H2             32.9205996015       15.2988042534      -17.5951046635  WZ2       2721            0.0000000000
     10972      3658  TIP3      OH2            18.6067896015       -1.4635657466       -5.2721246635  WZ2       2722            0.0000000000
     10973      3658  TIP3      H1             18.2406096015       -2.2293057466       -4.8296546635  WZ2       2722            0.0000000000
     10974      3658  TIP3      H2             19.5196396015       -1.4345457466       -4.9856146635  WZ2       2722            0.0000000000
     10975      3659  TIP3      OH2            20.5798696015       -2.1131257466       -3.7364146635  WZ2       2723            0.0000000000
     10976      3659  TIP3      H1             21.4782296015       -2.3871057466       -3.9210746635  WZ2       2723            0.0000000000
     10977      3659  TIP3      H2             20.1931796015       -2.8555257466       -3.2721546635  WZ2       2723            0.0000000000
     10978      3660  TIP3      OH2            19.2043996015       14.6883542534      -21.0634146635  WZ2       2724            0.0000000000
     10979      3660  TIP3      H1             18.9368596015       14.9746442534      -20.1901046635  WZ2       2724            0.0000000000
     10980      3660  TIP3      H2             19.9756596015       14.1422742534      -20.9111646635  WZ2       2724            0.0000000000
     10981      3661  TIP3      OH2            29.0010996015       -2.7805957466       -3.5541346635  WZ2       2725            0.0000000000
     10982      3661  TIP3      H1             29.0778196015       -3.2065257466       -2.7003646635  WZ2       2725            0.0000000000
     10983      3661  TIP3      H2             29.8947596015       -2.7671257466       -3.8967846635  WZ2       2725            0.0000000000
     10984      3662  TIP3      OH2            32.1772096015       13.2920342534       -4.8617146635  WZ2       2726            0.0000000000
     10985      3662  TIP3      H1             31.3953996015       13.1058342534       -5.3816546635  WZ2       2726            0.0000000000
     10986      3662  TIP3      H2             32.1051996015       14.2214642534       -4.6444646635  WZ2       2726            0.0000000000
     10987      3663  TIP3      OH2            37.8848796015        6.0477542534       -9.8191846635  WZ2       2727            0.0000000000
     10988      3663  TIP3      H1             37.9260896015        5.4220842534       -9.0959446635  WZ2       2727            0.0000000000
     10989      3663  TIP3      H2             38.5876496015        6.6716142534       -9.6371446635  WZ2       2727            0.0000000000
     10990      3664  TIP3      OH2            38.8081896015       10.4976442534      -11.2842746635  WZ2       2728            0.0000000000
     10991      3664  TIP3      H1             38.4387096015        9.6956942534      -11.6538446635  WZ2       2728            0.0000000000
     10992      3664  TIP3      H2             39.7492996015       10.3291342534      -11.2379346635  WZ2       2728            0.0000000000
     10993      3665  TIP3      OH2            35.4182396015        4.1579042534      -15.8913946635  WZ2       2729            0.0000000000
     10994      3665  TIP3      H1             34.9705796015        5.0037742534      -15.9097446635  WZ2       2729            0.0000000000
     10995      3665  TIP3      H2             34.8573596015        3.5783242534      -16.4068846635  WZ2       2729            0.0000000000
     10996      3666  TIP3      OH2            36.1288496015        6.3198642534      -13.7655946635  WZ2       2730            0.0000000000
     10997      3666  TIP3      H1             36.3421996015        5.5500242534      -13.2382946635  WZ2       2730            0.0000000000
     10998      3666  TIP3      H2             36.8666096015        6.4095342534      -14.3688346635  WZ2       2730            0.0000000000
     10999      3667  TIP3      OH2            36.8214996015        3.7581442534      -12.6439746635  WZ2       2732            0.0000000000
     11000      3667  TIP3      H1             37.4751596015        3.2083142534      -12.2119646635  WZ2       2732            0.0000000000
     11001      3667  TIP3      H2             36.8454296015        3.4840442534      -13.5607746635  WZ2       2732            0.0000000000
     11002      3668  TIP3      OH2            39.0115396015        0.2794042534       -9.3320346635  WZ2       2733            0.0000000000
     11003      3668  TIP3      H1             38.7927096015        0.8094642534      -10.0984346635  WZ2       2733            0.0000000000
     11004      3668  TIP3      H2             38.3436296015        0.5059542534       -8.6848946635  WZ2       2733            0.0000000000
     11005      3669  TIP3      OH2            38.6052696015        2.1715842534      -11.3798146635  WZ2       2734            0.0000000000
     11006      3669  TIP3      H1             39.2188996015        2.8043442534      -11.0065746635  WZ2       2734            0.0000000000
     11007      3669  TIP3      H2             39.1173396015        1.6990842534      -12.0361246635  WZ2       2734            0.0000000000
     11008      3670  TIP3      OH2            39.9881096015        9.9192742534       -8.2575146635  WZ2       2735            0.0000000000
     11009      3670  TIP3      H1             39.9828696015       10.7986242534       -8.6355846635  WZ2       2735            0.0000000000
     11010      3670  TIP3      H2             39.1345196015        9.8356842534       -7.8325246635  WZ2       2735            0.0000000000
     11011      3671  TIP3      OH2            36.1091996015        9.5900642534      -17.4755846635  WZ2       2736            0.0000000000
     11012      3671  TIP3      H1             35.8372896015        9.8191642534      -18.3642946635  WZ2       2736            0.0000000000
     11013      3671  TIP3      H2             36.1547696015       10.4279442534      -17.0150546635  WZ2       2736            0.0000000000
     11014      3672  TIP3      OH2            40.3556396015        7.2624242534      -14.5448746635  WZ2       2737            0.0000000000
     11015      3672  TIP3      H1             40.0251596015        6.8917642534      -15.3631746635  WZ2       2737            0.0000000000
     11016      3672  TIP3      H2             40.9440496015        6.5918242534      -14.1980446635  WZ2       2737            0.0000000000
     11017      3673  TIP3      OH2            38.5222496015        6.6283642534       -6.9656146635  WZ2       2738            0.0000000000
     11018      3673  TIP3      H1             38.5925696015        7.2790442534       -6.2671146635  WZ2       2738            0.0000000000
     11019      3673  TIP3      H2             37.6314696015        6.7311142534       -7.3005246635  WZ2       2738            0.0000000000
     11020      3674  TIP3      OH2            39.8418496015       12.5017542534       -5.4308046635  WZ2       2739            0.0000000000
     11021      3674  TIP3      H1             39.8493796015       12.3657242534       -6.3782546635  WZ2       2739            0.0000000000
     11022      3674  TIP3      H2             38.9258896015       12.3845642534       -5.1788046635  WZ2       2739            0.0000000000
     11023      3675  TIP3      OH2            39.3459096015        6.3318542534      -16.9555946635  WZ2       2740            0.0000000000
     11024      3675  TIP3      H1             39.0540396015        7.1000242534      -17.4464646635  WZ2       2740            0.0000000000
     11025      3675  TIP3      H2             38.6714296015        5.6724742534      -17.1184546635  WZ2       2740            0.0000000000
     11026      3676  TIP3      OH2            35.4389196015        8.6947742534       -8.1406146635  WZ2       2741            0.0000000000
     11027      3676  TIP3      H1             34.9377596015        8.6667142534       -8.9556446635  WZ2       2741            0.0000000000
     11028      3676  TIP3      H2             35.4442896015        7.7890942534       -7.8308846635  WZ2       2741            0.0000000000
     11029      3677  TIP3      OH2            35.1891896015       11.4751542534      -11.2565946635  WZ2       2742            0.0000000000
     11030      3677  TIP3      H1             36.1352496015       11.3308542534      -11.2756446635  WZ2       2742            0.0000000000
     11031      3677  TIP3      H2             35.0768196015       12.2594342534      -10.7194746635  WZ2       2742            0.0000000000
     11032      3678  TIP3      OH2            38.4333996015       14.2761142534      -15.1111246635  WZ2       2743            0.0000000000
     11033      3678  TIP3      H1             38.5854396015       13.9281542534      -14.2324746635  WZ2       2743            0.0000000000
     11034      3678  TIP3      H2             37.5824396015       13.9198442534      -15.3664046635  WZ2       2743            0.0000000000
     11035      3679  TIP3      OH2            37.6879696015       10.0183142534       -7.0973346635  WZ2       2744            0.0000000000
     11036      3679  TIP3      H1             37.9040996015        9.6568742534       -6.2377546635  WZ2       2744            0.0000000000
     11037      3679  TIP3      H2             36.8324396015        9.6436942534       -7.3069846635  WZ2       2744            0.0000000000
     11038      3680  TIP3      OH2            40.3977796015        3.4538142534      -10.0068946635  WZ2       2746            0.0000000000
     11039      3680  TIP3      H1             39.7559896015        3.4135442534       -9.2978846635  WZ2       2746            0.0000000000
     11040      3680  TIP3      H2             40.4349796015        4.3802842534      -10.2445946635  WZ2       2746            0.0000000000
     11041      3681  TIP3      OH2            40.3946896015        3.6748242534      -15.0948946635  WZ2       2747            0.0000000000
     11042      3681  TIP3      H1             39.5019796015        3.3344342534      -15.1535146635  WZ2       2747            0.0000000000
     11043      3681  TIP3      H2             40.8453496015        3.2979142534      -15.8505746635  WZ2       2747            0.0000000000
     11044      3682  TIP3      OH2            38.1478296015        3.7741642534       -8.1396946635  WZ2       2748            0.0000000000
     11045      3682  TIP3      H1             38.1097696015        4.1743242534       -7.2709846635  WZ2       2748            0.0000000000
     11046      3682  TIP3      H2             37.6569396015        2.9574042534       -8.0494046635  WZ2       2748            0.0000000000
     11047      3683  TIP3      OH2            34.7559096015        0.8903442534      -14.2892246635  WZ2       2749            0.0000000000
     11048      3683  TIP3      H1             35.3866796015        0.8615542534      -13.5698346635  WZ2       2749            0.0000000000
     11049      3683  TIP3      H2             35.2053396015        0.4652142534      -15.0196346635  WZ2       2749            0.0000000000
     11050      3684  TIP3      OH2            36.0301196015        1.6365442534      -18.8651846635  WZ2       2750            0.0000000000
     11051      3684  TIP3      H1             36.5042896015        2.2275342534      -19.4500946635  WZ2       2750            0.0000000000
     11052      3684  TIP3      H2             35.3127596015        2.1668342534      -18.5181746635  WZ2       2750            0.0000000000
     11053      3685  TIP3      OH2            37.8045596015        2.7312042534      -15.1817246635  WZ2       2751            0.0000000000
     11054      3685  TIP3      H1             36.9153596015        2.8307542534      -15.5217646635  WZ2       2751            0.0000000000
     11055      3685  TIP3      H2             38.1010496015        1.8895042534      -15.5279346635  WZ2       2751            0.0000000000
     11056      3686  TIP3      OH2            40.1317596015        3.9256842534      -19.9586546635  WZ2       2752            0.0000000000
     11057      3686  TIP3      H1             39.5892696015        3.5460642534      -20.6498946635  WZ2       2752            0.0000000000
     11058      3686  TIP3      H2             40.9652496015        4.1201542534      -20.3872446635  WZ2       2752            0.0000000000
     11059      3687  TIP3      OH2            38.2668996015        8.4828742534       -4.8594946635  WZ2       2753            0.0000000000
     11060      3687  TIP3      H1             38.9991396015        8.7374642534       -4.2980446635  WZ2       2753            0.0000000000
     11061      3687  TIP3      H2             37.4867696015        8.6874142534       -4.3439546635  WZ2       2753            0.0000000000
     11062      3688  TIP3      OH2            38.5918696015        7.7862542534      -12.2530546635  WZ2       2755            0.0000000000
     11063      3688  TIP3      H1             39.3365896015        7.7838242534      -12.8544046635  WZ2       2755            0.0000000000
     11064      3688  TIP3      H2             38.6695296015        6.9626342534      -11.7715446635  WZ2       2755            0.0000000000
     11065      3689  TIP3      OH2            35.5998396015        6.2469442534       -6.9382046635  WZ2       2756            0.0000000000
     11066      3689  TIP3      H1             35.8226996015        5.8289042534       -6.1064546635  WZ2       2756            0.0000000000
     11067      3689  TIP3      H2             34.9978496015        5.6344442534       -7.3609246635  WZ2       2756            0.0000000000
     11068      3690  TIP3      OH2            36.7215796015        6.1664842534      -20.2616646635  WZ2       2757            0.0000000000
     11069      3690  TIP3      H1             37.3375696015        6.7932042534      -19.8821846635  WZ2       2757            0.0000000000
     11070      3690  TIP3      H2             35.8598396015        6.4824642534      -19.9900146635  WZ2       2757            0.0000000000
     11071      3691  TIP3      OH2            37.2337896015        1.0002142534       -7.3800646635  WZ2       2758            0.0000000000
     11072      3691  TIP3      H1             36.3410196015        1.3387542534       -7.4476646635  WZ2       2758            0.0000000000
     11073      3691  TIP3      H2             37.1350696015        0.1448242534       -6.9619846635  WZ2       2758            0.0000000000
     11074      3692  TIP3      OH2            36.8849896015       12.8046542534       -8.9451246635  WZ2       2759            0.0000000000
     11075      3692  TIP3      H1             37.1020196015       11.8728942534       -8.9761546635  WZ2       2759            0.0000000000
     11076      3692  TIP3      H2             37.1313396015       13.0791542534       -8.0618446635  WZ2       2759            0.0000000000
     11077      3693  TIP3      OH2            38.1366196015        8.0788642534      -18.7691046635  WZ2       2760            0.0000000000
     11078      3693  TIP3      H1             37.4505496015        8.4311142534      -18.2021346635  WZ2       2760            0.0000000000
     11079      3693  TIP3      H2             38.6594096015        8.8418242534      -19.0156746635  WZ2       2760            0.0000000000
     11080      3694  TIP3      OH2            37.0684296015        3.3570542534      -20.7563846635  WZ2       2763            0.0000000000
     11081      3694  TIP3      H1             37.0236896015        4.2963642534      -20.5776846635  WZ2       2763            0.0000000000
     11082      3694  TIP3      H2             36.1807496015        3.1215442534      -21.0261746635  WZ2       2763            0.0000000000
     11083      3695  TIP3      OH2            37.8766296015       -1.8612857466      -12.0832846635  WZ2       2764            0.0000000000
     11084      3695  TIP3      H1             37.6476096015       -1.8020357466      -13.0107846635  WZ2       2764            0.0000000000
     11085      3695  TIP3      H2             37.4339696015       -2.6527357466      -11.7768746635  WZ2       2764            0.0000000000
     11086      3696  TIP3      OH2            36.8069596015       12.0794242534      -15.9227046635  WZ2       2765            0.0000000000
     11087      3696  TIP3      H1             35.9748196015       12.5516942534      -15.8955646635  WZ2       2765            0.0000000000
     11088      3696  TIP3      H2             37.3527896015       12.5891842534      -16.5213946635  WZ2       2765            0.0000000000
     11089      3697  TIP3      OH2            36.0953296015       14.6917942534       -4.5929046635  WZ2       2766            0.0000000000
     11090      3697  TIP3      H1             36.6355496015       14.4751942534       -3.8329846635  WZ2       2766            0.0000000000
     11091      3697  TIP3      H2             35.6141296015       13.8863942534       -4.7826546635  WZ2       2766            0.0000000000
     11092      3698  TIP3      OH2            36.0022796015        8.5022042534       -3.6384746635  WZ2       2767            0.0000000000
     11093      3698  TIP3      H1             36.1463296015        7.6002742534       -3.9248046635  WZ2       2767            0.0000000000
     11094      3698  TIP3      H2             35.2300196015        8.7884142534       -4.1262446635  WZ2       2767            0.0000000000
     11095      3699  TIP3      OH2            36.8349296015        5.7025342534       -4.2185446635  WZ2       2769            0.0000000000
     11096      3699  TIP3      H1             37.2430496015        4.8451942534       -4.3394846635  WZ2       2769            0.0000000000
     11097      3699  TIP3      H2             36.5746896015        5.7166642534       -3.2975146635  WZ2       2769            0.0000000000
     11098      3700  TIP3      OH2            39.5999596015        3.2645342534       -3.8503846635  WZ2       2770            0.0000000000
     11099      3700  TIP3      H1             38.8328596015        2.7320142534       -4.0606246635  WZ2       2770            0.0000000000
     11100      3700  TIP3      H2             40.2788596015        2.9545742534       -4.4497546635  WZ2       2770            0.0000000000
     11101      3701  TIP3      OH2            37.7802396015        1.1849142534       -4.1459146635  WZ2       2771            0.0000000000
     11102      3701  TIP3      H1             37.9919796015        0.4785242534       -4.7561646635  WZ2       2771            0.0000000000
     11103      3701  TIP3      H2             37.6689896015        0.7475142534       -3.3017946635  WZ2       2771            0.0000000000
     11104      3702  TIP3      OH2            34.6787896015       15.7811742534      -15.3763346635  WZ2       2773            0.0000000000
     11105      3702  TIP3      H1             34.0314996015       15.3193442534      -15.9092146635  WZ2       2773            0.0000000000
     11106      3702  TIP3      H2             35.0332496015       15.1095042534      -14.7937146635  WZ2       2773            0.0000000000
     11107      3703  TIP3      OH2            35.5487096015       13.8618742534      -13.5717146635  WZ2       2774            0.0000000000
     11108      3703  TIP3      H1             35.2143896015       12.9816042534      -13.3996946635  WZ2       2774            0.0000000000
     11109      3703  TIP3      H2             35.7709496015       14.2073742534      -12.7071546635  WZ2       2774            0.0000000000
     11110      3704  TIP3      OH2            35.6286596015        6.9374142534      -11.1202246635  WZ2       2775            0.0000000000
     11111      3704  TIP3      H1             35.8129496015        6.8555842534      -12.0559346635  WZ2       2775            0.0000000000
     11112      3704  TIP3      H2             36.4779496015        6.8131142534      -10.6965846635  WZ2       2775            0.0000000000
     11113      3705  TIP3      OH2            35.2261396015        2.2079142534       -4.9793446635  WZ2       2776            0.0000000000
     11114      3705  TIP3      H1             36.1456296015        2.0857442534       -4.7430346635  WZ2       2776            0.0000000000
     11115      3705  TIP3      H2             34.7765896015        1.4578842534       -4.5899946635  WZ2       2776            0.0000000000
     11116      3706  TIP3      OH2            36.4473896015        0.5200742534      -12.0880546635  WZ2       2777            0.0000000000
     11117      3706  TIP3      H1             36.8925496015       -0.2716757466      -11.7860846635  WZ2       2777            0.0000000000
     11118      3706  TIP3      H2             36.9136896015        1.2365942534      -11.6574946635  WZ2       2777            0.0000000000
     11119      3707  TIP3      OH2            34.7514196015        3.5193742534      -11.0190346635  WZ2       2778            0.0000000000
     11120      3707  TIP3      H1             35.2433996015        3.2984242534      -11.8098346635  WZ2       2778            0.0000000000
     11121      3707  TIP3      H2             35.1135096015        4.3597142534      -10.7380846635  WZ2       2778            0.0000000000
     11122      3708  TIP3      OH2            35.0650696015       -0.2227157466      -16.9647946635  WZ2       2779            0.0000000000
     11123      3708  TIP3      H1             34.1399096015       -0.0140557466      -17.0942446635  WZ2       2779            0.0000000000
     11124      3708  TIP3      H2             35.5190596015        0.2613642534      -17.6545646635  WZ2       2779            0.0000000000
     11125      3709  TIP3      OH2            35.0286096015       -1.4848157466       -8.6205446635  WZ2       2780            0.0000000000
     11126      3709  TIP3      H1             34.3636596015       -1.7307857466       -7.9774546635  WZ2       2780            0.0000000000
     11127      3709  TIP3      H2             34.5857396015       -0.8627757466       -9.1977446635  WZ2       2780            0.0000000000
     11128      3710  TIP3      OH2            37.2205396015       11.6905942534       -4.4759646635  WZ2       2781            0.0000000000
     11129      3710  TIP3      H1             36.3997896015       11.8652442534       -4.9364946635  WZ2       2781            0.0000000000
     11130      3710  TIP3      H2             36.9683196015       11.6170642534       -3.5555246635  WZ2       2781            0.0000000000
     11131      3711  TIP3      OH2            40.1748296015       12.6647142534       -8.2175646635  WZ2       2782            0.0000000000
     11132      3711  TIP3      H1             39.7499396015       13.4745642534       -8.5001046635  WZ2       2782            0.0000000000
     11133      3711  TIP3      H2             41.0791096015       12.7501242534       -8.5195846635  WZ2       2782            0.0000000000
     11134      3712  TIP3      OH2            37.5764996015       15.9211042534       -8.1700346635  WZ2       2783            0.0000000000
     11135      3712  TIP3      H1             36.8561396015       16.3612042534       -8.6212646635  WZ2       2783            0.0000000000
     11136      3712  TIP3      H2             37.2108996015       15.6705742534       -7.3216346635  WZ2       2783            0.0000000000
     11137      3713  TIP3      OH2            40.0437596015       15.5214942534       -9.1403146635  WZ2       2784            0.0000000000
     11138      3713  TIP3      H1             39.1789796015       15.5933442534       -8.7363046635  WZ2       2784            0.0000000000
     11139      3713  TIP3      H2             39.9886596015       16.0682242534       -9.9240646635  WZ2       2784            0.0000000000
     11140      3714  TIP3      OH2            36.9913096015       14.5443542534      -11.2598546635  WZ2       2785            0.0000000000
     11141      3714  TIP3      H1             36.9729096015       14.1188642534      -10.4026246635  WZ2       2785            0.0000000000
     11142      3714  TIP3      H2             37.7960996015       14.2258542534      -11.6686346635  WZ2       2785            0.0000000000
     11143      3715  TIP3      OH2            39.1326196015       13.2542242534      -12.6048646635  WZ2       2786            0.0000000000
     11144      3715  TIP3      H1             38.9136896015       12.3379642534      -12.4352646635  WZ2       2786            0.0000000000
     11145      3715  TIP3      H2             39.9568396015       13.3942642534      -12.1387246635  WZ2       2786            0.0000000000
     11146      3716  TIP3      OH2            37.5049896015       -1.9777557466      -14.7897446635  WZ2       2787            0.0000000000
     11147      3716  TIP3      H1             36.7279696015       -2.2122657466      -15.2971546635  WZ2       2787            0.0000000000
     11148      3716  TIP3      H2             38.0353496015       -2.7745457466      -14.7809446635  WZ2       2787            0.0000000000
     11149      3717  TIP3      OH2            36.3413296015       -2.1799457466      -18.9861346635  WZ2       2788            0.0000000000
     11150      3717  TIP3      H1             36.7803996015       -1.5688957466      -19.5777846635  WZ2       2788            0.0000000000
     11151      3717  TIP3      H2             35.7075696015       -1.6415357466      -18.5121346635  WZ2       2788            0.0000000000
     11152      3718  TIP3      OH2            36.2422796015       13.7682742534      -18.0886246635  WZ2       2789            0.0000000000
     11153      3718  TIP3      H1             35.5572696015       13.7301642534      -18.7561146635  WZ2       2789            0.0000000000
     11154      3718  TIP3      H2             36.2459996015       14.6810342534      -17.8004146635  WZ2       2789            0.0000000000
     11155      3719  TIP3      OH2            38.2022396015       -0.2637957466      -20.5437246635  WZ2       2790            0.0000000000
     11156      3719  TIP3      H1             38.6935796015       -0.8935557466      -21.0711746635  WZ2       2790            0.0000000000
     11157      3719  TIP3      H2             38.8258696015        0.0321442534      -19.8806046635  WZ2       2790            0.0000000000
     11158      3720  TIP3      OH2            37.4627896015       -1.4635657466       -5.2721246635  WZ2       2791            0.0000000000
     11159      3720  TIP3      H1             37.0966096015       -2.2293057466       -4.8296546635  WZ2       2791            0.0000000000
     11160      3720  TIP3      H2             38.3756396015       -1.4345457466       -4.9856146635  WZ2       2791            0.0000000000
     11161      3721  TIP3      OH2           -28.8407503985       26.0344742534      -14.8309946635  WZ2       2794            0.0000000000
     11162      3721  TIP3      H1            -28.7516403985       26.9782942534      -14.9632846635  WZ2       2794            0.0000000000
     11163      3721  TIP3      H2            -29.4789903985       25.7591142534      -15.4890546635  WZ2       2794            0.0000000000
     11164      3722  TIP3      OH2           -29.9076203985       25.2895442534      -11.4121746635  WZ2       2795            0.0000000000
     11165      3722  TIP3      H1            -29.9458703985       24.6431742534      -10.7072146635  WZ2       2795            0.0000000000
     11166      3722  TIP3      H2            -30.2299703985       24.8229842534      -12.1833046635  WZ2       2795            0.0000000000
     11167      3723  TIP3      OH2           -26.2016003985       28.2285842534      -13.1106646635  WZ2       2797            0.0000000000
     11168      3723  TIP3      H1            -26.6423303985       27.5081842534      -12.6601046635  WZ2       2797            0.0000000000
     11169      3723  TIP3      H2            -26.2146303985       28.9493042534      -12.4808946635  WZ2       2797            0.0000000000
     11170      3724  TIP3      OH2           -22.8552003985       19.3232142534      -10.1454546635  WZ2       2803            0.0000000000
     11171      3724  TIP3      H1            -22.8059803985       19.9333342534       -9.4095446635  WZ2       2803            0.0000000000
     11172      3724  TIP3      H2            -22.4296903985       19.7843042534      -10.8683446635  WZ2       2803            0.0000000000
     11173      3725  TIP3      OH2           -28.3774803985       22.1159242534      -10.6785946635  WZ2       2804            0.0000000000
     11174      3725  TIP3      H1            -28.2348903985       21.1696242534      -10.6584346635  WZ2       2804            0.0000000000
     11175      3725  TIP3      H2            -28.4835803985       22.3229042534      -11.6071046635  WZ2       2804            0.0000000000
     11176      3726  TIP3      OH2           -27.5003803985       20.3481242534      -15.0052846635  WZ2       2806            0.0000000000
     11177      3726  TIP3      H1            -26.8539503985       20.0194442534      -14.3805246635  WZ2       2806            0.0000000000
     11178      3726  TIP3      H2            -26.9904403985       20.8660242534      -15.6281446635  WZ2       2806            0.0000000000
     11179      3727  TIP3      OH2           -22.4637403985       20.8011342534       -7.9094746635  WZ2       2809            0.0000000000
     11180      3727  TIP3      H1            -23.1522803985       21.4592042534       -8.0048146635  WZ2       2809            0.0000000000
     11181      3727  TIP3      H2            -22.4482803985       20.6039242534       -6.9729346635  WZ2       2809            0.0000000000
     11182      3728  TIP3      OH2           -25.7365403985       19.6390542534      -13.0246946635  WZ2       2813            0.0000000000
     11183      3728  TIP3      H1            -25.9517403985       18.8733942534      -12.4920946635  WZ2       2813            0.0000000000
     11184      3728  TIP3      H2            -25.0808003985       20.1115142534      -12.5118446635  WZ2       2813            0.0000000000
     11185      3729  TIP3      OH2           -25.6898303985       30.0676542534      -10.7627346635  WZ2       2817            0.0000000000
     11186      3729  TIP3      H1            -26.6314603985       30.1260442534      -10.6010446635  WZ2       2817            0.0000000000
     11187      3729  TIP3      H2            -25.4132203985       30.9737042534      -10.8997646635  WZ2       2817            0.0000000000
     11188      3730  TIP3      OH2           -25.3891303985       18.3541842534       -9.3453446635  WZ2       2818            0.0000000000
     11189      3730  TIP3      H1            -26.1252103985       18.9648942534       -9.3832146635  WZ2       2818            0.0000000000
     11190      3730  TIP3      H2            -24.7057303985       18.7690842534       -9.8717046635  WZ2       2818            0.0000000000
     11191      3731  TIP3      OH2           -32.3859903985       16.4409142534      -11.8795446635  WZ2       2819            0.0000000000
     11192      3731  TIP3      H1            -32.5035703985       15.4925142534      -11.9337146635  WZ2       2819            0.0000000000
     11193      3731  TIP3      H2            -33.2409803985       16.7735242534      -11.6064346635  WZ2       2819            0.0000000000
     11194      3732  TIP3      OH2           -27.4377103985       31.8490042534      -14.1375746635  WZ2       2820            0.0000000000
     11195      3732  TIP3      H1            -27.0124803985       31.1417942534      -14.6226146635  WZ2       2820            0.0000000000
     11196      3732  TIP3      H2            -27.1207103985       32.6502742534      -14.5543546635  WZ2       2820            0.0000000000
     11197      3733  TIP3      OH2           -26.2780603985       29.7498542534      -15.6289146635  WZ2       2821            0.0000000000
     11198      3733  TIP3      H1            -26.5355803985       29.0598642534      -16.2403246635  WZ2       2821            0.0000000000
     11199      3733  TIP3      H2            -26.2069803985       29.3069742534      -14.7833246635  WZ2       2821            0.0000000000
     11200      3734  TIP3      OH2           -24.5920403985       28.3165242534       -7.1515646635  WZ2       2822            0.0000000000
     11201      3734  TIP3      H1            -24.4524103985       27.7247742534       -7.8908646635  WZ2       2822            0.0000000000
     11202      3734  TIP3      H2            -24.4247603985       29.1891142534       -7.5076846635  WZ2       2822            0.0000000000
     11203      3735  TIP3      OH2           -30.1195003985       25.2784742534      -17.3789646635  WZ2       2823            0.0000000000
     11204      3735  TIP3      H1            -30.8309503985       25.8134442534      -17.7309146635  WZ2       2823            0.0000000000
     11205      3735  TIP3      H2            -29.4285403985       25.3336842534      -18.0390746635  WZ2       2823            0.0000000000
     11206      3736  TIP3      OH2           -30.0655803985       23.7359042534      -20.3404646635  WZ2       2824            0.0000000000
     11207      3736  TIP3      H1            -29.3645903985       23.7585942534      -19.6890646635  WZ2       2824            0.0000000000
     11208      3736  TIP3      H2            -29.7632903985       23.1078742534      -20.9965346635  WZ2       2824            0.0000000000
     11209      3737  TIP3      OH2           -22.7501103985       24.6563242534       -9.0855246635  WZ2       2825            0.0000000000
     11210      3737  TIP3      H1            -23.4027003985       25.3508842534       -8.9964346635  WZ2       2825            0.0000000000
     11211      3737  TIP3      H2            -22.2850803985       24.8664142534       -9.8953646635  WZ2       2825            0.0000000000
     11212      3738  TIP3      OH2           -26.7137303985       25.4878042534      -16.4273746635  WZ2       2826            0.0000000000
     11213      3738  TIP3      H1            -27.4456303985       25.7161742534      -15.8543146635  WZ2       2826            0.0000000000
     11214      3738  TIP3      H2            -26.2665103985       24.7740742534      -15.9726246635  WZ2       2826            0.0000000000
     11215      3739  TIP3      OH2           -26.8163803985       23.6620642534       -7.3596746635  WZ2       2827            0.0000000000
     11216      3739  TIP3      H1            -26.7364703985       24.4255042534       -6.7878246635  WZ2       2827            0.0000000000
     11217      3739  TIP3      H2            -27.4176103985       23.9413042534       -8.0501646635  WZ2       2827            0.0000000000
     11218      3740  TIP3      OH2           -27.8427803985       24.6500942534      -18.7422546635  WZ2       2833            0.0000000000
     11219      3740  TIP3      H1            -27.2632303985       24.8001242534      -17.9953646635  WZ2       2833            0.0000000000
     11220      3740  TIP3      H2            -27.4287803985       25.1208342534      -19.4656146635  WZ2       2833            0.0000000000
     11221      3741  TIP3      OH2           -24.1439403985       16.4001342534      -18.9292846635  WZ2       2837            0.0000000000
     11222      3741  TIP3      H1            -25.0438703985       16.5390342534      -18.6342246635  WZ2       2837            0.0000000000
     11223      3741  TIP3      H2            -23.8921003985       17.2315942534      -19.3311146635  WZ2       2837            0.0000000000
     11224      3742  TIP3      OH2           -22.9548003985       30.7663742534      -20.5528946635  WZ2       2839            0.0000000000
     11225      3742  TIP3      H1            -22.8814503985       31.7053942534      -20.3823646635  WZ2       2839            0.0000000000
     11226      3742  TIP3      H2            -22.0492903985       30.4612342534      -20.6091646635  WZ2       2839            0.0000000000
     11227      3743  TIP3      OH2           -22.0369603985       30.9971242534       -5.5742246635  WZ2       2842            0.0000000000
     11228      3743  TIP3      H1            -22.0862803985       30.0419342534       -5.6114646635  WZ2       2842            0.0000000000
     11229      3743  TIP3      H2            -22.8637303985       31.2646542534       -5.1728446635  WZ2       2842            0.0000000000
     11230      3744  TIP3      OH2           -24.8849803985       22.4903742534       -5.0940046635  WZ2       2848            0.0000000000
     11231      3744  TIP3      H1            -25.2923003985       22.9709342534       -5.8146746635  WZ2       2848            0.0000000000
     11232      3744  TIP3      H2            -24.8444103985       21.5849742534       -5.4019246635  WZ2       2848            0.0000000000
     11233      3745  TIP3      OH2           -30.4544503985       17.0664042534       -7.7272146635  WZ2       2851            0.0000000000
     11234      3745  TIP3      H1            -30.0341403985       16.6511142534       -6.9741546635  WZ2       2851            0.0000000000
     11235      3745  TIP3      H2            -31.3874903985       16.8877342534       -7.6100146635  WZ2       2851            0.0000000000
     11236      3746  TIP3      OH2           -27.1279603985       20.8219242534       -6.8737646635  WZ2       2852            0.0000000000
     11237      3746  TIP3      H1            -27.6420103985       20.6961442534       -6.0761646635  WZ2       2852            0.0000000000
     11238      3746  TIP3      H2            -27.2834903985       21.7342342534       -7.1181446635  WZ2       2852            0.0000000000
     11239      3747  TIP3      OH2           -26.3654703985       25.6829242534      -21.1124646635  WZ2       2853            0.0000000000
     11240      3747  TIP3      H1            -26.3233903985       25.4603142534      -22.0424646635  WZ2       2853            0.0000000000
     11241      3747  TIP3      H2            -25.5162603985       26.0816342534      -20.9224746635  WZ2       2853            0.0000000000
     11242      3748  TIP3      OH2           -30.7927203985       19.5587442534      -20.4421346635  WZ2       2854            0.0000000000
     11243      3748  TIP3      H1            -31.0462403985       19.5779042534      -19.5193246635  WZ2       2854            0.0000000000
     11244      3748  TIP3      H2            -31.0495103985       18.6872842534      -20.7435146635  WZ2       2854            0.0000000000
     11245      3749  TIP3      OH2           -29.4937603985       22.9468542534      -16.2778146635  WZ2       2857            0.0000000000
     11246      3749  TIP3      H1            -29.9027303985       23.7617142534      -16.5693346635  WZ2       2857            0.0000000000
     11247      3749  TIP3      H2            -28.7731403985       22.8068642534      -16.8921046635  WZ2       2857            0.0000000000
     11248      3750  TIP3      OH2           -30.3916003985       23.1224942534       -4.7897446635  WZ2       2858            0.0000000000
     11249      3750  TIP3      H1            -30.9542203985       22.4176542534       -4.4689646635  WZ2       2858            0.0000000000
     11250      3750  TIP3      H2            -29.5652603985       23.0016842534       -4.3219846635  WZ2       2858            0.0000000000
     11251      3751  TIP3      OH2           -28.4889903985       22.3928942534      -13.4638446635  WZ2       2859            0.0000000000
     11252      3751  TIP3      H1            -28.6845403985       22.9985742534      -14.1787846635  WZ2       2859            0.0000000000
     11253      3751  TIP3      H2            -28.3077303985       21.5594142534      -13.8982146635  WZ2       2859            0.0000000000
     11254      3752  TIP3      OH2           -29.2250703985       24.0310242534       -8.7926046635  WZ2       2864            0.0000000000
     11255      3752  TIP3      H1            -28.9015903985       23.3999942534       -9.4355546635  WZ2       2864            0.0000000000
     11256      3752  TIP3      H2            -29.6651403985       23.4962442534       -8.1318646635  WZ2       2864            0.0000000000
     11257      3753  TIP3      OH2           -28.0425903985       19.1932042534      -10.7443046635  WZ2       2868            0.0000000000
     11258      3753  TIP3      H1            -28.7194303985       19.3245142534      -10.0803346635  WZ2       2868            0.0000000000
     11259      3753  TIP3      H2            -28.5281003985       19.0381542534      -11.5545346635  WZ2       2868            0.0000000000
     11260      3754  TIP3      OH2           -24.7550803985       34.8647442534       -4.4675446635  WZ2       2870            0.0000000000
     11261      3754  TIP3      H1            -24.5552103985       35.2889342534       -5.3020146635  WZ2       2870            0.0000000000
     11262      3754  TIP3      H2            -24.0997103985       35.2085642534       -3.8605046635  WZ2       2870            0.0000000000
     11263      3755  TIP3      OH2           -31.1278103985       22.7458742534      -12.1215246635  WZ2       2872            0.0000000000
     11264      3755  TIP3      H1            -30.5634703985       22.1995342534      -12.6685646635  WZ2       2872            0.0000000000
     11265      3755  TIP3      H2            -31.2754703985       22.2240642534      -11.3327646635  WZ2       2872            0.0000000000
     11266      3756  TIP3      OH2           -24.8070703985       26.4800742534       -9.2360846635  WZ2       2876            0.0000000000
     11267      3756  TIP3      H1            -24.1651903985       26.9367042534       -9.7798646635  WZ2       2876            0.0000000000
     11268      3756  TIP3      H2            -25.6373803985       26.5933142534       -9.6986746635  WZ2       2876            0.0000000000
     11269      3757  TIP3      OH2           -28.0592803985       20.1612442534      -19.8235846635  WZ2       2877            0.0000000000
     11270      3757  TIP3      H1            -28.9978603985       20.2728042534      -19.9747046635  WZ2       2877            0.0000000000
     11271      3757  TIP3      H2            -27.7620703985       21.0179342534      -19.5170146635  WZ2       2877            0.0000000000
     11272      3758  TIP3      OH2           -27.3409303985       22.0285142534      -18.1628446635  WZ2       2879            0.0000000000
     11273      3758  TIP3      H1            -26.4490303985       21.8910142534      -17.8437246635  WZ2       2879            0.0000000000
     11274      3758  TIP3      H2            -27.2845703985       22.8191242534      -18.6994946635  WZ2       2879            0.0000000000
     11275      3759  TIP3      OH2           -22.4560603985       22.2379242534      -18.4681746635  WZ2       2885            0.0000000000
     11276      3759  TIP3      H1            -23.0104303985       21.8417242534      -19.1404246635  WZ2       2885            0.0000000000
     11277      3759  TIP3      H2            -22.3557003985       23.1484442534      -18.7458446635  WZ2       2885            0.0000000000
     11278      3760  TIP3      OH2           -22.4928603985       28.0380942534       -5.6310246635  WZ2       2886            0.0000000000
     11279      3760  TIP3      H1            -23.3440103985       28.2764742534       -5.9983846635  WZ2       2886            0.0000000000
     11280      3760  TIP3      H2            -21.9025203985       28.0214142534       -6.3843146635  WZ2       2886            0.0000000000
     11281      3761  TIP3      OH2           -24.1608903985       31.0239642534      -18.0029646635  WZ2       2887            0.0000000000
     11282      3761  TIP3      H1            -24.5337803985       30.1983442534      -17.6939046635  WZ2       2887            0.0000000000
     11283      3761  TIP3      H2            -23.8835403985       30.8409042534      -18.9006246635  WZ2       2887            0.0000000000
     11284      3762  TIP3      OH2           -27.0005003985       25.8319142534      -10.9817746635  WZ2       2888            0.0000000000
     11285      3762  TIP3      H1            -27.9288103985       25.6001042534      -11.0088446635  WZ2       2888            0.0000000000
     11286      3762  TIP3      H2            -26.5493903985       25.0548942534      -11.3118946635  WZ2       2888            0.0000000000
     11287      3763  TIP3      OH2           -28.9712203985       28.0714942534       -9.2568046635  WZ2       2894            0.0000000000
     11288      3763  TIP3      H1            -29.3970903985       27.8436642534       -8.4304046635  WZ2       2894            0.0000000000
     11289      3763  TIP3      H2            -28.3906403985       27.3326742534       -9.4392746635  WZ2       2894            0.0000000000
     11290      3764  TIP3      OH2           -26.7683303985       29.0005442534      -20.1829046635  WZ2       2895            0.0000000000
     11291      3764  TIP3      H1            -26.4150203985       28.6205242534      -19.3785546635  WZ2       2895            0.0000000000
     11292      3764  TIP3      H2            -27.7169803985       28.9070242534      -20.0959746635  WZ2       2895            0.0000000000
     11293      3765  TIP3      OH2           -26.3128003985       32.6234442534       -6.7873246635  WZ2       2896            0.0000000000
     11294      3765  TIP3      H1            -26.9144803985       32.0677342534       -7.2826946635  WZ2       2896            0.0000000000
     11295      3765  TIP3      H2            -26.0314303985       33.2904242534       -7.4135846635  WZ2       2896            0.0000000000
     11296      3766  TIP3      OH2           -22.2648903985       33.4797942534      -19.9818846635  WZ2       2897            0.0000000000
     11297      3766  TIP3      H1            -21.5211003985       34.0658442534      -20.1217246635  WZ2       2897            0.0000000000
     11298      3766  TIP3      H2            -22.9590803985       34.0483742534      -19.6486446635  WZ2       2897            0.0000000000
     11299      3767  TIP3      OH2           -25.9024003985       27.6727442534      -17.9561146635  WZ2       2899            0.0000000000
     11300      3767  TIP3      H1            -26.1796403985       26.9446742534      -17.4000046635  WZ2       2899            0.0000000000
     11301      3767  TIP3      H2            -24.9751003985       27.7919442534      -17.7508546635  WZ2       2899            0.0000000000
     11302      3768  TIP3      OH2           -29.4558703985       19.5972442534       -8.4902046635  WZ2       2904            0.0000000000
     11303      3768  TIP3      H1            -28.7570803985       19.6711142534       -7.8402346635  WZ2       2904            0.0000000000
     11304      3768  TIP3      H2            -29.8367303985       18.7327442534       -8.3359146635  WZ2       2904            0.0000000000
     11305      3769  TIP3      OH2           -28.6713803985       19.2494142534      -17.3929746635  WZ2       2905            0.0000000000
     11306      3769  TIP3      H1            -28.4515503985       19.7209542534      -18.1964346635  WZ2       2905            0.0000000000
     11307      3769  TIP3      H2            -28.1129803985       19.6436742534      -16.7229146635  WZ2       2905            0.0000000000
     11308      3770  TIP3      OH2           -31.4713903985       20.9772942534      -16.5581346635  WZ2       2907            0.0000000000
     11309      3770  TIP3      H1            -30.6591303985       21.4816142534      -16.5119646635  WZ2       2907            0.0000000000
     11310      3770  TIP3      H2            -31.7160903985       20.8322642534      -15.6441746635  WZ2       2907            0.0000000000
     11311      3771  TIP3      OH2           -30.9357503985       21.9635642534       -7.3734746635  WZ2       2908            0.0000000000
     11312      3771  TIP3      H1            -30.8167203985       22.5371042534       -6.6164346635  WZ2       2908            0.0000000000
     11313      3771  TIP3      H2            -30.2802903985       21.2755042534       -7.2586946635  WZ2       2908            0.0000000000
     11314      3772  TIP3      OH2           -30.5877203985       18.0585942534      -15.6200246635  WZ2       2909            0.0000000000
     11315      3772  TIP3      H1            -30.9343703985       18.6756542534      -14.9755946635  WZ2       2909            0.0000000000
     11316      3772  TIP3      H2            -29.9290303985       18.5591642534      -16.1014746635  WZ2       2909            0.0000000000
     11317      3773  TIP3      OH2           -24.7311703985       19.8705942534       -6.5385046635  WZ2       2912            0.0000000000
     11318      3773  TIP3      H1            -25.6475903985       20.1327642534       -6.6261346635  WZ2       2912            0.0000000000
     11319      3773  TIP3      H2            -24.3956703985       19.8674942534       -7.4349746635  WZ2       2912            0.0000000000
     11320      3774  TIP3      OH2           -26.1290703985       23.6206942534      -12.4427746635  WZ2       2913            0.0000000000
     11321      3774  TIP3      H1            -26.9266303985       23.2057142534      -12.7712746635  WZ2       2913            0.0000000000
     11322      3774  TIP3      H2            -25.6839603985       22.9300642534      -11.9517246635  WZ2       2913            0.0000000000
     11323      3775  TIP3      OH2           -25.0426103985       32.8769442534      -10.8204246635  WZ2       2916            0.0000000000
     11324      3775  TIP3      H1            -25.1981803985       33.5553842534      -11.4774946635  WZ2       2916            0.0000000000
     11325      3775  TIP3      H2            -24.1099703985       32.9488742534      -10.6173646635  WZ2       2916            0.0000000000
     11326      3776  TIP3      OH2           -28.1544603985       30.8473442534       -4.2433346635  WZ2       2922            0.0000000000
     11327      3776  TIP3      H1            -28.5055103985       29.9906442534       -4.0002946635  WZ2       2922            0.0000000000
     11328      3776  TIP3      H2            -27.4281403985       30.9900142534       -3.6364346635  WZ2       2922            0.0000000000
     11329      3777  TIP3      OH2           -27.0315903985       27.2437442534       -6.8226046635  WZ2       2928            0.0000000000
     11330      3777  TIP3      H1            -26.2861103985       27.8321142534       -6.9422046635  WZ2       2928            0.0000000000
     11331      3777  TIP3      H2            -27.7889103985       27.8257142534       -6.7592946635  WZ2       2928            0.0000000000
     11332      3778  TIP3      OH2           -29.6222203985       26.0386342534       -3.5667746635  WZ2       2933            0.0000000000
     11333      3778  TIP3      H1            -28.6691003985       26.1225442534       -3.5941746635  WZ2       2933            0.0000000000
     11334      3778  TIP3      H2            -29.7827603985       25.3268142534       -2.9472846635  WZ2       2933            0.0000000000
     11335      3779  TIP3      OH2           -23.4701003985       26.2719942534      -21.4920846635  WZ2       2934            0.0000000000
     11336      3779  TIP3      H1            -23.7436203985       25.8475442534      -22.3052546635  WZ2       2934            0.0000000000
     11337      3779  TIP3      H2            -23.4306903985       27.2034442534      -21.7090446635  WZ2       2934            0.0000000000
     11338      3780  TIP3      OH2           -27.8926403985       22.5465642534       -3.0011546635  WZ2       2938            0.0000000000
     11339      3780  TIP3      H1            -27.7005103985       21.6155042534       -3.1127046635  WZ2       2938            0.0000000000
     11340      3780  TIP3      H2            -27.0350103985       22.9715142534       -3.0116146635  WZ2       2938            0.0000000000
     11341      3781  TIP3      OH2           -26.5759203985       25.3350842534       -4.9238846635  WZ2       2939            0.0000000000
     11342      3781  TIP3      H1            -26.8574203985       26.0445442534       -5.5015046635  WZ2       2939            0.0000000000
     11343      3781  TIP3      H2            -25.6334903985       25.2623842534       -5.0747646635  WZ2       2939            0.0000000000
     11344      3782  TIP3      OH2           -29.1048403985       20.1972242534       -5.1986546635  WZ2       2943            0.0000000000
     11345      3782  TIP3      H1            -30.0523003985       20.2291942534       -5.0663246635  WZ2       2943            0.0000000000
     11346      3782  TIP3      H2            -28.7921703985       19.5719342534       -4.5448346635  WZ2       2943            0.0000000000
     11347      3783  TIP3      OH2           -27.4706903985       18.8313342534       -3.1934646635  WZ2       2944            0.0000000000
     11348      3783  TIP3      H1            -27.5675103985       17.8790642534       -3.1992746635  WZ2       2944            0.0000000000
     11349      3783  TIP3      H2            -27.7923803985       19.1000142534       -2.3329146635  WZ2       2944            0.0000000000
     11350      3784  TIP3      OH2           -32.8627403985       16.0420742534       -5.1665646635  WZ2       2946            0.0000000000
     11351      3784  TIP3      H1            -32.1509003985       15.4022942534       -5.1806546635  WZ2       2946            0.0000000000
     11352      3784  TIP3      H2            -32.9637003985       16.3089042534       -6.0802546635  WZ2       2946            0.0000000000
     11353      3785  TIP3      OH2           -32.5089903985       17.7249142534       -3.1129346635  WZ2       2947            0.0000000000
     11354      3785  TIP3      H1            -32.6407703985       17.2492942534       -3.9330846635  WZ2       2947            0.0000000000
     11355      3785  TIP3      H2            -33.1082503985       18.4692742534       -3.1682246635  WZ2       2947            0.0000000000
     11356      3786  TIP3      OH2           -22.3268103985       33.5275142534      -10.5912346635  WZ2       2952            0.0000000000
     11357      3786  TIP3      H1            -22.3481403985       33.7123542534       -9.6522946635  WZ2       2952            0.0000000000
     11358      3786  TIP3      H2            -21.6361903985       34.0959142534      -10.9320946635  WZ2       2952            0.0000000000
     11359      3787  TIP3      OH2           -22.7635203985       33.0946242534       -7.6693246635  WZ2       2953            0.0000000000
     11360      3787  TIP3      H1            -23.2506503985       32.3590342534       -8.0405846635  WZ2       2953            0.0000000000
     11361      3787  TIP3      H2            -22.2142503985       32.7010142534       -6.9913846635  WZ2       2953            0.0000000000
     11362      3788  TIP3      OH2           -24.3127903985       28.8844342534       -3.0312946635  WZ2       2954            0.0000000000
     11363      3788  TIP3      H1            -25.1786803985       28.7794042534       -2.6370646635  WZ2       2954            0.0000000000
     11364      3788  TIP3      H2            -23.9362003985       29.6427642534       -2.5848246635  WZ2       2954            0.0000000000
     11365      3789  TIP3      OH2           -23.0118203985       27.1408042534      -17.5170446635  WZ2       2955            0.0000000000
     11366      3789  TIP3      H1            -22.1616803985       27.5618942534      -17.3898846635  WZ2       2955            0.0000000000
     11367      3789  TIP3      H2            -23.0063103985       26.4008142534      -16.9099046635  WZ2       2955            0.0000000000
     11368      3790  TIP3      OH2           -22.6172603985       25.1945442534      -15.6934746635  WZ2       2956            0.0000000000
     11369      3790  TIP3      H1            -23.3438003985       24.7148042534      -15.2957146635  WZ2       2956            0.0000000000
     11370      3790  TIP3      H2            -22.0359303985       25.4000142534      -14.9613146635  WZ2       2956            0.0000000000
     11371      3791  TIP3      OH2           -22.8581403985       27.9792942534      -10.7457146635  WZ2       2957            0.0000000000
     11372      3791  TIP3      H1            -22.0247203985       27.6012942534      -11.0263546635  WZ2       2957            0.0000000000
     11373      3791  TIP3      H2            -22.7461103985       28.9224142534      -10.8648046635  WZ2       2957            0.0000000000
     11374      3792  TIP3      OH2           -24.3719103985       30.8570442534       -8.4388746635  WZ2       2958            0.0000000000
     11375      3792  TIP3      H1            -25.0193803985       31.1821942534       -7.8133546635  WZ2       2958            0.0000000000
     11376      3792  TIP3      H2            -24.8895103985       30.4168142534       -9.1130446635  WZ2       2958            0.0000000000
     11377      3793  TIP3      OH2           -22.3489503985       25.0953942534      -19.3023446635  WZ2       2959            0.0000000000
     11378      3793  TIP3      H1            -22.8708403985       25.4518042534      -20.0212546635  WZ2       2959            0.0000000000
     11379      3793  TIP3      H2            -22.3820303985       25.7701742534      -18.6242546635  WZ2       2959            0.0000000000
     11380      3794  TIP3      OH2           -24.0000503985       22.3349542534      -20.7516346635  WZ2       2960            0.0000000000
     11381      3794  TIP3      H1            -23.9036103985       23.0016542534      -21.4316646635  WZ2       2960            0.0000000000
     11382      3794  TIP3      H2            -24.1400903985       21.5195842534      -21.2330846635  WZ2       2960            0.0000000000
     11383      3795  TIP3      OH2           -24.8305803985       23.7151942534      -15.1306046635  WZ2       2961            0.0000000000
     11384      3795  TIP3      H1            -24.9807003985       22.7700542534      -15.1508246635  WZ2       2961            0.0000000000
     11385      3795  TIP3      H2            -25.1841303985       23.9963342534      -14.2866946635  WZ2       2961            0.0000000000
     11386      3796  TIP3      OH2           -23.9742903985       25.6855242534       -5.4917746635  WZ2       2963            0.0000000000
     11387      3796  TIP3      H1            -23.3915603985       24.9507542534       -5.3000546635  WZ2       2963            0.0000000000
     11388      3796  TIP3      H2            -23.4103603985       26.4575542534       -5.4451946635  WZ2       2963            0.0000000000
     11389      3797  TIP3      OH2           -22.4775803985       23.5881042534       -4.8072346635  WZ2       2964            0.0000000000
     11390      3797  TIP3      H1            -23.3409103985       23.2093142534       -4.9727646635  WZ2       2964            0.0000000000
     11391      3797  TIP3      H2            -21.8732103985       22.8495842534       -4.8816546635  WZ2       2964            0.0000000000
     11392      3798  TIP3      OH2           -24.7526703985       19.7429342534      -21.6340846635  WZ2       2965            0.0000000000
     11393      3798  TIP3      H1            -24.1420903985       19.3716142534      -20.9972646635  WZ2       2965            0.0000000000
     11394      3798  TIP3      H2            -25.5895203985       19.3216242534      -21.4380846635  WZ2       2965            0.0000000000
     11395      3799  TIP3      OH2           -25.1201003985       21.2977742534      -16.6680946635  WZ2       2966            0.0000000000
     11396      3799  TIP3      H1            -24.8403903985       20.3908142534      -16.5439246635  WZ2       2966            0.0000000000
     11397      3799  TIP3      H2            -24.3609303985       21.7319242534      -17.0571746635  WZ2       2966            0.0000000000
     11398      3800  TIP3      OH2           -24.5082703985       21.8795142534      -11.2322046635  WZ2       2967            0.0000000000
     11399      3800  TIP3      H1            -23.5754703985       22.0915042534      -11.2666046635  WZ2       2967            0.0000000000
     11400      3800  TIP3      H2            -24.7435203985       21.9807242534      -10.3099046635  WZ2       2967            0.0000000000
     11401      3801  TIP3      OH2           -24.4790803985       22.6160442534       -8.4562646635  WZ2       2968            0.0000000000
     11402      3801  TIP3      H1            -25.3219503985       22.8840842534       -8.0902846635  WZ2       2968            0.0000000000
     11403      3801  TIP3      H2            -24.0366503985       23.4382342534       -8.6671546635  WZ2       2968            0.0000000000
     11404      3802  TIP3      OH2           -22.1959203985       16.5960642534       -3.1027646635  WZ2       2970            0.0000000000
     11405      3802  TIP3      H1            -21.8462203985       15.9424142534       -3.7082946635  WZ2       2970            0.0000000000
     11406      3802  TIP3      H2            -22.0489703985       17.4334742534       -3.5425046635  WZ2       2970            0.0000000000
     11407      3803  TIP3      OH2           -24.5066203985       18.5607042534      -16.6198946635  WZ2       2971            0.0000000000
     11408      3803  TIP3      H1            -24.3241203985       18.1118542534      -15.7943946635  WZ2       2971            0.0000000000
     11409      3803  TIP3      H2            -25.1063303985       17.9761442534      -17.0834346635  WZ2       2971            0.0000000000
     11410      3804  TIP3      OH2           -22.6762003985       18.7055242534       -4.7536346635  WZ2       2974            0.0000000000
     11411      3804  TIP3      H1            -23.5936303985       18.9762342534       -4.7892846635  WZ2       2974            0.0000000000
     11412      3804  TIP3      H2            -22.5532603985       18.1703642534       -5.5376646635  WZ2       2974            0.0000000000
     11413      3805  TIP3      OH2           -22.6400003985       18.6285142534      -20.0918646635  WZ2       2975            0.0000000000
     11414      3805  TIP3      H1            -22.2277403985       17.9070842534      -20.5670646635  WZ2       2975            0.0000000000
     11415      3805  TIP3      H2            -21.9583503985       19.2979742534      -20.0334346635  WZ2       2975            0.0000000000
     11416      3806  TIP3      OH2           -25.5882103985       33.6174542534      -15.0190546635  WZ2       2977            0.0000000000
     11417      3806  TIP3      H1            -24.9359203985       33.2696642534      -15.6271446635  WZ2       2977            0.0000000000
     11418      3806  TIP3      H2            -25.0778303985       34.1057742534      -14.3730846635  WZ2       2977            0.0000000000
     11419      3807  TIP3      OH2           -23.6756103985       16.7951542534       -6.9345546635  WZ2       2983            0.0000000000
     11420      3807  TIP3      H1            -24.4882603985       17.1201842534       -7.3220846635  WZ2       2983            0.0000000000
     11421      3807  TIP3      H2            -23.4427603985       16.0350042534       -7.4676446635  WZ2       2983            0.0000000000
     11422      3808  TIP3      OH2           -25.7378603985       34.7132542534       -8.7249046635  WZ2       2988            0.0000000000
     11423      3808  TIP3      H1            -25.9196603985       35.6291442534       -8.9354146635  WZ2       2988            0.0000000000
     11424      3808  TIP3      H2            -25.5610803985       34.3029642534       -9.5714446635  WZ2       2988            0.0000000000
     11425      3809  TIP3      OH2           -30.2457603985       18.2442142534      -12.6117346635  WZ2       2992            0.0000000000
     11426      3809  TIP3      H1            -30.9200803985       17.6147742534      -12.3561546635  WZ2       2992            0.0000000000
     11427      3809  TIP3      H2            -29.6818403985       17.7601042534      -13.2149446635  WZ2       2992            0.0000000000
     11428      3810  TIP3      OH2           -25.1030403985       16.3516142534      -12.4990246635  WZ2       2993            0.0000000000
     11429      3810  TIP3      H1            -24.4992803985       16.8991542534      -13.0009246635  WZ2       2993            0.0000000000
     11430      3810  TIP3      H2            -25.9728403985       16.6706542534      -12.7396146635  WZ2       2993            0.0000000000
     11431      3811  TIP3      OH2           -23.3760003985       17.4904842534      -14.1659346635  WZ2       2994            0.0000000000
     11432      3811  TIP3      H1            -22.7642503985       16.9760542534      -14.6925746635  WZ2       2994            0.0000000000
     11433      3811  TIP3      H2            -22.9936603985       18.3676942534      -14.1424946635  WZ2       2994            0.0000000000
     11434      3812  TIP3      OH2           -33.3397503985       16.8049542534      -14.9764346635  WZ2       2997            0.0000000000
     11435      3812  TIP3      H1            -32.4654103985       17.1933842534      -15.0060046635  WZ2       2997            0.0000000000
     11436      3812  TIP3      H2            -33.4756703985       16.5897342534      -14.0537146635  WZ2       2997            0.0000000000
     11437      3813  TIP3      OH2           -27.7829103985       16.8349342534      -13.3272646635  WZ2       2998            0.0000000000
     11438      3813  TIP3      H1            -27.7067503985       16.9300942534      -14.2766646635  WZ2       2998            0.0000000000
     11439      3813  TIP3      H2            -28.0579903985       15.9272242534      -13.1983546635  WZ2       2998            0.0000000000
     11440      3814  TIP3      OH2           -26.4296503985       16.8607142534      -17.6347646635  WZ2       2999            0.0000000000
     11441      3814  TIP3      H1            -27.1325403985       17.4756342534      -17.8446246635  WZ2       2999            0.0000000000
     11442      3814  TIP3      H2            -26.8745103985       16.0233842534      -17.5036746635  WZ2       2999            0.0000000000
     11443      3815  TIP3      OH2           -32.1957503985       18.8853542534      -18.0866746635  WZ2       3002            0.0000000000
     11444      3815  TIP3      H1            -32.0176203985       18.2386742534      -17.4038146635  WZ2       3002            0.0000000000
     11445      3815  TIP3      H2            -32.2491303985       19.7191242534      -17.6195646635  WZ2       3002            0.0000000000
     11446      3816  TIP3      OH2           -23.6084103985       33.3967942534      -17.0118946635  WZ2       3004            0.0000000000
     11447      3816  TIP3      H1            -23.8027003985       32.6490042534      -17.5769346635  WZ2       3004            0.0000000000
     11448      3816  TIP3      H2            -23.6474003985       34.1548042534      -17.5951046635  WZ2       3004            0.0000000000
     11449      3817  TIP3      OH2           -27.5669003985       16.0754042534       -3.5541346635  WZ2       3008            0.0000000000
     11450      3817  TIP3      H1            -27.4901803985       15.6494742534       -2.7003646635  WZ2       3008            0.0000000000
     11451      3817  TIP3      H2            -26.6732403985       16.0888742534       -3.8967846635  WZ2       3008            0.0000000000
     11452      3818  TIP3      OH2           -24.3907903985       32.1480342534       -4.8617146635  WZ2       3009            0.0000000000
     11453      3818  TIP3      H1            -25.1726003985       31.9618342534       -5.3816546635  WZ2       3009            0.0000000000
     11454      3818  TIP3      H2            -24.4628003985       33.0774642534       -4.6444646635  WZ2       3009            0.0000000000
     11455      3819  TIP3      OH2            -9.9847503985       26.0344742534      -14.8309946635  WZ2       3010            0.0000000000
     11456      3819  TIP3      H1             -9.8956403985       26.9782942534      -14.9632846635  WZ2       3010            0.0000000000
     11457      3819  TIP3      H2            -10.6229903985       25.7591142534      -15.4890546635  WZ2       3010            0.0000000000
     11458      3820  TIP3      OH2           -11.0516203985       25.2895442534      -11.4121746635  WZ2       3011            0.0000000000
     11459      3820  TIP3      H1            -11.0898703985       24.6431742534      -10.7072146635  WZ2       3011            0.0000000000
     11460      3820  TIP3      H2            -11.3739703985       24.8229842534      -12.1833046635  WZ2       3011            0.0000000000
     11461      3821  TIP3      OH2           -18.6831203985       24.9037542534       -9.8191846635  WZ2       3012            0.0000000000
     11462      3821  TIP3      H1            -18.6419103985       24.2780842534       -9.0959446635  WZ2       3012            0.0000000000
     11463      3821  TIP3      H2            -17.9803503985       25.5276142534       -9.6371446635  WZ2       3012            0.0000000000
     11464      3822  TIP3      OH2            -7.3456003985       28.2285842534      -13.1106646635  WZ2       3013            0.0000000000
     11465      3822  TIP3      H1             -7.7863303985       27.5081842534      -12.6601046635  WZ2       3013            0.0000000000
     11466      3822  TIP3      H2             -7.3586303985       28.9493042534      -12.4808946635  WZ2       3013            0.0000000000
     11467      3823  TIP3      OH2           -17.7598103985       29.3536442534      -11.2842746635  WZ2       3014            0.0000000000
     11468      3823  TIP3      H1            -18.1292903985       28.5516942534      -11.6538446635  WZ2       3014            0.0000000000
     11469      3823  TIP3      H2            -16.8187003985       29.1851342534      -11.2379346635  WZ2       3014            0.0000000000
     11470      3824  TIP3      OH2           -21.1497603985       23.0139042534      -15.8913946635  WZ2       3015            0.0000000000
     11471      3824  TIP3      H1            -21.5974203985       23.8597742534      -15.9097446635  WZ2       3015            0.0000000000
     11472      3824  TIP3      H2            -21.7106403985       22.4343242534      -16.4068846635  WZ2       3015            0.0000000000
     11473      3825  TIP3      OH2           -20.4391503985       25.1758642534      -13.7655946635  WZ2       3016            0.0000000000
     11474      3825  TIP3      H1            -20.2258003985       24.4060242534      -13.2382946635  WZ2       3016            0.0000000000
     11475      3825  TIP3      H2            -19.7013903985       25.2655342534      -14.3688346635  WZ2       3016            0.0000000000
     11476      3826  TIP3      OH2           -10.2340503985       33.3327542534      -12.8986246635  WZ2       3017            0.0000000000
     11477      3826  TIP3      H1             -9.6144103985       32.6562242534      -13.1717046635  WZ2       3017            0.0000000000
     11478      3826  TIP3      H2            -10.4423103985       33.1148342534      -11.9901346635  WZ2       3017            0.0000000000
     11479      3827  TIP3      OH2           -12.6621803985       27.7216842534      -11.0060746635  WZ2       3018            0.0000000000
     11480      3827  TIP3      H1            -12.3583903985       27.0358242534      -11.6006646635  WZ2       3018            0.0000000000
     11481      3827  TIP3      H2            -11.9407803985       27.8405542534      -10.3882746635  WZ2       3018            0.0000000000
     11482      3828  TIP3      OH2            -3.9992003985       19.3232142534      -10.1454546635  WZ2       3019            0.0000000000
     11483      3828  TIP3      H1             -3.9499803985       19.9333342534       -9.4095446635  WZ2       3019            0.0000000000
     11484      3828  TIP3      H2             -3.5736903985       19.7843042534      -10.8683446635  WZ2       3019            0.0000000000
     11485      3829  TIP3      OH2            -9.5214803985       22.1159242534      -10.6785946635  WZ2       3020            0.0000000000
     11486      3829  TIP3      H1             -9.3788903985       21.1696242534      -10.6584346635  WZ2       3020            0.0000000000
     11487      3829  TIP3      H2             -9.6275803985       22.3229042534      -11.6071046635  WZ2       3020            0.0000000000
     11488      3830  TIP3      OH2           -16.3666503985       20.2175642534      -13.4061146635  WZ2       3021            0.0000000000
     11489      3830  TIP3      H1            -16.3235403985       21.0774142534      -13.8244846635  WZ2       3021            0.0000000000
     11490      3830  TIP3      H2            -16.8242403985       19.6650342534      -14.0397946635  WZ2       3021            0.0000000000
     11491      3831  TIP3      OH2            -8.6443803985       20.3481242534      -15.0052846635  WZ2       3022            0.0000000000
     11492      3831  TIP3      H1             -7.9979503985       20.0194442534      -14.3805246635  WZ2       3022            0.0000000000
     11493      3831  TIP3      H2             -8.1344403985       20.8660242534      -15.6281446635  WZ2       3022            0.0000000000
     11494      3832  TIP3      OH2           -19.7465003985       22.6141442534      -12.6439746635  WZ2       3023            0.0000000000
     11495      3832  TIP3      H1            -19.0928403985       22.0643142534      -12.2119646635  WZ2       3023            0.0000000000
     11496      3832  TIP3      H2            -19.7225703985       22.3400442534      -13.5607746635  WZ2       3023            0.0000000000
     11497      3833  TIP3      OH2           -14.5900503985       24.1642742534      -13.4288246635  WZ2       3024            0.0000000000
     11498      3833  TIP3      H1            -13.9739503985       23.6378142534      -12.9194246635  WZ2       3024            0.0000000000
     11499      3833  TIP3      H2            -15.1761703985       23.5241442534      -13.8324646635  WZ2       3024            0.0000000000
     11500      3834  TIP3      OH2            -3.6077403985       20.8011342534       -7.9094746635  WZ2       3025            0.0000000000
     11501      3834  TIP3      H1             -4.2962803985       21.4592042534       -8.0048146635  WZ2       3025            0.0000000000
     11502      3834  TIP3      H2             -3.5922803985       20.6039242534       -6.9729346635  WZ2       3025            0.0000000000
     11503      3835  TIP3      OH2           -17.5564603985       19.1354042534       -9.3320346635  WZ2       3026            0.0000000000
     11504      3835  TIP3      H1            -17.7752903985       19.6654642534      -10.0984346635  WZ2       3026            0.0000000000
     11505      3835  TIP3      H2            -18.2243703985       19.3619542534       -8.6848946635  WZ2       3026            0.0000000000
     11506      3836  TIP3      OH2           -10.1874803985       28.6355142534      -15.7881246635  WZ2       3027            0.0000000000
     11507      3836  TIP3      H1            -10.4829703985       28.3127442534      -16.6394346635  WZ2       3027            0.0000000000
     11508      3836  TIP3      H2            -10.5117003985       29.5351842534      -15.7468646635  WZ2       3027            0.0000000000
     11509      3837  TIP3      OH2           -14.9873203985       26.8109742534       -9.0446646635  WZ2       3028            0.0000000000
     11510      3837  TIP3      H1            -15.7274103985       27.4091242534       -8.9411446635  WZ2       3028            0.0000000000
     11511      3837  TIP3      H2            -14.2733703985       27.3649342534       -9.3603046635  WZ2       3028            0.0000000000
     11512      3838  TIP3      OH2            -6.8805403985       19.6390542534      -13.0246946635  WZ2       3029            0.0000000000
     11513      3838  TIP3      H1             -7.0957403985       18.8733942534      -12.4920946635  WZ2       3029            0.0000000000
     11514      3838  TIP3      H2             -6.2248003985       20.1115142534      -12.5118446635  WZ2       3029            0.0000000000
     11515      3839  TIP3      OH2           -17.9627303985       21.0275842534      -11.3798146635  WZ2       3030            0.0000000000
     11516      3839  TIP3      H1            -17.3491003985       21.6603442534      -11.0065746635  WZ2       3030            0.0000000000
     11517      3839  TIP3      H2            -17.4506603985       20.5550842534      -12.0361246635  WZ2       3030            0.0000000000
     11518      3840  TIP3      OH2           -16.5798903985       28.7752742534       -8.2575146635  WZ2       3031            0.0000000000
     11519      3840  TIP3      H1            -16.5851303985       29.6546242534       -8.6355846635  WZ2       3031            0.0000000000
     11520      3840  TIP3      H2            -17.4334803985       28.6916842534       -7.8325246635  WZ2       3031            0.0000000000
     11521      3841  TIP3      OH2           -20.4588003985       28.4460642534      -17.4755846635  WZ2       3032            0.0000000000
     11522      3841  TIP3      H1            -20.7307103985       28.6751642534      -18.3642946635  WZ2       3032            0.0000000000
     11523      3841  TIP3      H2            -20.4132303985       29.2839442534      -17.0150546635  WZ2       3032            0.0000000000
     11524      3842  TIP3      OH2            -6.8338303985       30.0676542534      -10.7627346635  WZ2       3033            0.0000000000
     11525      3842  TIP3      H1             -7.7754603985       30.1260442534      -10.6010446635  WZ2       3033            0.0000000000
     11526      3842  TIP3      H2             -6.5572203985       30.9737042534      -10.8997646635  WZ2       3033            0.0000000000
     11527      3843  TIP3      OH2            -6.5331303985       18.3541842534       -9.3453446635  WZ2       3034            0.0000000000
     11528      3843  TIP3      H1             -7.2692103985       18.9648942534       -9.3832146635  WZ2       3034            0.0000000000
     11529      3843  TIP3      H2             -5.8497303985       18.7690842534       -9.8717046635  WZ2       3034            0.0000000000
     11530      3844  TIP3      OH2           -13.5299903985       16.4409142534      -11.8795446635  WZ2       3035            0.0000000000
     11531      3844  TIP3      H1            -13.6475703985       15.4925142534      -11.9337146635  WZ2       3035            0.0000000000
     11532      3844  TIP3      H2            -14.3849803985       16.7735242534      -11.6064346635  WZ2       3035            0.0000000000
     11533      3845  TIP3      OH2            -8.5817103985       31.8490042534      -14.1375746635  WZ2       3036            0.0000000000
     11534      3845  TIP3      H1             -8.1564803985       31.1417942534      -14.6226146635  WZ2       3036            0.0000000000
     11535      3845  TIP3      H2             -8.2647103985       32.6502742534      -14.5543546635  WZ2       3036            0.0000000000
     11536      3846  TIP3      OH2            -7.4220603985       29.7498542534      -15.6289146635  WZ2       3037            0.0000000000
     11537      3846  TIP3      H1             -7.6795803985       29.0598642534      -16.2403246635  WZ2       3037            0.0000000000
     11538      3846  TIP3      H2             -7.3509803985       29.3069742534      -14.7833246635  WZ2       3037            0.0000000000
     11539      3847  TIP3      OH2            -5.7360403985       28.3165242534       -7.1515646635  WZ2       3038            0.0000000000
     11540      3847  TIP3      H1             -5.5964103985       27.7247742534       -7.8908646635  WZ2       3038            0.0000000000
     11541      3847  TIP3      H2             -5.5687603985       29.1891142534       -7.5076846635  WZ2       3038            0.0000000000
     11542      3848  TIP3      OH2           -11.2635003985       25.2784742534      -17.3789646635  WZ2       3039            0.0000000000
     11543      3848  TIP3      H1            -11.9749503985       25.8134442534      -17.7309146635  WZ2       3039            0.0000000000
     11544      3848  TIP3      H2            -10.5725403985       25.3336842534      -18.0390746635  WZ2       3039            0.0000000000
     11545      3849  TIP3      OH2           -11.2095803985       23.7359042534      -20.3404646635  WZ2       3040            0.0000000000
     11546      3849  TIP3      H1            -10.5085903985       23.7585942534      -19.6890646635  WZ2       3040            0.0000000000
     11547      3849  TIP3      H2            -10.9072903985       23.1078742534      -20.9965346635  WZ2       3040            0.0000000000
     11548      3850  TIP3      OH2            -3.8941103985       24.6563242534       -9.0855246635  WZ2       3041            0.0000000000
     11549      3850  TIP3      H1             -4.5467003985       25.3508842534       -8.9964346635  WZ2       3041            0.0000000000
     11550      3850  TIP3      H2             -3.4290803985       24.8664142534       -9.8953646635  WZ2       3041            0.0000000000
     11551      3851  TIP3      OH2            -7.8577303985       25.4878042534      -16.4273746635  WZ2       3042            0.0000000000
     11552      3851  TIP3      H1             -8.5896303985       25.7161742534      -15.8543146635  WZ2       3042            0.0000000000
     11553      3851  TIP3      H2             -7.4105103985       24.7740742534      -15.9726246635  WZ2       3042            0.0000000000
     11554      3852  TIP3      OH2            -7.9603803985       23.6620642534       -7.3596746635  WZ2       3043            0.0000000000
     11555      3852  TIP3      H1             -7.8804703985       24.4255042534       -6.7878246635  WZ2       3043            0.0000000000
     11556      3852  TIP3      H2             -8.5616103985       23.9413042534       -8.0501646635  WZ2       3043            0.0000000000
     11557      3853  TIP3      OH2           -16.2123603985       26.1184242534      -14.5448746635  WZ2       3044            0.0000000000
     11558      3853  TIP3      H1            -16.5428403985       25.7477642534      -15.3631746635  WZ2       3044            0.0000000000
     11559      3853  TIP3      H2            -15.6239503985       25.4478242534      -14.1980446635  WZ2       3044            0.0000000000
     11560      3854  TIP3      OH2           -14.8456103985       29.5464842534      -11.8636546635  WZ2       3045            0.0000000000
     11561      3854  TIP3      H1            -14.9404803985       28.9677942534      -12.6201946635  WZ2       3045            0.0000000000
     11562      3854  TIP3      H2            -14.1162503985       29.1750542534      -11.3673746635  WZ2       3045            0.0000000000
     11563      3855  TIP3      OH2           -15.8458103985       24.8869842534      -10.9113746635  WZ2       3046            0.0000000000
     11564      3855  TIP3      H1            -15.2805603985       25.0084042534      -11.6742546635  WZ2       3046            0.0000000000
     11565      3855  TIP3      H2            -15.5269203985       25.5244842534      -10.2725246635  WZ2       3046            0.0000000000
     11566      3856  TIP3      OH2            -9.5365903985       30.3901742534      -10.1773246635  WZ2       3047            0.0000000000
     11567      3856  TIP3      H1             -9.7769303985       31.0524842534       -9.5294046635  WZ2       3047            0.0000000000
     11568      3856  TIP3      H2             -9.7347703985       29.5556942534       -9.7523646635  WZ2       3047            0.0000000000
     11569      3857  TIP3      OH2           -14.9657403985       29.2862542534       -6.1941846635  WZ2       3048            0.0000000000
     11570      3857  TIP3      H1            -15.2769903985       30.0685742534       -5.7388646635  WZ2       3048            0.0000000000
     11571      3857  TIP3      H2            -15.6157203985       29.1331642534       -6.8799846635  WZ2       3048            0.0000000000
     11572      3858  TIP3      OH2            -8.9867803985       24.6500942534      -18.7422546635  WZ2       3049            0.0000000000
     11573      3858  TIP3      H1             -8.4072303985       24.8001242534      -17.9953646635  WZ2       3049            0.0000000000
     11574      3858  TIP3      H2             -8.5727803985       25.1208342534      -19.4656146635  WZ2       3049            0.0000000000
     11575      3859  TIP3      OH2           -18.0457503985       25.4843642534       -6.9656146635  WZ2       3050            0.0000000000
     11576      3859  TIP3      H1            -17.9754303985       26.1350442534       -6.2671146635  WZ2       3050            0.0000000000
     11577      3859  TIP3      H2            -18.9365303985       25.5871142534       -7.3005246635  WZ2       3050            0.0000000000
     11578      3860  TIP3      OH2           -11.2602903985       31.3869442534      -15.3069446635  WZ2       3051            0.0000000000
     11579      3860  TIP3      H1            -10.7865303985       31.6825742534      -14.5295246635  WZ2       3051            0.0000000000
     11580      3860  TIP3      H2            -11.8233603985       32.1251042534      -15.5399846635  WZ2       3051            0.0000000000
     11581      3861  TIP3      OH2           -16.7261503985       31.3577542534       -5.4308046635  WZ2       3052            0.0000000000
     11582      3861  TIP3      H1            -16.7186203985       31.2217242534       -6.3782546635  WZ2       3052            0.0000000000
     11583      3861  TIP3      H2            -17.6421103985       31.2405642534       -5.1788046635  WZ2       3052            0.0000000000
     11584      3862  TIP3      OH2            -5.2879403985       16.4001342534      -18.9292846635  WZ2       3053            0.0000000000
     11585      3862  TIP3      H1             -6.1878703985       16.5390342534      -18.6342246635  WZ2       3053            0.0000000000
     11586      3862  TIP3      H2             -5.0361003985       17.2315942534      -19.3311146635  WZ2       3053            0.0000000000
     11587      3863  TIP3      OH2           -17.2220903985       25.1878542534      -16.9555946635  WZ2       3054            0.0000000000
     11588      3863  TIP3      H1            -17.5139603985       25.9560242534      -17.4464646635  WZ2       3054            0.0000000000
     11589      3863  TIP3      H2            -17.8965703985       24.5284742534      -17.1184546635  WZ2       3054            0.0000000000
     11590      3864  TIP3      OH2            -4.0988003985       30.7663742534      -20.5528946635  WZ2       3055            0.0000000000
     11591      3864  TIP3      H1             -4.0254503985       31.7053942534      -20.3823646635  WZ2       3055            0.0000000000
     11592      3864  TIP3      H2             -3.1932903985       30.4612342534      -20.6091646635  WZ2       3055            0.0000000000
     11593      3865  TIP3      OH2           -21.1290803985       27.5507742534       -8.1406146635  WZ2       3056            0.0000000000
     11594      3865  TIP3      H1            -21.6302403985       27.5227142534       -8.9556446635  WZ2       3056            0.0000000000
     11595      3865  TIP3      H2            -21.1237103985       26.6450942534       -7.8308846635  WZ2       3056            0.0000000000
     11596      3866  TIP3      OH2           -21.3788103985       30.3311542534      -11.2565946635  WZ2       3057            0.0000000000
     11597      3866  TIP3      H1            -20.4327503985       30.1868542534      -11.2756446635  WZ2       3057            0.0000000000
     11598      3866  TIP3      H2            -21.4911803985       31.1154342534      -10.7194746635  WZ2       3057            0.0000000000
     11599      3867  TIP3      OH2            -3.1809603985       30.9971242534       -5.5742246635  WZ2       3058            0.0000000000
     11600      3867  TIP3      H1             -3.2302803985       30.0419342534       -5.6114646635  WZ2       3058            0.0000000000
     11601      3867  TIP3      H2             -4.0077303985       31.2646542534       -5.1728446635  WZ2       3058            0.0000000000
     11602      3868  TIP3      OH2           -12.2025603985       30.5710442534       -6.6980846635  WZ2       3059            0.0000000000
     11603      3868  TIP3      H1            -12.1151003985       31.3975042534       -6.2231746635  WZ2       3059            0.0000000000
     11604      3868  TIP3      H2            -13.0660503985       30.2414242534       -6.4491546635  WZ2       3059            0.0000000000
     11605      3869  TIP3      OH2           -11.7879803985       34.3434142534      -16.8920246635  WZ2       3060            0.0000000000
     11606      3869  TIP3      H1            -11.8633803985       34.2221342534      -17.8385046635  WZ2       3060            0.0000000000
     11607      3869  TIP3      H2            -11.7551103985       35.2926842534      -16.7735646635  WZ2       3060            0.0000000000
     11608      3870  TIP3      OH2           -18.1346003985       33.1321142534      -15.1111246635  WZ2       3061            0.0000000000
     11609      3870  TIP3      H1            -17.9825603985       32.7841542534      -14.2324746635  WZ2       3061            0.0000000000
     11610      3870  TIP3      H2            -18.9855603985       32.7758442534      -15.3664046635  WZ2       3061            0.0000000000
     11611      3871  TIP3      OH2            -8.6863803985       33.4974342534      -19.8897846635  WZ2       3062            0.0000000000
     11612      3871  TIP3      H1             -8.3115403985       32.7530442534      -20.3605246635  WZ2       3062            0.0000000000
     11613      3871  TIP3      H2             -8.6820103985       33.2274942534      -18.9714546635  WZ2       3062            0.0000000000
     11614      3872  TIP3      OH2            -9.0175703985       33.4231442534      -17.1405646635  WZ2       3063            0.0000000000
     11615      3872  TIP3      H1             -9.9525903985       33.5233342534      -16.9618646635  WZ2       3063            0.0000000000
     11616      3872  TIP3      H2             -8.7373803985       32.7137442534      -16.5622446635  WZ2       3063            0.0000000000
     11617      3873  TIP3      OH2            -6.0289803985       22.4903742534       -5.0940046635  WZ2       3064            0.0000000000
     11618      3873  TIP3      H1             -6.4363003985       22.9709342534       -5.8146746635  WZ2       3064            0.0000000000
     11619      3873  TIP3      H2             -5.9884103985       21.5849742534       -5.4019246635  WZ2       3064            0.0000000000
     11620      3874  TIP3      OH2           -18.8800303985       28.8743142534       -7.0973346635  WZ2       3065            0.0000000000
     11621      3874  TIP3      H1            -18.6639003985       28.5128742534       -6.2377546635  WZ2       3065            0.0000000000
     11622      3874  TIP3      H2            -19.7355603985       28.4996942534       -7.3069846635  WZ2       3065            0.0000000000
     11623      3875  TIP3      OH2           -16.2612303985       17.3443642534      -11.1019146635  WZ2       3066            0.0000000000
     11624      3875  TIP3      H1            -17.1228603985       17.2571842534      -11.5096246635  WZ2       3066            0.0000000000
     11625      3875  TIP3      H2            -16.2836603985       18.2003742534      -10.6741546635  WZ2       3066            0.0000000000
     11626      3876  TIP3      OH2           -11.5984503985       17.0664042534       -7.7272146635  WZ2       3067            0.0000000000
     11627      3876  TIP3      H1            -11.1781403985       16.6511142534       -6.9741546635  WZ2       3067            0.0000000000
     11628      3876  TIP3      H2            -12.5314903985       16.8877342534       -7.6100146635  WZ2       3067            0.0000000000
     11629      3877  TIP3      OH2            -8.2719603985       20.8219242534       -6.8737646635  WZ2       3068            0.0000000000
     11630      3877  TIP3      H1             -8.7860103985       20.6961442534       -6.0761646635  WZ2       3068            0.0000000000
     11631      3877  TIP3      H2             -8.4274903985       21.7342342534       -7.1181446635  WZ2       3068            0.0000000000
     11632      3878  TIP3      OH2            -7.5094703985       25.6829242534      -21.1124646635  WZ2       3069            0.0000000000
     11633      3878  TIP3      H1             -7.4673903985       25.4603142534      -22.0424646635  WZ2       3069            0.0000000000
     11634      3878  TIP3      H2             -6.6602603985       26.0816342534      -20.9224746635  WZ2       3069            0.0000000000
     11635      3879  TIP3      OH2           -11.9367203985       19.5587442534      -20.4421346635  WZ2       3070            0.0000000000
     11636      3879  TIP3      H1            -12.1902403985       19.5779042534      -19.5193246635  WZ2       3070            0.0000000000
     11637      3879  TIP3      H2            -12.1935103985       18.6872842534      -20.7435146635  WZ2       3070            0.0000000000
     11638      3880  TIP3      OH2           -16.1702203985       22.3098142534      -10.0068946635  WZ2       3071            0.0000000000
     11639      3880  TIP3      H1            -16.8120103985       22.2695442534       -9.2978846635  WZ2       3071            0.0000000000
     11640      3880  TIP3      H2            -16.1330203985       23.2362842534      -10.2445946635  WZ2       3071            0.0000000000
     11641      3881  TIP3      OH2           -16.1733103985       22.5308242534      -15.0948946635  WZ2       3072            0.0000000000
     11642      3881  TIP3      H1            -17.0660203985       22.1904342534      -15.1535146635  WZ2       3072            0.0000000000
     11643      3881  TIP3      H2            -15.7226503985       22.1539142534      -15.8505746635  WZ2       3072            0.0000000000
     11644      3882  TIP3      OH2           -10.6377603985       22.9468542534      -16.2778146635  WZ2       3073            0.0000000000
     11645      3882  TIP3      H1            -11.0467303985       23.7617142534      -16.5693346635  WZ2       3073            0.0000000000
     11646      3882  TIP3      H2             -9.9171403985       22.8068642534      -16.8921046635  WZ2       3073            0.0000000000
     11647      3883  TIP3      OH2           -11.5356003985       23.1224942534       -4.7897446635  WZ2       3074            0.0000000000
     11648      3883  TIP3      H1            -12.0982203985       22.4176542534       -4.4689646635  WZ2       3074            0.0000000000
     11649      3883  TIP3      H2            -10.7092603985       23.0016842534       -4.3219846635  WZ2       3074            0.0000000000
     11650      3884  TIP3      OH2            -9.6329903985       22.3928942534      -13.4638446635  WZ2       3075            0.0000000000
     11651      3884  TIP3      H1             -9.8285403985       22.9985742534      -14.1787846635  WZ2       3075            0.0000000000
     11652      3884  TIP3      H2             -9.4517303985       21.5594142534      -13.8982146635  WZ2       3075            0.0000000000
     11653      3885  TIP3      OH2           -18.4201703985       22.6301642534       -8.1396946635  WZ2       3076            0.0000000000
     11654      3885  TIP3      H1            -18.4582303985       23.0303242534       -7.2709846635  WZ2       3076            0.0000000000
     11655      3885  TIP3      H2            -18.9110603985       21.8134042534       -8.0494046635  WZ2       3076            0.0000000000
     11656      3886  TIP3      OH2           -15.0544303985       20.0043942534      -21.3410946635  WZ2       3077            0.0000000000
     11657      3886  TIP3      H1            -15.4853603985       19.5594042534      -20.6113546635  WZ2       3077            0.0000000000
     11658      3886  TIP3      H2            -15.7725603985       20.3760242534      -21.8533446635  WZ2       3077            0.0000000000
     11659      3887  TIP3      OH2           -21.8120903985       19.7463442534      -14.2892246635  WZ2       3078            0.0000000000
     11660      3887  TIP3      H1            -21.1813203985       19.7175542534      -13.5698346635  WZ2       3078            0.0000000000
     11661      3887  TIP3      H2            -21.3626603985       19.3212142534      -15.0196346635  WZ2       3078            0.0000000000
     11662      3888  TIP3      OH2           -20.5378803985       20.4925442534      -18.8651846635  WZ2       3079            0.0000000000
     11663      3888  TIP3      H1            -20.0637103985       21.0835342534      -19.4500946635  WZ2       3079            0.0000000000
     11664      3888  TIP3      H2            -21.2552403985       21.0228342534      -18.5181746635  WZ2       3079            0.0000000000
     11665      3889  TIP3      OH2           -10.3690703985       24.0310242534       -8.7926046635  WZ2       3080            0.0000000000
     11666      3889  TIP3      H1            -10.0455903985       23.3999942534       -9.4355546635  WZ2       3080            0.0000000000
     11667      3889  TIP3      H2            -10.8091403985       23.4962442534       -8.1318646635  WZ2       3080            0.0000000000
     11668      3890  TIP3      OH2           -13.5917803985       19.9585742534      -14.0084846635  WZ2       3081            0.0000000000
     11669      3890  TIP3      H1            -14.5026703985       20.0152542534      -13.7198846635  WZ2       3081            0.0000000000
     11670      3890  TIP3      H2            -13.0864903985       19.8981242534      -13.1977646635  WZ2       3081            0.0000000000
     11671      3891  TIP3      OH2           -18.7634403985       21.5872042534      -15.1817246635  WZ2       3082            0.0000000000
     11672      3891  TIP3      H1            -19.6526403985       21.6867542534      -15.5217646635  WZ2       3082            0.0000000000
     11673      3891  TIP3      H2            -18.4669503985       20.7455042534      -15.5279346635  WZ2       3082            0.0000000000
     11674      3892  TIP3      OH2           -15.1102603985       21.5874642534      -17.5252646635  WZ2       3083            0.0000000000
     11675      3892  TIP3      H1            -14.1787103985       21.7164642534      -17.3469546635  WZ2       3083            0.0000000000
     11676      3892  TIP3      H2            -15.3252303985       22.2568942534      -18.1747946635  WZ2       3083            0.0000000000
     11677      3893  TIP3      OH2            -9.1865903985       19.1932042534      -10.7443046635  WZ2       3084            0.0000000000
     11678      3893  TIP3      H1             -9.8634303985       19.3245142534      -10.0803346635  WZ2       3084            0.0000000000
     11679      3893  TIP3      H2             -9.6721003985       19.0381542534      -11.5545346635  WZ2       3084            0.0000000000
     11680      3894  TIP3      OH2           -16.4362403985       22.7816842534      -19.9586546635  WZ2       3085            0.0000000000
     11681      3894  TIP3      H1            -16.9787303985       22.4020642534      -20.6498946635  WZ2       3085            0.0000000000
     11682      3894  TIP3      H2            -15.6027503985       22.9761542534      -20.3872446635  WZ2       3085            0.0000000000
     11683      3895  TIP3      OH2            -5.8990803985       34.8647442534       -4.4675446635  WZ2       3086            0.0000000000
     11684      3895  TIP3      H1             -5.6992103985       35.2889342534       -5.3020146635  WZ2       3086            0.0000000000
     11685      3895  TIP3      H2             -5.2437103985       35.2085642534       -3.8605046635  WZ2       3086            0.0000000000
     11686      3896  TIP3      OH2           -18.3011003985       27.3388742534       -4.8594946635  WZ2       3087            0.0000000000
     11687      3896  TIP3      H1            -17.5688603985       27.5934642534       -4.2980446635  WZ2       3087            0.0000000000
     11688      3896  TIP3      H2            -19.0812303985       27.5434142534       -4.3439546635  WZ2       3087            0.0000000000
     11689      3897  TIP3      OH2           -12.2718103985       22.7458742534      -12.1215246635  WZ2       3088            0.0000000000
     11690      3897  TIP3      H1            -11.7074703985       22.1995342534      -12.6685646635  WZ2       3088            0.0000000000
     11691      3897  TIP3      H2            -12.4194703985       22.2240642534      -11.3327646635  WZ2       3088            0.0000000000
     11692      3898  TIP3      OH2           -17.2698403985       18.8824842534      -15.7030446635  WZ2       3089            0.0000000000
     11693      3898  TIP3      H1            -17.5868903985       17.9800142534      -15.7385046635  WZ2       3089            0.0000000000
     11694      3898  TIP3      H2            -16.4884303985       18.8842242534      -16.2558846635  WZ2       3089            0.0000000000
     11695      3899  TIP3      OH2           -13.6452203985       21.1344842534       -9.7074846635  WZ2       3090            0.0000000000
     11696      3899  TIP3      H1            -14.4806903985       21.5884342534       -9.5972446635  WZ2       3090            0.0000000000
     11697      3899  TIP3      H2            -13.1211603985       21.4103342534       -8.9554946635  WZ2       3090            0.0000000000
     11698      3900  TIP3      OH2           -13.1009603985       27.3472542534      -18.0228446635  WZ2       3091            0.0000000000
     11699      3900  TIP3      H1            -13.8458603985       26.8397842534      -18.3450546635  WZ2       3091            0.0000000000
     11700      3900  TIP3      H2            -13.2352403985       27.3960542534      -17.0763646635  WZ2       3091            0.0000000000
     11701      3901  TIP3      OH2            -5.9510703985       26.4800742534       -9.2360846635  WZ2       3092            0.0000000000
     11702      3901  TIP3      H1             -5.3091903985       26.9367042534       -9.7798646635  WZ2       3092            0.0000000000
     11703      3901  TIP3      H2             -6.7813803985       26.5933142534       -9.6986746635  WZ2       3092            0.0000000000
     11704      3902  TIP3      OH2            -9.2032803985       20.1612442534      -19.8235846635  WZ2       3093            0.0000000000
     11705      3902  TIP3      H1            -10.1418603985       20.2728042534      -19.9747046635  WZ2       3093            0.0000000000
     11706      3902  TIP3      H2             -8.9060703985       21.0179342534      -19.5170146635  WZ2       3093            0.0000000000
     11707      3903  TIP3      OH2           -11.5817503985       27.5315842534       -6.7859346635  WZ2       3094            0.0000000000
     11708      3903  TIP3      H1            -11.9271403985       27.1498242534       -5.9789746635  WZ2       3094            0.0000000000
     11709      3903  TIP3      H2            -11.7817403985       28.4649442534       -6.7146446635  WZ2       3094            0.0000000000
     11710      3904  TIP3      OH2            -8.4849303985       22.0285142534      -18.1628446635  WZ2       3095            0.0000000000
     11711      3904  TIP3      H1             -7.5930303985       21.8910142534      -17.8437246635  WZ2       3095            0.0000000000
     11712      3904  TIP3      H2             -8.4285703985       22.8191242534      -18.6994946635  WZ2       3095            0.0000000000
     11713      3905  TIP3      OH2           -17.9761303985       26.6422542534      -12.2530546635  WZ2       3096            0.0000000000
     11714      3905  TIP3      H1            -17.2314103985       26.6398242534      -12.8544046635  WZ2       3096            0.0000000000
     11715      3905  TIP3      H2            -17.8984703985       25.8186342534      -11.7715446635  WZ2       3096            0.0000000000
     11716      3906  TIP3      OH2           -10.9755503985       28.8056842534      -18.9973846635  WZ2       3097            0.0000000000
     11717      3906  TIP3      H1            -11.2707103985       29.6324742534      -18.6159046635  WZ2       3097            0.0000000000
     11718      3906  TIP3      H2            -11.6785503985       28.1863742534      -18.8012446635  WZ2       3097            0.0000000000
     11719      3907  TIP3      OH2           -20.9681603985       25.1029442534       -6.9382046635  WZ2       3098            0.0000000000
     11720      3907  TIP3      H1            -20.7453003985       24.6849042534       -6.1064546635  WZ2       3098            0.0000000000
     11721      3907  TIP3      H2            -21.5701503985       24.4904442534       -7.3609246635  WZ2       3098            0.0000000000
     11722      3908  TIP3      OH2           -13.9516703985       24.6199342534       -4.7252346635  WZ2       3099            0.0000000000
     11723      3908  TIP3      H1            -14.2475903985       24.4542342534       -5.6203246635  WZ2       3099            0.0000000000
     11724      3908  TIP3      H2            -13.0201503985       24.3999642534       -4.7358446635  WZ2       3099            0.0000000000
     11725      3909  TIP3      OH2            -9.3313903985       29.9931342534       -6.8354346635  WZ2       3100            0.0000000000
     11726      3909  TIP3      H1            -10.2319603985       30.1763942534       -7.1030446635  WZ2       3100            0.0000000000
     11727      3909  TIP3      H2             -9.2972803985       30.2520642534       -5.9145546635  WZ2       3100            0.0000000000
     11728      3910  TIP3      OH2            -3.6000603985       22.2379242534      -18.4681746635  WZ2       3101            0.0000000000
     11729      3910  TIP3      H1             -4.1544303985       21.8417242534      -19.1404246635  WZ2       3101            0.0000000000
     11730      3910  TIP3      H2             -3.4997003985       23.1484442534      -18.7458446635  WZ2       3101            0.0000000000
     11731      3911  TIP3      OH2            -3.6368603985       28.0380942534       -5.6310246635  WZ2       3102            0.0000000000
     11732      3911  TIP3      H1             -4.4880103985       28.2764742534       -5.9983846635  WZ2       3102            0.0000000000
     11733      3911  TIP3      H2             -3.0465203985       28.0214142534       -6.3843146635  WZ2       3102            0.0000000000
     11734      3912  TIP3      OH2            -5.3048903985       31.0239642534      -18.0029646635  WZ2       3103            0.0000000000
     11735      3912  TIP3      H1             -5.6777803985       30.1983442534      -17.6939046635  WZ2       3103            0.0000000000
     11736      3912  TIP3      H2             -5.0275403985       30.8409042534      -18.9006246635  WZ2       3103            0.0000000000
     11737      3913  TIP3      OH2            -8.1445003985       25.8319142534      -10.9817746635  WZ2       3104            0.0000000000
     11738      3913  TIP3      H1             -9.0728103985       25.6001042534      -11.0088446635  WZ2       3104            0.0000000000
     11739      3913  TIP3      H2             -7.6933903985       25.0548942534      -11.3118946635  WZ2       3104            0.0000000000
     11740      3914  TIP3      OH2           -15.6011903985       30.1600742534      -14.8489046635  WZ2       3105            0.0000000000
     11741      3914  TIP3      H1            -15.0739703985       30.9335142534      -15.0490246635  WZ2       3105            0.0000000000
     11742      3914  TIP3      H2            -16.4813403985       30.3849942534      -15.1505046635  WZ2       3105            0.0000000000
     11743      3915  TIP3      OH2           -19.8464203985       25.0224842534      -20.2616646635  WZ2       3106            0.0000000000
     11744      3915  TIP3      H1            -19.2304303985       25.6492042534      -19.8821846635  WZ2       3106            0.0000000000
     11745      3915  TIP3      H2            -20.7081603985       25.3384642534      -19.9900146635  WZ2       3106            0.0000000000
     11746      3916  TIP3      OH2           -14.1739603985       27.8230642534      -15.2724746635  WZ2       3107            0.0000000000
     11747      3916  TIP3      H1            -14.4149603985       28.7485042534      -15.2309446635  WZ2       3107            0.0000000000
     11748      3916  TIP3      H2            -14.9146003985       27.3641942534      -14.8760846635  WZ2       3107            0.0000000000
     11749      3917  TIP3      OH2           -13.6593003985       31.9724242534       -8.9573646635  WZ2       3108            0.0000000000
     11750      3917  TIP3      H1            -13.2968303985       32.8269842534       -9.1909246635  WZ2       3108            0.0000000000
     11751      3917  TIP3      H2            -13.1277803985       31.6805842534       -8.2167346635  WZ2       3108            0.0000000000
     11752      3918  TIP3      OH2           -15.4908803985       32.8448242534      -15.7272546635  WZ2       3109            0.0000000000
     11753      3918  TIP3      H1            -16.4408303985       32.9505642534      -15.6759246635  WZ2       3109            0.0000000000
     11754      3918  TIP3      H2            -15.1390703985       33.6655642534      -15.3825046635  WZ2       3109            0.0000000000
     11755      3919  TIP3      OH2           -10.1152203985       28.0714942534       -9.2568046635  WZ2       3110            0.0000000000
     11756      3919  TIP3      H1            -10.5410903985       27.8436642534       -8.4304046635  WZ2       3110            0.0000000000
     11757      3919  TIP3      H2             -9.5346403985       27.3326742534       -9.4392746635  WZ2       3110            0.0000000000
     11758      3920  TIP3      OH2            -7.9123303985       29.0005442534      -20.1829046635  WZ2       3111            0.0000000000
     11759      3920  TIP3      H1             -7.5590203985       28.6205242534      -19.3785546635  WZ2       3111            0.0000000000
     11760      3920  TIP3      H2             -8.8609803985       28.9070242534      -20.0959746635  WZ2       3111            0.0000000000
     11761      3921  TIP3      OH2            -7.4568003985       32.6234442534       -6.7873246635  WZ2       3112            0.0000000000
     11762      3921  TIP3      H1             -8.0584803985       32.0677342534       -7.2826946635  WZ2       3112            0.0000000000
     11763      3921  TIP3      H2             -7.1754303985       33.2904242534       -7.4135846635  WZ2       3112            0.0000000000
     11764      3922  TIP3      OH2            -3.4088903985       33.4797942534      -19.9818846635  WZ2       3113            0.0000000000
     11765      3922  TIP3      H1             -2.6651003985       34.0658442534      -20.1217246635  WZ2       3113            0.0000000000
     11766      3922  TIP3      H2             -4.1030803985       34.0483742534      -19.6486446635  WZ2       3113            0.0000000000
     11767      3923  TIP3      OH2           -19.3342103985       19.8562142534       -7.3800646635  WZ2       3114            0.0000000000
     11768      3923  TIP3      H1            -20.2269803985       20.1947542534       -7.4476646635  WZ2       3114            0.0000000000
     11769      3923  TIP3      H2            -19.4329303985       19.0008242534       -6.9619846635  WZ2       3114            0.0000000000
     11770      3924  TIP3      OH2            -7.0464003985       27.6727442534      -17.9561146635  WZ2       3115            0.0000000000
     11771      3924  TIP3      H1             -7.3236403985       26.9446742534      -17.4000046635  WZ2       3115            0.0000000000
     11772      3924  TIP3      H2             -6.1191003985       27.7919442534      -17.7508546635  WZ2       3115            0.0000000000
     11773      3925  TIP3      OH2           -19.6830103985       31.6606542534       -8.9451246635  WZ2       3116            0.0000000000
     11774      3925  TIP3      H1            -19.4659803985       30.7288942534       -8.9761546635  WZ2       3116            0.0000000000
     11775      3925  TIP3      H2            -19.4366603985       31.9351542534       -8.0618446635  WZ2       3116            0.0000000000
     11776      3926  TIP3      OH2           -13.8215503985       30.1121542534      -21.7359046635  WZ2       3117            0.0000000000
     11777      3926  TIP3      H1            -13.5825703985       29.3639642534      -22.2830146635  WZ2       3117            0.0000000000
     11778      3926  TIP3      H2            -14.0904203985       29.7243242534      -20.9031246635  WZ2       3117            0.0000000000
     11779      3927  TIP3      OH2           -14.8844903985       29.6825342534      -19.2796446635  WZ2       3118            0.0000000000
     11780      3927  TIP3      H1            -14.7376903985       29.1625142534      -18.4895546635  WZ2       3118            0.0000000000
     11781      3927  TIP3      H2            -14.8873203985       30.5892942534      -18.9730546635  WZ2       3118            0.0000000000
     11782      3928  TIP3      OH2           -18.4313803985       26.9348642534      -18.7691046635  WZ2       3119            0.0000000000
     11783      3928  TIP3      H1            -19.1174503985       27.2871142534      -18.2021346635  WZ2       3119            0.0000000000
     11784      3928  TIP3      H2            -17.9085903985       27.6978242534      -19.0156746635  WZ2       3119            0.0000000000
     11785      3929  TIP3      OH2           -10.5998703985       19.5972442534       -8.4902046635  WZ2       3120            0.0000000000
     11786      3929  TIP3      H1             -9.9010803985       19.6711142534       -7.8402346635  WZ2       3120            0.0000000000
     11787      3929  TIP3      H2            -10.9807303985       18.7327442534       -8.3359146635  WZ2       3120            0.0000000000
     11788      3930  TIP3      OH2            -9.8153803985       19.2494142534      -17.3929746635  WZ2       3121            0.0000000000
     11789      3930  TIP3      H1             -9.5955503985       19.7209542534      -18.1964346635  WZ2       3121            0.0000000000
     11790      3930  TIP3      H2             -9.2569803985       19.6436742534      -16.7229146635  WZ2       3121            0.0000000000
     11791      3931  TIP3      OH2           -12.1467703985       31.3798942534      -18.5302246635  WZ2       3122            0.0000000000
     11792      3931  TIP3      H1            -12.9631603985       31.8768642534      -18.4777946635  WZ2       3122            0.0000000000
     11793      3931  TIP3      H2            -11.6171403985       31.8552442534      -19.1703446635  WZ2       3122            0.0000000000
     11794      3932  TIP3      OH2           -12.6153903985       20.9772942534      -16.5581346635  WZ2       3123            0.0000000000
     11795      3932  TIP3      H1            -11.8031303985       21.4816142534      -16.5119646635  WZ2       3123            0.0000000000
     11796      3932  TIP3      H2            -12.8600903985       20.8322642534      -15.6441746635  WZ2       3123            0.0000000000
     11797      3933  TIP3      OH2           -12.0797503985       21.9635642534       -7.3734746635  WZ2       3124            0.0000000000
     11798      3933  TIP3      H1            -11.9607203985       22.5371042534       -6.6164346635  WZ2       3124            0.0000000000
     11799      3933  TIP3      H2            -11.4242903985       21.2755042534       -7.2586946635  WZ2       3124            0.0000000000
     11800      3934  TIP3      OH2           -11.7317203985       18.0585942534      -15.6200246635  WZ2       3125            0.0000000000
     11801      3934  TIP3      H1            -12.0783703985       18.6756542534      -14.9755946635  WZ2       3125            0.0000000000
     11802      3934  TIP3      H2            -11.0730303985       18.5591642534      -16.1014746635  WZ2       3125            0.0000000000
     11803      3935  TIP3      OH2           -14.8084603985       32.4236142534      -18.5485346635  WZ2       3126            0.0000000000
     11804      3935  TIP3      H1            -14.6475903985       33.2233642534      -19.0492746635  WZ2       3126            0.0000000000
     11805      3935  TIP3      H2            -15.0056803985       32.7302142534      -17.6634746635  WZ2       3126            0.0000000000
     11806      3936  TIP3      OH2           -16.0740203985       19.1215342534      -18.9327746635  WZ2       3127            0.0000000000
     11807      3936  TIP3      H1            -16.1575403985       20.0098442534      -18.5861346635  WZ2       3127            0.0000000000
     11808      3936  TIP3      H2            -15.1839903985       18.8562042534      -18.7010946635  WZ2       3127            0.0000000000
     11809      3937  TIP3      OH2            -5.8751703985       19.8705942534       -6.5385046635  WZ2       3128            0.0000000000
     11810      3937  TIP3      H1             -6.7915903985       20.1327642534       -6.6261346635  WZ2       3128            0.0000000000
     11811      3937  TIP3      H2             -5.5396703985       19.8674942534       -7.4349746635  WZ2       3128            0.0000000000
     11812      3938  TIP3      OH2            -7.2730703985       23.6206942534      -12.4427746635  WZ2       3129            0.0000000000
     11813      3938  TIP3      H1             -8.0706303985       23.2057142534      -12.7712746635  WZ2       3129            0.0000000000
     11814      3938  TIP3      H2             -6.8279603985       22.9300642534      -11.9517246635  WZ2       3129            0.0000000000
     11815      3939  TIP3      OH2           -17.8154903985       29.5487542534      -19.8723246635  WZ2       3130            0.0000000000
     11816      3939  TIP3      H1            -17.2233403985       30.2482342534      -19.5960846635  WZ2       3130            0.0000000000
     11817      3939  TIP3      H2            -17.3561903985       29.1157042534      -20.5918646635  WZ2       3130            0.0000000000
     11818      3940  TIP3      OH2           -19.4995703985       22.2130542534      -20.7563846635  WZ2       3131            0.0000000000
     11819      3940  TIP3      H1            -19.5443103985       23.1523642534      -20.5776846635  WZ2       3131            0.0000000000
     11820      3940  TIP3      H2            -20.3872503985       21.9775442534      -21.0261746635  WZ2       3131            0.0000000000
     11821      3941  TIP3      OH2            -6.1866103985       32.8769442534      -10.8204246635  WZ2       3132            0.0000000000
     11822      3941  TIP3      H1             -6.3421803985       33.5553842534      -11.4774946635  WZ2       3132            0.0000000000
     11823      3941  TIP3      H2             -5.2539703985       32.9488742534      -10.6173646635  WZ2       3132            0.0000000000
     11824      3942  TIP3      OH2           -18.6913703985       16.9947142534      -12.0832846635  WZ2       3133            0.0000000000
     11825      3942  TIP3      H1            -18.9203903985       17.0539642534      -13.0107846635  WZ2       3133            0.0000000000
     11826      3942  TIP3      H2            -19.1340303985       16.2032642534      -11.7768746635  WZ2       3133            0.0000000000
     11827      3943  TIP3      OH2           -19.7610403985       30.9354242534      -15.9227046635  WZ2       3134            0.0000000000
     11828      3943  TIP3      H1            -20.5931803985       31.4076942534      -15.8955646635  WZ2       3134            0.0000000000
     11829      3943  TIP3      H2            -19.2152103985       31.4451842534      -16.5213946635  WZ2       3134            0.0000000000
     11830      3944  TIP3      OH2           -20.4726703985       33.5477942534       -4.5929046635  WZ2       3135            0.0000000000
     11831      3944  TIP3      H1            -19.9324503985       33.3311942534       -3.8329846635  WZ2       3135            0.0000000000
     11832      3944  TIP3      H2            -20.9538703985       32.7423942534       -4.7826546635  WZ2       3135            0.0000000000
     11833      3945  TIP3      OH2           -15.8753303985       32.4672342534       -2.9724846635  WZ2       3136            0.0000000000
     11834      3945  TIP3      H1            -15.1076103985       32.0083142534       -2.6315646635  WZ2       3136            0.0000000000
     11835      3945  TIP3      H2            -15.8967103985       32.2412142534       -3.9023646635  WZ2       3136            0.0000000000
     11836      3946  TIP3      OH2           -11.7833703985       31.9752942534      -21.5973046635  WZ2       3137            0.0000000000
     11837      3946  TIP3      H1            -12.4272703985       31.3441542534      -21.2759346635  WZ2       3137            0.0000000000
     11838      3946  TIP3      H2            -11.0215403985       31.4440942534      -21.8289546635  WZ2       3137            0.0000000000
     11839      3947  TIP3      OH2            -9.2984603985       30.8473442534       -4.2433346635  WZ2       3138            0.0000000000
     11840      3947  TIP3      H1             -9.6495103985       29.9906442534       -4.0002946635  WZ2       3138            0.0000000000
     11841      3947  TIP3      H2             -8.5721403985       30.9900142534       -3.6364346635  WZ2       3138            0.0000000000
     11842      3948  TIP3      OH2            -7.1790803985       31.7922842534      -21.3635046635  WZ2       3139            0.0000000000
     11843      3948  TIP3      H1             -6.8960403985       30.9978042534      -20.9108146635  WZ2       3139            0.0000000000
     11844      3948  TIP3      H2             -6.4392903985       32.0253842534      -21.9243946635  WZ2       3139            0.0000000000
     11845      3949  TIP3      OH2           -20.5657203985       27.3582042534       -3.6384746635  WZ2       3140            0.0000000000
     11846      3949  TIP3      H1            -20.4216703985       26.4562742534       -3.9248046635  WZ2       3140            0.0000000000
     11847      3949  TIP3      H2            -21.3379803985       27.6444142534       -4.1262446635  WZ2       3140            0.0000000000
     11848      3950  TIP3      OH2           -16.2243503985       27.7017742534      -21.5060146635  WZ2       3141            0.0000000000
     11849      3950  TIP3      H1            -16.1599403985       26.9077342534      -20.9753746635  WZ2       3141            0.0000000000
     11850      3950  TIP3      H2            -15.5714303985       27.5830542534      -22.1958146635  WZ2       3141            0.0000000000
     11851      3951  TIP3      OH2           -13.9101103985       27.3280142534       -4.2058346635  WZ2       3142            0.0000000000
     11852      3951  TIP3      H1            -14.2387303985       27.5988242534       -5.0630946635  WZ2       3142            0.0000000000
     11853      3951  TIP3      H2            -13.7582903985       26.3869942534       -4.2933346635  WZ2       3142            0.0000000000
     11854      3952  TIP3      OH2           -10.8720103985       28.7489442534      -21.7702146635  WZ2       3143            0.0000000000
     11855      3952  TIP3      H1            -11.1406003985       28.9291542534      -20.8693246635  WZ2       3143            0.0000000000
     11856      3952  TIP3      H2            -11.0784503985       27.8235642534      -21.9016346635  WZ2       3143            0.0000000000
     11857      3953  TIP3      OH2            -8.1755903985       27.2437442534       -6.8226046635  WZ2       3144            0.0000000000
     11858      3953  TIP3      H1             -7.4301103985       27.8321142534       -6.9422046635  WZ2       3144            0.0000000000
     11859      3953  TIP3      H2             -8.9329103985       27.8257142534       -6.7592946635  WZ2       3144            0.0000000000
     11860      3954  TIP3      OH2           -19.7330703985       24.5585342534       -4.2185446635  WZ2       3145            0.0000000000
     11861      3954  TIP3      H1            -19.3249503985       23.7011942534       -4.3394846635  WZ2       3145            0.0000000000
     11862      3954  TIP3      H2            -19.9933103985       24.5726642534       -3.2975146635  WZ2       3145            0.0000000000
     11863      3955  TIP3      OH2           -15.0749703985       25.6743942534      -19.2002146635  WZ2       3146            0.0000000000
     11864      3955  TIP3      H1            -15.5347703985       25.1902242534      -18.5143646635  WZ2       3146            0.0000000000
     11865      3955  TIP3      H2            -14.8201003985       25.0059342534      -19.8361646635  WZ2       3146            0.0000000000
     11866      3956  TIP3      OH2           -15.7860403985       23.5671042534       -6.8442546635  WZ2       3147            0.0000000000
     11867      3956  TIP3      H1            -16.4044303985       24.2417642534       -6.5637846635  WZ2       3147            0.0000000000
     11868      3956  TIP3      H2            -15.4419203985       23.8884942534       -7.6776346635  WZ2       3147            0.0000000000
     11869      3957  TIP3      OH2           -14.0039303985       23.9175742534      -20.9378946635  WZ2       3148            0.0000000000
     11870      3957  TIP3      H1            -14.1844303985       23.7626942534      -21.8650646635  WZ2       3148            0.0000000000
     11871      3957  TIP3      H2            -13.0538803985       24.0254442534      -20.8931046635  WZ2       3148            0.0000000000
     11872      3958  TIP3      OH2           -10.7662203985       26.0386342534       -3.5667746635  WZ2       3149            0.0000000000
     11873      3958  TIP3      H1             -9.8131003985       26.1225442534       -3.5941746635  WZ2       3149            0.0000000000
     11874      3958  TIP3      H2            -10.9267603985       25.3268142534       -2.9472846635  WZ2       3149            0.0000000000
     11875      3959  TIP3      OH2            -4.6141003985       26.2719942534      -21.4920846635  WZ2       3150            0.0000000000
     11876      3959  TIP3      H1             -4.8876203985       25.8475442534      -22.3052546635  WZ2       3150            0.0000000000
     11877      3959  TIP3      H2             -4.5746903985       27.2034442534      -21.7090446635  WZ2       3150            0.0000000000
     11878      3960  TIP3      OH2           -15.4466703985       20.9221842534       -5.7619446635  WZ2       3151            0.0000000000
     11879      3960  TIP3      H1            -15.2965803985       20.1933142534       -6.3639746635  WZ2       3151            0.0000000000
     11880      3960  TIP3      H2            -15.4444303985       21.6993542534       -6.3207246635  WZ2       3151            0.0000000000
     11881      3961  TIP3      OH2           -15.0341003985       19.2917642534       -8.2692046635  WZ2       3152            0.0000000000
     11882      3961  TIP3      H1            -14.4983503985       19.7434342534       -8.9212746635  WZ2       3152            0.0000000000
     11883      3961  TIP3      H2            -15.8861403985       19.1837442534       -8.6917946635  WZ2       3152            0.0000000000
     11884      3962  TIP3      OH2           -13.4522603985       24.7313842534       -8.0296846635  WZ2       3153            0.0000000000
     11885      3962  TIP3      H1            -12.7017803985       24.5751342534       -8.6029046635  WZ2       3153            0.0000000000
     11886      3962  TIP3      H2            -13.7914303985       25.5830442534       -8.3051346635  WZ2       3153            0.0000000000
     11887      3963  TIP3      OH2            -9.0366403985       22.5465642534       -3.0011546635  WZ2       3154            0.0000000000
     11888      3963  TIP3      H1             -8.8445103985       21.6155042534       -3.1127046635  WZ2       3154            0.0000000000
     11889      3963  TIP3      H2             -8.1790103985       22.9715142534       -3.0116146635  WZ2       3154            0.0000000000
     11890      3964  TIP3      OH2            -7.7199203985       25.3350842534       -4.9238846635  WZ2       3155            0.0000000000
     11891      3964  TIP3      H1             -8.0014203985       26.0445442534       -5.5015046635  WZ2       3155            0.0000000000
     11892      3964  TIP3      H2             -6.7774903985       25.2623842534       -5.0747646635  WZ2       3155            0.0000000000
     11893      3965  TIP3      OH2           -16.9680403985       22.1205342534       -3.8503846635  WZ2       3156            0.0000000000
     11894      3965  TIP3      H1            -17.7351403985       21.5880142534       -4.0606246635  WZ2       3156            0.0000000000
     11895      3965  TIP3      H2            -16.2891403985       21.8105742534       -4.4497546635  WZ2       3156            0.0000000000
     11896      3966  TIP3      OH2           -14.2285503985       16.7483342534       -7.8378446635  WZ2       3157            0.0000000000
     11897      3966  TIP3      H1            -14.3265903985       17.6946542534       -7.9432246635  WZ2       3157            0.0000000000
     11898      3966  TIP3      H2            -14.9709303985       16.3757142534       -8.3134946635  WZ2       3157            0.0000000000
     11899      3967  TIP3      OH2           -12.9645003985       21.0698742534       -4.2740046635  WZ2       3158            0.0000000000
     11900      3967  TIP3      H1            -13.1999603985       20.8505442534       -3.3725146635  WZ2       3158            0.0000000000
     11901      3967  TIP3      H2            -13.7478103985       20.8629942534       -4.7837546635  WZ2       3158            0.0000000000
     11902      3968  TIP3      OH2           -10.2488403985       20.1972242534       -5.1986546635  WZ2       3159            0.0000000000
     11903      3968  TIP3      H1            -11.1963003985       20.2291942534       -5.0663246635  WZ2       3159            0.0000000000
     11904      3968  TIP3      H2             -9.9361703985       19.5719342534       -4.5448346635  WZ2       3159            0.0000000000
     11905      3969  TIP3      OH2            -8.6146903985       18.8313342534       -3.1934646635  WZ2       3160            0.0000000000
     11906      3969  TIP3      H1             -8.7115103985       17.8790642534       -3.1992746635  WZ2       3160            0.0000000000
     11907      3969  TIP3      H2             -8.9363803985       19.1000142534       -2.3329146635  WZ2       3160            0.0000000000
     11908      3970  TIP3      OH2           -18.7877603985       20.0409142534       -4.1459146635  WZ2       3161            0.0000000000
     11909      3970  TIP3      H1            -18.5760203985       19.3345242534       -4.7561646635  WZ2       3161            0.0000000000
     11910      3970  TIP3      H2            -18.8990103985       19.6035142534       -3.3017946635  WZ2       3161            0.0000000000
     11911      3971  TIP3      OH2           -14.0067403985       16.0420742534       -5.1665646635  WZ2       3162            0.0000000000
     11912      3971  TIP3      H1            -13.2949003985       15.4022942534       -5.1806546635  WZ2       3162            0.0000000000
     11913      3971  TIP3      H2            -14.1077003985       16.3089042534       -6.0802546635  WZ2       3162            0.0000000000
     11914      3972  TIP3      OH2           -13.6529903985       17.7249142534       -3.1129346635  WZ2       3163            0.0000000000
     11915      3972  TIP3      H1            -13.7847703985       17.2492942534       -3.9330846635  WZ2       3163            0.0000000000
     11916      3972  TIP3      H2            -14.2522503985       18.4692742534       -3.1682246635  WZ2       3163            0.0000000000
     11917      3973  TIP3      OH2           -14.1067603985       34.6079442534      -19.9365346635  WZ2       3164            0.0000000000
     11918      3973  TIP3      H1            -13.1736903985       34.7658142534      -19.7926946635  WZ2       3164            0.0000000000
     11919      3973  TIP3      H2            -14.3708803985       35.2832442534      -20.5613846635  WZ2       3164            0.0000000000
     11920      3974  TIP3      OH2           -20.5382703985       29.2443242534      -20.4537246635  WZ2       3165            0.0000000000
     11921      3974  TIP3      H1            -19.6243503985       29.3232142534      -20.1803346635  WZ2       3165            0.0000000000
     11922      3974  TIP3      H2            -20.5309603985       28.5572842534      -21.1201646635  WZ2       3165            0.0000000000
     11923      3975  TIP3      OH2           -21.8892103985       34.6371742534      -15.3763346635  WZ2       3166            0.0000000000
     11924      3975  TIP3      H1            -22.5365003985       34.1753442534      -15.9092146635  WZ2       3166            0.0000000000
     11925      3975  TIP3      H2            -21.5347503985       33.9655042534      -14.7937146635  WZ2       3166            0.0000000000
     11926      3976  TIP3      OH2           -21.0192903985       32.7178742534      -13.5717146635  WZ2       3167            0.0000000000
     11927      3976  TIP3      H1            -21.3536103985       31.8376042534      -13.3996946635  WZ2       3167            0.0000000000
     11928      3976  TIP3      H2            -20.7970503985       33.0633742534      -12.7071546635  WZ2       3167            0.0000000000
     11929      3977  TIP3      OH2            -3.4708103985       33.5275142534      -10.5912346635  WZ2       3168            0.0000000000
     11930      3977  TIP3      H1             -3.4921403985       33.7123542534       -9.6522946635  WZ2       3168            0.0000000000
     11931      3977  TIP3      H2             -2.7801903985       34.0959142534      -10.9320946635  WZ2       3168            0.0000000000
     11932      3978  TIP3      OH2            -3.9075203985       33.0946242534       -7.6693246635  WZ2       3169            0.0000000000
     11933      3978  TIP3      H1             -4.3946503985       32.3590342534       -8.0405846635  WZ2       3169            0.0000000000
     11934      3978  TIP3      H2             -3.3582503985       32.7010142534       -6.9913846635  WZ2       3169            0.0000000000
     11935      3979  TIP3      OH2            -5.4567903985       28.8844342534       -3.0312946635  WZ2       3170            0.0000000000
     11936      3979  TIP3      H1             -6.3226803985       28.7794042534       -2.6370646635  WZ2       3170            0.0000000000
     11937      3979  TIP3      H2             -5.0802003985       29.6427642534       -2.5848246635  WZ2       3170            0.0000000000
     11938      3980  TIP3      OH2            -4.1558203985       27.1408042534      -17.5170446635  WZ2       3171            0.0000000000
     11939      3980  TIP3      H1             -3.3056803985       27.5618942534      -17.3898846635  WZ2       3171            0.0000000000
     11940      3980  TIP3      H2             -4.1503103985       26.4008142534      -16.9099046635  WZ2       3171            0.0000000000
     11941      3981  TIP3      OH2            -3.7612603985       25.1945442534      -15.6934746635  WZ2       3172            0.0000000000
     11942      3981  TIP3      H1             -4.4878003985       24.7148042534      -15.2957146635  WZ2       3172            0.0000000000
     11943      3981  TIP3      H2             -3.1799303985       25.4000142534      -14.9613146635  WZ2       3172            0.0000000000
     11944      3982  TIP3      OH2            -4.0021403985       27.9792942534      -10.7457146635  WZ2       3173            0.0000000000
     11945      3982  TIP3      H1             -3.1687203985       27.6012942534      -11.0263546635  WZ2       3173            0.0000000000
     11946      3982  TIP3      H2             -3.8901103985       28.9224142534      -10.8648046635  WZ2       3173            0.0000000000
     11947      3983  TIP3      OH2            -5.5159103985       30.8570442534       -8.4388746635  WZ2       3174            0.0000000000
     11948      3983  TIP3      H1             -6.1633803985       31.1821942534       -7.8133546635  WZ2       3174            0.0000000000
     11949      3983  TIP3      H2             -6.0335103985       30.4168142534       -9.1130446635  WZ2       3174            0.0000000000
     11950      3984  TIP3      OH2            -3.4929503985       25.0953942534      -19.3023446635  WZ2       3175            0.0000000000
     11951      3984  TIP3      H1             -4.0148403985       25.4518042534      -20.0212546635  WZ2       3175            0.0000000000
     11952      3984  TIP3      H2             -3.5260303985       25.7701742534      -18.6242546635  WZ2       3175            0.0000000000
     11953      3985  TIP3      OH2            -5.1440503985       22.3349542534      -20.7516346635  WZ2       3176            0.0000000000
     11954      3985  TIP3      H1             -5.0476103985       23.0016542534      -21.4316646635  WZ2       3176            0.0000000000
     11955      3985  TIP3      H2             -5.2840903985       21.5195842534      -21.2330846635  WZ2       3176            0.0000000000
     11956      3986  TIP3      OH2            -5.9745803985       23.7151942534      -15.1306046635  WZ2       3177            0.0000000000
     11957      3986  TIP3      H1             -6.1247003985       22.7700542534      -15.1508246635  WZ2       3177            0.0000000000
     11958      3986  TIP3      H2             -6.3281303985       23.9963342534      -14.2866946635  WZ2       3177            0.0000000000
     11959      3987  TIP3      OH2           -20.9393403985       25.7934142534      -11.1202246635  WZ2       3178            0.0000000000
     11960      3987  TIP3      H1            -20.7550503985       25.7115842534      -12.0559346635  WZ2       3178            0.0000000000
     11961      3987  TIP3      H2            -20.0900503985       25.6691142534      -10.6965846635  WZ2       3178            0.0000000000
     11962      3988  TIP3      OH2            -5.1182903985       25.6855242534       -5.4917746635  WZ2       3179            0.0000000000
     11963      3988  TIP3      H1             -4.5355603985       24.9507542534       -5.3000546635  WZ2       3179            0.0000000000
     11964      3988  TIP3      H2             -4.5543603985       26.4575542534       -5.4451946635  WZ2       3179            0.0000000000
     11965      3989  TIP3      OH2            -3.6215803985       23.5881042534       -4.8072346635  WZ2       3180            0.0000000000
     11966      3989  TIP3      H1             -4.4849103985       23.2093142534       -4.9727646635  WZ2       3180            0.0000000000
     11967      3989  TIP3      H2             -3.0172103985       22.8495842534       -4.8816546635  WZ2       3180            0.0000000000
     11968      3990  TIP3      OH2            -5.8966703985       19.7429342534      -21.6340846635  WZ2       3181            0.0000000000
     11969      3990  TIP3      H1             -5.2860903985       19.3716142534      -20.9972646635  WZ2       3181            0.0000000000
     11970      3990  TIP3      H2             -6.7335203985       19.3216242534      -21.4380846635  WZ2       3181            0.0000000000
     11971      3991  TIP3      OH2            -6.2641003985       21.2977742534      -16.6680946635  WZ2       3182            0.0000000000
     11972      3991  TIP3      H1             -5.9843903985       20.3908142534      -16.5439246635  WZ2       3182            0.0000000000
     11973      3991  TIP3      H2             -5.5049303985       21.7319242534      -17.0571746635  WZ2       3182            0.0000000000
     11974      3992  TIP3      OH2            -5.6522703985       21.8795142534      -11.2322046635  WZ2       3183            0.0000000000
     11975      3992  TIP3      H1             -4.7194703985       22.0915042534      -11.2666046635  WZ2       3183            0.0000000000
     11976      3992  TIP3      H2             -5.8875203985       21.9807242534      -10.3099046635  WZ2       3183            0.0000000000
     11977      3993  TIP3      OH2            -5.6230803985       22.6160442534       -8.4562646635  WZ2       3184            0.0000000000
     11978      3993  TIP3      H1             -6.4659503985       22.8840842534       -8.0902846635  WZ2       3184            0.0000000000
     11979      3993  TIP3      H2             -5.1806503985       23.4382342534       -8.6671546635  WZ2       3184            0.0000000000
     11980      3994  TIP3      OH2           -21.3418603985       21.0639142534       -4.9793446635  WZ2       3185            0.0000000000
     11981      3994  TIP3      H1            -20.4223703985       20.9417442534       -4.7430346635  WZ2       3185            0.0000000000
     11982      3994  TIP3      H2            -21.7914103985       20.3138842534       -4.5899946635  WZ2       3185            0.0000000000
     11983      3995  TIP3      OH2            -3.3399203985       16.5960642534       -3.1027646635  WZ2       3186            0.0000000000
     11984      3995  TIP3      H1             -2.9902203985       15.9424142534       -3.7082946635  WZ2       3186            0.0000000000
     11985      3995  TIP3      H2             -3.1929703985       17.4334742534       -3.5425046635  WZ2       3186            0.0000000000
     11986      3996  TIP3      OH2            -5.6506203985       18.5607042534      -16.6198946635  WZ2       3187            0.0000000000
     11987      3996  TIP3      H1             -5.4681203985       18.1118542534      -15.7943946635  WZ2       3187            0.0000000000
     11988      3996  TIP3      H2             -6.2503303985       17.9761442534      -17.0834346635  WZ2       3187            0.0000000000
     11989      3997  TIP3      OH2           -20.1206103985       19.3760742534      -12.0880546635  WZ2       3188            0.0000000000
     11990      3997  TIP3      H1            -19.6754503985       18.5843242534      -11.7860846635  WZ2       3188            0.0000000000
     11991      3997  TIP3      H2            -19.6543103985       20.0925942534      -11.6574946635  WZ2       3188            0.0000000000
     11992      3998  TIP3      OH2           -21.8165803985       22.3753742534      -11.0190346635  WZ2       3189            0.0000000000
     11993      3998  TIP3      H1            -21.3246003985       22.1544242534      -11.8098346635  WZ2       3189            0.0000000000
     11994      3998  TIP3      H2            -21.4544903985       23.2157142534      -10.7380846635  WZ2       3189            0.0000000000
     11995      3999  TIP3      OH2            -3.8202003985       18.7055242534       -4.7536346635  WZ2       3190            0.0000000000
     11996      3999  TIP3      H1             -4.7376303985       18.9762342534       -4.7892846635  WZ2       3190            0.0000000000
     11997      3999  TIP3      H2             -3.6972603985       18.1703642534       -5.5376646635  WZ2       3190            0.0000000000
     11998      4000  TIP3      OH2            -3.7840003985       18.6285142534      -20.0918646635  WZ2       3191            0.0000000000
     11999      4000  TIP3      H1             -3.3717403985       17.9070842534      -20.5670646635  WZ2       3191            0.0000000000
     12000      4000  TIP3      H2             -3.1023503985       19.2979742534      -20.0334346635  WZ2       3191            0.0000000000
     12001      4001  TIP3      OH2           -21.5029303985       18.6332842534      -16.9647946635  WZ2       3192            0.0000000000
     12002      4001  TIP3      H1            -22.4280903985       18.8419442534      -17.0942446635  WZ2       3192            0.0000000000
     12003      4001  TIP3      H2            -21.0489403985       19.1173642534      -17.6545646635  WZ2       3192            0.0000000000
     12004      4002  TIP3      OH2            -6.7322103985       33.6174542534      -15.0190546635  WZ2       3193            0.0000000000
     12005      4002  TIP3      H1             -6.0799203985       33.2696642534      -15.6271446635  WZ2       3193            0.0000000000
     12006      4002  TIP3      H2             -6.2218303985       34.1057742534      -14.3730846635  WZ2       3193            0.0000000000
     12007      4003  TIP3      OH2           -21.5393903985       17.3711842534       -8.6205446635  WZ2       3194            0.0000000000
     12008      4003  TIP3      H1            -22.2043403985       17.1252142534       -7.9774546635  WZ2       3194            0.0000000000
     12009      4003  TIP3      H2            -21.9822603985       17.9932242534       -9.1977446635  WZ2       3194            0.0000000000
     12010      4004  TIP3      OH2           -19.3474603985       30.5465942534       -4.4759646635  WZ2       3195            0.0000000000
     12011      4004  TIP3      H1            -20.1682103985       30.7212442534       -4.9364946635  WZ2       3195            0.0000000000
     12012      4004  TIP3      H2            -19.5996803985       30.4730642534       -3.5555246635  WZ2       3195            0.0000000000
     12013      4005  TIP3      OH2           -16.3931703985       31.5207142534       -8.2175646635  WZ2       3196            0.0000000000
     12014      4005  TIP3      H1            -16.8180603985       32.3305642534       -8.5001046635  WZ2       3196            0.0000000000
     12015      4005  TIP3      H2            -15.4888903985       31.6061242534       -8.5195846635  WZ2       3196            0.0000000000
     12016      4006  TIP3      OH2           -12.0820303985       32.9197142534       -5.2581946635  WZ2       3197            0.0000000000
     12017      4006  TIP3      H1            -11.8972803985       32.5863242534       -4.3801646635  WZ2       3197            0.0000000000
     12018      4006  TIP3      H2            -11.2355803985       33.2295742534       -5.5802746635  WZ2       3197            0.0000000000
     12019      4007  TIP3      OH2            -9.7369903985       34.2056042534       -6.0140546635  WZ2       3198            0.0000000000
     12020      4007  TIP3      H1             -9.0601003985       33.5728342534       -6.2541346635  WZ2       3198            0.0000000000
     12021      4007  TIP3      H2             -9.4151103985       34.6066542534       -5.2067246635  WZ2       3198            0.0000000000
     12022      4008  TIP3      OH2            -4.8196103985       16.7951542534       -6.9345546635  WZ2       3199            0.0000000000
     12023      4008  TIP3      H1             -5.6322603985       17.1201842534       -7.3220846635  WZ2       3199            0.0000000000
     12024      4008  TIP3      H2             -4.5867603985       16.0350042534       -7.4676446635  WZ2       3199            0.0000000000
     12025      4009  TIP3      OH2           -18.9915003985       34.7771042534       -8.1700346635  WZ2       3200            0.0000000000
     12026      4009  TIP3      H1            -19.7118603985       35.2172042534       -8.6212646635  WZ2       3200            0.0000000000
     12027      4009  TIP3      H2            -19.3571003985       34.5265742534       -7.3216346635  WZ2       3200            0.0000000000
     12028      4010  TIP3      OH2           -16.5242403985       34.3774942534       -9.1403146635  WZ2       3201            0.0000000000
     12029      4010  TIP3      H1            -17.3890203985       34.4493442534       -8.7363046635  WZ2       3201            0.0000000000
     12030      4010  TIP3      H2            -16.5793403985       34.9242242534       -9.9240646635  WZ2       3201            0.0000000000
     12031      4011  TIP3      OH2           -11.8136803985       34.2653842534       -9.9647146635  WZ2       3202            0.0000000000
     12032      4011  TIP3      H1            -12.2702803985       34.7943542534      -10.6188746635  WZ2       3202            0.0000000000
     12033      4011  TIP3      H2            -11.6508803985       34.8685242534       -9.2394846635  WZ2       3202            0.0000000000
     12034      4012  TIP3      OH2            -9.4860503985       33.1433442534       -9.0196846635  WZ2       3203            0.0000000000
     12035      4012  TIP3      H1            -10.3906803985       33.3083642534       -9.2854746635  WZ2       3203            0.0000000000
     12036      4012  TIP3      H2             -9.0571903985       33.9965642534       -9.0853446635  WZ2       3203            0.0000000000
     12037      4013  TIP3      OH2            -6.8818603985       34.7132542534       -8.7249046635  WZ2       3204            0.0000000000
     12038      4013  TIP3      H1             -7.0636603985       35.6291442534       -8.9354146635  WZ2       3204            0.0000000000
     12039      4013  TIP3      H2             -6.7050803985       34.3029642534       -9.5714446635  WZ2       3204            0.0000000000
     12040      4014  TIP3      OH2           -19.5766903985       33.4003542534      -11.2598546635  WZ2       3205            0.0000000000
     12041      4014  TIP3      H1            -19.5950903985       32.9748642534      -10.4026246635  WZ2       3205            0.0000000000
     12042      4014  TIP3      H2            -18.7719003985       33.0818542534      -11.6686346635  WZ2       3205            0.0000000000
     12043      4015  TIP3      OH2           -17.4353803985       32.1102242534      -12.6048646635  WZ2       3206            0.0000000000
     12044      4015  TIP3      H1            -17.6543103985       31.1939642534      -12.4352646635  WZ2       3206            0.0000000000
     12045      4015  TIP3      H2            -16.6111603985       32.2502642534      -12.1387246635  WZ2       3206            0.0000000000
     12046      4016  TIP3      OH2           -14.8981303985       32.5801542534      -11.7560646635  WZ2       3207            0.0000000000
     12047      4016  TIP3      H1            -14.6855603985       31.6920542534      -12.0429746635  WZ2       3207            0.0000000000
     12048      4016  TIP3      H2            -14.8336203985       32.5459242534      -10.8016646635  WZ2       3207            0.0000000000
     12049      4017  TIP3      OH2           -11.3897603985       18.2442142534      -12.6117346635  WZ2       3208            0.0000000000
     12050      4017  TIP3      H1            -12.0640803985       17.6147742534      -12.3561546635  WZ2       3208            0.0000000000
     12051      4017  TIP3      H2            -10.8258403985       17.7601042534      -13.2149446635  WZ2       3208            0.0000000000
     12052      4018  TIP3      OH2            -6.2470403985       16.3516142534      -12.4990246635  WZ2       3209            0.0000000000
     12053      4018  TIP3      H1             -5.6432803985       16.8991542534      -13.0009246635  WZ2       3209            0.0000000000
     12054      4018  TIP3      H2             -7.1168403985       16.6706542534      -12.7396146635  WZ2       3209            0.0000000000
     12055      4019  TIP3      OH2            -4.5200003985       17.4904842534      -14.1659346635  WZ2       3210            0.0000000000
     12056      4019  TIP3      H1             -3.9082503985       16.9760542534      -14.6925746635  WZ2       3210            0.0000000000
     12057      4019  TIP3      H2             -4.1376603985       18.3676942534      -14.1424946635  WZ2       3210            0.0000000000
     12058      4020  TIP3      OH2           -19.0630103985       16.8782442534      -14.7897446635  WZ2       3211            0.0000000000
     12059      4020  TIP3      H1            -19.8400303985       16.6437342534      -15.2971546635  WZ2       3211            0.0000000000
     12060      4020  TIP3      H2            -18.5326503985       16.0814542534      -14.7809446635  WZ2       3211            0.0000000000
     12061      4021  TIP3      OH2           -20.2266703985       16.6760542534      -18.9861346635  WZ2       3212            0.0000000000
     12062      4021  TIP3      H1            -19.7876003985       17.2871042534      -19.5777846635  WZ2       3212            0.0000000000
     12063      4021  TIP3      H2            -20.8604303985       17.2144642534      -18.5121346635  WZ2       3212            0.0000000000
     12064      4022  TIP3      OH2           -14.4837503985       16.8049542534      -14.9764346635  WZ2       3213            0.0000000000
     12065      4022  TIP3      H1            -13.6094103985       17.1933842534      -15.0060046635  WZ2       3213            0.0000000000
     12066      4022  TIP3      H2            -14.6196703985       16.5897342534      -14.0537146635  WZ2       3213            0.0000000000
     12067      4023  TIP3      OH2            -8.9269103985       16.8349342534      -13.3272646635  WZ2       3214            0.0000000000
     12068      4023  TIP3      H1             -8.8507503985       16.9300942534      -14.2766646635  WZ2       3214            0.0000000000
     12069      4023  TIP3      H2             -9.2019903985       15.9272242534      -13.1983546635  WZ2       3214            0.0000000000
     12070      4024  TIP3      OH2            -7.5736503985       16.8607142534      -17.6347646635  WZ2       3215            0.0000000000
     12071      4024  TIP3      H1             -8.2765403985       17.4756342534      -17.8446246635  WZ2       3215            0.0000000000
     12072      4024  TIP3      H2             -8.0185103985       16.0233842534      -17.5036746635  WZ2       3215            0.0000000000
     12073      4025  TIP3      OH2           -20.3257203985       32.6242742534      -18.0886246635  WZ2       3216            0.0000000000
     12074      4025  TIP3      H1            -21.0107303985       32.5861642534      -18.7561146635  WZ2       3216            0.0000000000
     12075      4025  TIP3      H2            -20.3220003985       33.5370342534      -17.8004146635  WZ2       3216            0.0000000000
     12076      4026  TIP3      OH2           -18.3657603985       18.5922042534      -20.5437246635  WZ2       3217            0.0000000000
     12077      4026  TIP3      H1            -17.8744203985       17.9624442534      -21.0711746635  WZ2       3217            0.0000000000
     12078      4026  TIP3      H2            -17.7421303985       18.8881442534      -19.8806046635  WZ2       3217            0.0000000000
     12079      4027  TIP3      OH2           -13.3397503985       18.8853542534      -18.0866746635  WZ2       3218            0.0000000000
     12080      4027  TIP3      H1            -13.1616203985       18.2386742534      -17.4038146635  WZ2       3218            0.0000000000
     12081      4027  TIP3      H2            -13.3931303985       19.7191242534      -17.6195646635  WZ2       3218            0.0000000000
     12082      4028  TIP3      OH2           -11.4613703985       33.8337642534      -19.6910046635  WZ2       3219            0.0000000000
     12083      4028  TIP3      H1            -10.5953503985       34.2005042534      -19.8691846635  WZ2       3219            0.0000000000
     12084      4028  TIP3      H2            -11.7080903985       33.3945642534      -20.5049246635  WZ2       3219            0.0000000000
     12085      4029  TIP3      OH2            -4.7524103985       33.3967942534      -17.0118946635  WZ2       3220            0.0000000000
     12086      4029  TIP3      H1             -4.9467003985       32.6490042534      -17.5769346635  WZ2       3220            0.0000000000
     12087      4029  TIP3      H2             -4.7914003985       34.1548042534      -17.5951046635  WZ2       3220            0.0000000000
     12088      4030  TIP3      OH2           -19.1052103985       17.3924342534       -5.2721246635  WZ2       3221            0.0000000000
     12089      4030  TIP3      H1            -19.4713903985       16.6266942534       -4.8296546635  WZ2       3221            0.0000000000
     12090      4030  TIP3      H2            -18.1923603985       17.4214542534       -4.9856146635  WZ2       3221            0.0000000000
     12091      4031  TIP3      OH2           -17.1321303985       16.7428742534       -3.7364146635  WZ2       3222            0.0000000000
     12092      4031  TIP3      H1            -16.2337703985       16.4688942534       -3.9210746635  WZ2       3222            0.0000000000
     12093      4031  TIP3      H2            -17.5188203985       16.0004742534       -3.2721546635  WZ2       3222            0.0000000000
     12094      4032  TIP3      OH2           -18.5076003985       33.5443542534      -21.0634146635  WZ2       3223            0.0000000000
     12095      4032  TIP3      H1            -18.7751403985       33.8306442534      -20.1901046635  WZ2       3223            0.0000000000
     12096      4032  TIP3      H2            -17.7363403985       32.9982742534      -20.9111646635  WZ2       3223            0.0000000000
     12097      4033  TIP3      OH2            -8.7109003985       16.0754042534       -3.5541346635  WZ2       3224            0.0000000000
     12098      4033  TIP3      H1             -8.6341803985       15.6494742534       -2.7003646635  WZ2       3224            0.0000000000
     12099      4033  TIP3      H2             -7.8172403985       16.0888742534       -3.8967846635  WZ2       3224            0.0000000000
     12100      4034  TIP3      OH2            -5.5347903985       32.1480342534       -4.8617146635  WZ2       3225            0.0000000000
     12101      4034  TIP3      H1             -6.3166003985       31.9618342534       -5.3816546635  WZ2       3225            0.0000000000
     12102      4034  TIP3      H2             -5.6068003985       33.0774642534       -4.6444646635  WZ2       3225            0.0000000000
     12103      4035  TIP3      OH2             8.8712496015       26.0344742534      -14.8309946635  WZ2       3226            0.0000000000
     12104      4035  TIP3      H1              8.9603596015       26.9782942534      -14.9632846635  WZ2       3226            0.0000000000
     12105      4035  TIP3      H2              8.2330096015       25.7591142534      -15.4890546635  WZ2       3226            0.0000000000
     12106      4036  TIP3      OH2             7.8043796015       25.2895442534      -11.4121746635  WZ2       3227            0.0000000000
     12107      4036  TIP3      H1              7.7661296015       24.6431742534      -10.7072146635  WZ2       3227            0.0000000000
     12108      4036  TIP3      H2              7.4820296015       24.8229842534      -12.1833046635  WZ2       3227            0.0000000000
     12109      4037  TIP3      OH2             0.1728796015       24.9037542534       -9.8191846635  WZ2       3228            0.0000000000
     12110      4037  TIP3      H1              0.2140896015       24.2780842534       -9.0959446635  WZ2       3228            0.0000000000
     12111      4037  TIP3      H2              0.8756496015       25.5276142534       -9.6371446635  WZ2       3228            0.0000000000
     12112      4038  TIP3      OH2            11.5103996015       28.2285842534      -13.1106646635  WZ2       3229            0.0000000000
     12113      4038  TIP3      H1             11.0696696015       27.5081842534      -12.6601046635  WZ2       3229            0.0000000000
     12114      4038  TIP3      H2             11.4973696015       28.9493042534      -12.4808946635  WZ2       3229            0.0000000000
     12115      4039  TIP3      OH2             1.0961896015       29.3536442534      -11.2842746635  WZ2       3230            0.0000000000
     12116      4039  TIP3      H1              0.7267096015       28.5516942534      -11.6538446635  WZ2       3230            0.0000000000
     12117      4039  TIP3      H2              2.0372996015       29.1851342534      -11.2379346635  WZ2       3230            0.0000000000
     12118      4040  TIP3      OH2            -2.2937603985       23.0139042534      -15.8913946635  WZ2       3231            0.0000000000
     12119      4040  TIP3      H1             -2.7414203985       23.8597742534      -15.9097446635  WZ2       3231            0.0000000000
     12120      4040  TIP3      H2             -2.8546403985       22.4343242534      -16.4068846635  WZ2       3231            0.0000000000
     12121      4041  TIP3      OH2            -1.5831503985       25.1758642534      -13.7655946635  WZ2       3232            0.0000000000
     12122      4041  TIP3      H1             -1.3698003985       24.4060242534      -13.2382946635  WZ2       3232            0.0000000000
     12123      4041  TIP3      H2             -0.8453903985       25.2655342534      -14.3688346635  WZ2       3232            0.0000000000
     12124      4042  TIP3      OH2             8.6219496015       33.3327542534      -12.8986246635  WZ2       3233            0.0000000000
     12125      4042  TIP3      H1              9.2415896015       32.6562242534      -13.1717046635  WZ2       3233            0.0000000000
     12126      4042  TIP3      H2              8.4136896015       33.1148342534      -11.9901346635  WZ2       3233            0.0000000000
     12127      4043  TIP3      OH2             6.1938196015       27.7216842534      -11.0060746635  WZ2       3234            0.0000000000
     12128      4043  TIP3      H1              6.4976096015       27.0358242534      -11.6006646635  WZ2       3234            0.0000000000
     12129      4043  TIP3      H2              6.9152196015       27.8405542534      -10.3882746635  WZ2       3234            0.0000000000
     12130      4044  TIP3      OH2            14.8567996015       19.3232142534      -10.1454546635  WZ2       3235            0.0000000000
     12131      4044  TIP3      H1             14.9060196015       19.9333342534       -9.4095446635  WZ2       3235            0.0000000000
     12132      4044  TIP3      H2             15.2823096015       19.7843042534      -10.8683446635  WZ2       3235            0.0000000000
     12133      4045  TIP3      OH2             9.3345196015       22.1159242534      -10.6785946635  WZ2       3236            0.0000000000
     12134      4045  TIP3      H1              9.4771096015       21.1696242534      -10.6584346635  WZ2       3236            0.0000000000
     12135      4045  TIP3      H2              9.2284196015       22.3229042534      -11.6071046635  WZ2       3236            0.0000000000
     12136      4046  TIP3      OH2             2.4893496015       20.2175642534      -13.4061146635  WZ2       3237            0.0000000000
     12137      4046  TIP3      H1              2.5324596015       21.0774142534      -13.8244846635  WZ2       3237            0.0000000000
     12138      4046  TIP3      H2              2.0317596015       19.6650342534      -14.0397946635  WZ2       3237            0.0000000000
     12139      4047  TIP3      OH2            10.2116196015       20.3481242534      -15.0052846635  WZ2       3238            0.0000000000
     12140      4047  TIP3      H1             10.8580496015       20.0194442534      -14.3805246635  WZ2       3238            0.0000000000
     12141      4047  TIP3      H2             10.7215596015       20.8660242534      -15.6281446635  WZ2       3238            0.0000000000
     12142      4048  TIP3      OH2            -0.8905003985       22.6141442534      -12.6439746635  WZ2       3239            0.0000000000
     12143      4048  TIP3      H1             -0.2368403985       22.0643142534      -12.2119646635  WZ2       3239            0.0000000000
     12144      4048  TIP3      H2             -0.8665703985       22.3400442534      -13.5607746635  WZ2       3239            0.0000000000
     12145      4049  TIP3      OH2             4.2659496015       24.1642742534      -13.4288246635  WZ2       3240            0.0000000000
     12146      4049  TIP3      H1              4.8820496015       23.6378142534      -12.9194246635  WZ2       3240            0.0000000000
     12147      4049  TIP3      H2              3.6798296015       23.5241442534      -13.8324646635  WZ2       3240            0.0000000000
     12148      4050  TIP3      OH2            15.2482596015       20.8011342534       -7.9094746635  WZ2       3241            0.0000000000
     12149      4050  TIP3      H1             14.5597196015       21.4592042534       -8.0048146635  WZ2       3241            0.0000000000
     12150      4050  TIP3      H2             15.2637196015       20.6039242534       -6.9729346635  WZ2       3241            0.0000000000
     12151      4051  TIP3      OH2             1.2995396015       19.1354042534       -9.3320346635  WZ2       3242            0.0000000000
     12152      4051  TIP3      H1              1.0807096015       19.6654642534      -10.0984346635  WZ2       3242            0.0000000000
     12153      4051  TIP3      H2              0.6316296015       19.3619542534       -8.6848946635  WZ2       3242            0.0000000000
     12154      4052  TIP3      OH2             8.6685196015       28.6355142534      -15.7881246635  WZ2       3243            0.0000000000
     12155      4052  TIP3      H1              8.3730296015       28.3127442534      -16.6394346635  WZ2       3243            0.0000000000
     12156      4052  TIP3      H2              8.3442996015       29.5351842534      -15.7468646635  WZ2       3243            0.0000000000
     12157      4053  TIP3      OH2             3.8686796015       26.8109742534       -9.0446646635  WZ2       3244            0.0000000000
     12158      4053  TIP3      H1              3.1285896015       27.4091242534       -8.9411446635  WZ2       3244            0.0000000000
     12159      4053  TIP3      H2              4.5826296015       27.3649342534       -9.3603046635  WZ2       3244            0.0000000000
     12160      4054  TIP3      OH2            11.9754596015       19.6390542534      -13.0246946635  WZ2       3245            0.0000000000
     12161      4054  TIP3      H1             11.7602596015       18.8733942534      -12.4920946635  WZ2       3245            0.0000000000
     12162      4054  TIP3      H2             12.6311996015       20.1115142534      -12.5118446635  WZ2       3245            0.0000000000
     12163      4055  TIP3      OH2             0.8932696015       21.0275842534      -11.3798146635  WZ2       3246            0.0000000000
     12164      4055  TIP3      H1              1.5068996015       21.6603442534      -11.0065746635  WZ2       3246            0.0000000000
     12165      4055  TIP3      H2              1.4053396015       20.5550842534      -12.0361246635  WZ2       3246            0.0000000000
     12166      4056  TIP3      OH2             2.2761096015       28.7752742534       -8.2575146635  WZ2       3247            0.0000000000
     12167      4056  TIP3      H1              2.2708696015       29.6546242534       -8.6355846635  WZ2       3247            0.0000000000
     12168      4056  TIP3      H2              1.4225196015       28.6916842534       -7.8325246635  WZ2       3247            0.0000000000
     12169      4057  TIP3      OH2            -1.6028003985       28.4460642534      -17.4755846635  WZ2       3248            0.0000000000
     12170      4057  TIP3      H1             -1.8747103985       28.6751642534      -18.3642946635  WZ2       3248            0.0000000000
     12171      4057  TIP3      H2             -1.5572303985       29.2839442534      -17.0150546635  WZ2       3248            0.0000000000
     12172      4058  TIP3      OH2            12.0221696015       30.0676542534      -10.7627346635  WZ2       3249            0.0000000000
     12173      4058  TIP3      H1             11.0805396015       30.1260442534      -10.6010446635  WZ2       3249            0.0000000000
     12174      4058  TIP3      H2             12.2987796015       30.9737042534      -10.8997646635  WZ2       3249            0.0000000000
     12175      4059  TIP3      OH2            12.3228696015       18.3541842534       -9.3453446635  WZ2       3250            0.0000000000
     12176      4059  TIP3      H1             11.5867896015       18.9648942534       -9.3832146635  WZ2       3250            0.0000000000
     12177      4059  TIP3      H2             13.0062696015       18.7690842534       -9.8717046635  WZ2       3250            0.0000000000
     12178      4060  TIP3      OH2             5.3260096015       16.4409142534      -11.8795446635  WZ2       3251            0.0000000000
     12179      4060  TIP3      H1              5.2084296015       15.4925142534      -11.9337146635  WZ2       3251            0.0000000000
     12180      4060  TIP3      H2              4.4710196015       16.7735242534      -11.6064346635  WZ2       3251            0.0000000000
     12181      4061  TIP3      OH2            10.2742896015       31.8490042534      -14.1375746635  WZ2       3252            0.0000000000
     12182      4061  TIP3      H1             10.6995196015       31.1417942534      -14.6226146635  WZ2       3252            0.0000000000
     12183      4061  TIP3      H2             10.5912896015       32.6502742534      -14.5543546635  WZ2       3252            0.0000000000
     12184      4062  TIP3      OH2            11.4339396015       29.7498542534      -15.6289146635  WZ2       3253            0.0000000000
     12185      4062  TIP3      H1             11.1764196015       29.0598642534      -16.2403246635  WZ2       3253            0.0000000000
     12186      4062  TIP3      H2             11.5050196015       29.3069742534      -14.7833246635  WZ2       3253            0.0000000000
     12187      4063  TIP3      OH2            13.1199596015       28.3165242534       -7.1515646635  WZ2       3254            0.0000000000
     12188      4063  TIP3      H1             13.2595896015       27.7247742534       -7.8908646635  WZ2       3254            0.0000000000
     12189      4063  TIP3      H2             13.2872396015       29.1891142534       -7.5076846635  WZ2       3254            0.0000000000
     12190      4064  TIP3      OH2             7.5924996015       25.2784742534      -17.3789646635  WZ2       3255            0.0000000000
     12191      4064  TIP3      H1              6.8810496015       25.8134442534      -17.7309146635  WZ2       3255            0.0000000000
     12192      4064  TIP3      H2              8.2834596015       25.3336842534      -18.0390746635  WZ2       3255            0.0000000000
     12193      4065  TIP3      OH2             7.6464196015       23.7359042534      -20.3404646635  WZ2       3256            0.0000000000
     12194      4065  TIP3      H1              8.3474096015       23.7585942534      -19.6890646635  WZ2       3256            0.0000000000
     12195      4065  TIP3      H2              7.9487096015       23.1078742534      -20.9965346635  WZ2       3256            0.0000000000
     12196      4066  TIP3      OH2            14.9618896015       24.6563242534       -9.0855246635  WZ2       3257            0.0000000000
     12197      4066  TIP3      H1             14.3092996015       25.3508842534       -8.9964346635  WZ2       3257            0.0000000000
     12198      4066  TIP3      H2             15.4269196015       24.8664142534       -9.8953646635  WZ2       3257            0.0000000000
     12199      4067  TIP3      OH2            10.9982696015       25.4878042534      -16.4273746635  WZ2       3258            0.0000000000
     12200      4067  TIP3      H1             10.2663696015       25.7161742534      -15.8543146635  WZ2       3258            0.0000000000
     12201      4067  TIP3      H2             11.4454896015       24.7740742534      -15.9726246635  WZ2       3258            0.0000000000
     12202      4068  TIP3      OH2            10.8956196015       23.6620642534       -7.3596746635  WZ2       3259            0.0000000000
     12203      4068  TIP3      H1             10.9755296015       24.4255042534       -6.7878246635  WZ2       3259            0.0000000000
     12204      4068  TIP3      H2             10.2943896015       23.9413042534       -8.0501646635  WZ2       3259            0.0000000000
     12205      4069  TIP3      OH2             2.6436396015       26.1184242534      -14.5448746635  WZ2       3260            0.0000000000
     12206      4069  TIP3      H1              2.3131596015       25.7477642534      -15.3631746635  WZ2       3260            0.0000000000
     12207      4069  TIP3      H2              3.2320496015       25.4478242534      -14.1980446635  WZ2       3260            0.0000000000
     12208      4070  TIP3      OH2             4.0103896015       29.5464842534      -11.8636546635  WZ2       3261            0.0000000000
     12209      4070  TIP3      H1              3.9155196015       28.9677942534      -12.6201946635  WZ2       3261            0.0000000000
     12210      4070  TIP3      H2              4.7397496015       29.1750542534      -11.3673746635  WZ2       3261            0.0000000000
     12211      4071  TIP3      OH2             3.0101896015       24.8869842534      -10.9113746635  WZ2       3262            0.0000000000
     12212      4071  TIP3      H1              3.5754396015       25.0084042534      -11.6742546635  WZ2       3262            0.0000000000
     12213      4071  TIP3      H2              3.3290796015       25.5244842534      -10.2725246635  WZ2       3262            0.0000000000
     12214      4072  TIP3      OH2             9.3194096015       30.3901742534      -10.1773246635  WZ2       3263            0.0000000000
     12215      4072  TIP3      H1              9.0790696015       31.0524842534       -9.5294046635  WZ2       3263            0.0000000000
     12216      4072  TIP3      H2              9.1212296015       29.5556942534       -9.7523646635  WZ2       3263            0.0000000000
     12217      4073  TIP3      OH2             3.8902596015       29.2862542534       -6.1941846635  WZ2       3264            0.0000000000
     12218      4073  TIP3      H1              3.5790096015       30.0685742534       -5.7388646635  WZ2       3264            0.0000000000
     12219      4073  TIP3      H2              3.2402796015       29.1331642534       -6.8799846635  WZ2       3264            0.0000000000
     12220      4074  TIP3      OH2             9.8692196015       24.6500942534      -18.7422546635  WZ2       3265            0.0000000000
     12221      4074  TIP3      H1             10.4487696015       24.8001242534      -17.9953646635  WZ2       3265            0.0000000000
     12222      4074  TIP3      H2             10.2832196015       25.1208342534      -19.4656146635  WZ2       3265            0.0000000000
     12223      4075  TIP3      OH2             0.8102496015       25.4843642534       -6.9656146635  WZ2       3266            0.0000000000
     12224      4075  TIP3      H1              0.8805696015       26.1350442534       -6.2671146635  WZ2       3266            0.0000000000
     12225      4075  TIP3      H2             -0.0805303985       25.5871142534       -7.3005246635  WZ2       3266            0.0000000000
     12226      4076  TIP3      OH2             7.5957096015       31.3869442534      -15.3069446635  WZ2       3267            0.0000000000
     12227      4076  TIP3      H1              8.0694696015       31.6825742534      -14.5295246635  WZ2       3267            0.0000000000
     12228      4076  TIP3      H2              7.0326396015       32.1251042534      -15.5399846635  WZ2       3267            0.0000000000
     12229      4077  TIP3      OH2             2.1298496015       31.3577542534       -5.4308046635  WZ2       3268            0.0000000000
     12230      4077  TIP3      H1              2.1373796015       31.2217242534       -6.3782546635  WZ2       3268            0.0000000000
     12231      4077  TIP3      H2              1.2138896015       31.2405642534       -5.1788046635  WZ2       3268            0.0000000000
     12232      4078  TIP3      OH2            13.5680596015       16.4001342534      -18.9292846635  WZ2       3269            0.0000000000
     12233      4078  TIP3      H1             12.6681296015       16.5390342534      -18.6342246635  WZ2       3269            0.0000000000
     12234      4078  TIP3      H2             13.8198996015       17.2315942534      -19.3311146635  WZ2       3269            0.0000000000
     12235      4079  TIP3      OH2             1.6339096015       25.1878542534      -16.9555946635  WZ2       3270            0.0000000000
     12236      4079  TIP3      H1              1.3420396015       25.9560242534      -17.4464646635  WZ2       3270            0.0000000000
     12237      4079  TIP3      H2              0.9594296015       24.5284742534      -17.1184546635  WZ2       3270            0.0000000000
     12238      4080  TIP3      OH2            14.7571996015       30.7663742534      -20.5528946635  WZ2       3271            0.0000000000
     12239      4080  TIP3      H1             14.8305496015       31.7053942534      -20.3823646635  WZ2       3271            0.0000000000
     12240      4080  TIP3      H2             15.6627096015       30.4612342534      -20.6091646635  WZ2       3271            0.0000000000
     12241      4081  TIP3      OH2            -2.2730803985       27.5507742534       -8.1406146635  WZ2       3272            0.0000000000
     12242      4081  TIP3      H1             -2.7742403985       27.5227142534       -8.9556446635  WZ2       3272            0.0000000000
     12243      4081  TIP3      H2             -2.2677103985       26.6450942534       -7.8308846635  WZ2       3272            0.0000000000
     12244      4082  TIP3      OH2            -2.5228103985       30.3311542534      -11.2565946635  WZ2       3273            0.0000000000
     12245      4082  TIP3      H1             -1.5767503985       30.1868542534      -11.2756446635  WZ2       3273            0.0000000000
     12246      4082  TIP3      H2             -2.6351803985       31.1154342534      -10.7194746635  WZ2       3273            0.0000000000
     12247      4083  TIP3      OH2            15.6750396015       30.9971242534       -5.5742246635  WZ2       3274            0.0000000000
     12248      4083  TIP3      H1             15.6257196015       30.0419342534       -5.6114646635  WZ2       3274            0.0000000000
     12249      4083  TIP3      H2             14.8482696015       31.2646542534       -5.1728446635  WZ2       3274            0.0000000000
     12250      4084  TIP3      OH2             6.6534396015       30.5710442534       -6.6980846635  WZ2       3275            0.0000000000
     12251      4084  TIP3      H1              6.7408996015       31.3975042534       -6.2231746635  WZ2       3275            0.0000000000
     12252      4084  TIP3      H2              5.7899496015       30.2414242534       -6.4491546635  WZ2       3275            0.0000000000
     12253      4085  TIP3      OH2             7.0680196015       34.3434142534      -16.8920246635  WZ2       3276            0.0000000000
     12254      4085  TIP3      H1              6.9926196015       34.2221342534      -17.8385046635  WZ2       3276            0.0000000000
     12255      4085  TIP3      H2              7.1008896015       35.2926842534      -16.7735646635  WZ2       3276            0.0000000000
     12256      4086  TIP3      OH2             0.7213996015       33.1321142534      -15.1111246635  WZ2       3277            0.0000000000
     12257      4086  TIP3      H1              0.8734396015       32.7841542534      -14.2324746635  WZ2       3277            0.0000000000
     12258      4086  TIP3      H2             -0.1295603985       32.7758442534      -15.3664046635  WZ2       3277            0.0000000000
     12259      4087  TIP3      OH2            10.1696196015       33.4974342534      -19.8897846635  WZ2       3278            0.0000000000
     12260      4087  TIP3      H1             10.5444596015       32.7530442534      -20.3605246635  WZ2       3278            0.0000000000
     12261      4087  TIP3      H2             10.1739896015       33.2274942534      -18.9714546635  WZ2       3278            0.0000000000
     12262      4088  TIP3      OH2             9.8384296015       33.4231442534      -17.1405646635  WZ2       3279            0.0000000000
     12263      4088  TIP3      H1              8.9034096015       33.5233342534      -16.9618646635  WZ2       3279            0.0000000000
     12264      4088  TIP3      H2             10.1186196015       32.7137442534      -16.5622446635  WZ2       3279            0.0000000000
     12265      4089  TIP3      OH2            12.8270196015       22.4903742534       -5.0940046635  WZ2       3280            0.0000000000
     12266      4089  TIP3      H1             12.4196996015       22.9709342534       -5.8146746635  WZ2       3280            0.0000000000
     12267      4089  TIP3      H2             12.8675896015       21.5849742534       -5.4019246635  WZ2       3280            0.0000000000
     12268      4090  TIP3      OH2            -0.0240303985       28.8743142534       -7.0973346635  WZ2       3281            0.0000000000
     12269      4090  TIP3      H1              0.1920996015       28.5128742534       -6.2377546635  WZ2       3281            0.0000000000
     12270      4090  TIP3      H2             -0.8795603985       28.4996942534       -7.3069846635  WZ2       3281            0.0000000000
     12271      4091  TIP3      OH2             2.5947696015       17.3443642534      -11.1019146635  WZ2       3282            0.0000000000
     12272      4091  TIP3      H1              1.7331396015       17.2571842534      -11.5096246635  WZ2       3282            0.0000000000
     12273      4091  TIP3      H2              2.5723396015       18.2003742534      -10.6741546635  WZ2       3282            0.0000000000
     12274      4092  TIP3      OH2             7.2575496015       17.0664042534       -7.7272146635  WZ2       3283            0.0000000000
     12275      4092  TIP3      H1              7.6778596015       16.6511142534       -6.9741546635  WZ2       3283            0.0000000000
     12276      4092  TIP3      H2              6.3245096015       16.8877342534       -7.6100146635  WZ2       3283            0.0000000000
     12277      4093  TIP3      OH2            10.5840396015       20.8219242534       -6.8737646635  WZ2       3284            0.0000000000
     12278      4093  TIP3      H1             10.0699896015       20.6961442534       -6.0761646635  WZ2       3284            0.0000000000
     12279      4093  TIP3      H2             10.4285096015       21.7342342534       -7.1181446635  WZ2       3284            0.0000000000
     12280      4094  TIP3      OH2            11.3465296015       25.6829242534      -21.1124646635  WZ2       3285            0.0000000000
     12281      4094  TIP3      H1             11.3886096015       25.4603142534      -22.0424646635  WZ2       3285            0.0000000000
     12282      4094  TIP3      H2             12.1957396015       26.0816342534      -20.9224746635  WZ2       3285            0.0000000000
     12283      4095  TIP3      OH2             6.9192796015       19.5587442534      -20.4421346635  WZ2       3286            0.0000000000
     12284      4095  TIP3      H1              6.6657596015       19.5779042534      -19.5193246635  WZ2       3286            0.0000000000
     12285      4095  TIP3      H2              6.6624896015       18.6872842534      -20.7435146635  WZ2       3286            0.0000000000
     12286      4096  TIP3      OH2             2.6857796015       22.3098142534      -10.0068946635  WZ2       3287            0.0000000000
     12287      4096  TIP3      H1              2.0439896015       22.2695442534       -9.2978846635  WZ2       3287            0.0000000000
     12288      4096  TIP3      H2              2.7229796015       23.2362842534      -10.2445946635  WZ2       3287            0.0000000000
     12289      4097  TIP3      OH2             2.6826896015       22.5308242534      -15.0948946635  WZ2       3288            0.0000000000
     12290      4097  TIP3      H1              1.7899796015       22.1904342534      -15.1535146635  WZ2       3288            0.0000000000
     12291      4097  TIP3      H2              3.1333496015       22.1539142534      -15.8505746635  WZ2       3288            0.0000000000
     12292      4098  TIP3      OH2             8.2182396015       22.9468542534      -16.2778146635  WZ2       3289            0.0000000000
     12293      4098  TIP3      H1              7.8092696015       23.7617142534      -16.5693346635  WZ2       3289            0.0000000000
     12294      4098  TIP3      H2              8.9388596015       22.8068642534      -16.8921046635  WZ2       3289            0.0000000000
     12295      4099  TIP3      OH2             7.3203996015       23.1224942534       -4.7897446635  WZ2       3290            0.0000000000
     12296      4099  TIP3      H1              6.7577796015       22.4176542534       -4.4689646635  WZ2       3290            0.0000000000
     12297      4099  TIP3      H2              8.1467396015       23.0016842534       -4.3219846635  WZ2       3290            0.0000000000
     12298      4100  TIP3      OH2             9.2230096015       22.3928942534      -13.4638446635  WZ2       3291            0.0000000000
     12299      4100  TIP3      H1              9.0274596015       22.9985742534      -14.1787846635  WZ2       3291            0.0000000000
     12300      4100  TIP3      H2              9.4042696015       21.5594142534      -13.8982146635  WZ2       3291            0.0000000000
     12301      4101  TIP3      OH2             0.4358296015       22.6301642534       -8.1396946635  WZ2       3292            0.0000000000
     12302      4101  TIP3      H1              0.3977696015       23.0303242534       -7.2709846635  WZ2       3292            0.0000000000
     12303      4101  TIP3      H2             -0.0550603985       21.8134042534       -8.0494046635  WZ2       3292            0.0000000000
     12304      4102  TIP3      OH2             3.8015696015       20.0043942534      -21.3410946635  WZ2       3293            0.0000000000
     12305      4102  TIP3      H1              3.3706396015       19.5594042534      -20.6113546635  WZ2       3293            0.0000000000
     12306      4102  TIP3      H2              3.0834396015       20.3760242534      -21.8533446635  WZ2       3293            0.0000000000
     12307      4103  TIP3      OH2            -2.9560903985       19.7463442534      -14.2892246635  WZ2       3294            0.0000000000
     12308      4103  TIP3      H1             -2.3253203985       19.7175542534      -13.5698346635  WZ2       3294            0.0000000000
     12309      4103  TIP3      H2             -2.5066603985       19.3212142534      -15.0196346635  WZ2       3294            0.0000000000
     12310      4104  TIP3      OH2            -1.6818803985       20.4925442534      -18.8651846635  WZ2       3295            0.0000000000
     12311      4104  TIP3      H1             -1.2077103985       21.0835342534      -19.4500946635  WZ2       3295            0.0000000000
     12312      4104  TIP3      H2             -2.3992403985       21.0228342534      -18.5181746635  WZ2       3295            0.0000000000
     12313      4105  TIP3      OH2             8.4869296015       24.0310242534       -8.7926046635  WZ2       3296            0.0000000000
     12314      4105  TIP3      H1              8.8104096015       23.3999942534       -9.4355546635  WZ2       3296            0.0000000000
     12315      4105  TIP3      H2              8.0468596015       23.4962442534       -8.1318646635  WZ2       3296            0.0000000000
     12316      4106  TIP3      OH2             5.2642196015       19.9585742534      -14.0084846635  WZ2       3297            0.0000000000
     12317      4106  TIP3      H1              4.3533296015       20.0152542534      -13.7198846635  WZ2       3297            0.0000000000
     12318      4106  TIP3      H2              5.7695096015       19.8981242534      -13.1977646635  WZ2       3297            0.0000000000
     12319      4107  TIP3      OH2             0.0925596015       21.5872042534      -15.1817246635  WZ2       3298            0.0000000000
     12320      4107  TIP3      H1             -0.7966403985       21.6867542534      -15.5217646635  WZ2       3298            0.0000000000
     12321      4107  TIP3      H2              0.3890496015       20.7455042534      -15.5279346635  WZ2       3298            0.0000000000
     12322      4108  TIP3      OH2             3.7457396015       21.5874642534      -17.5252646635  WZ2       3299            0.0000000000
     12323      4108  TIP3      H1              4.6772896015       21.7164642534      -17.3469546635  WZ2       3299            0.0000000000
     12324      4108  TIP3      H2              3.5307696015       22.2568942534      -18.1747946635  WZ2       3299            0.0000000000
     12325      4109  TIP3      OH2             9.6694096015       19.1932042534      -10.7443046635  WZ2       3300            0.0000000000
     12326      4109  TIP3      H1              8.9925696015       19.3245142534      -10.0803346635  WZ2       3300            0.0000000000
     12327      4109  TIP3      H2              9.1838996015       19.0381542534      -11.5545346635  WZ2       3300            0.0000000000
     12328      4110  TIP3      OH2             2.4197596015       22.7816842534      -19.9586546635  WZ2       3301            0.0000000000
     12329      4110  TIP3      H1              1.8772696015       22.4020642534      -20.6498946635  WZ2       3301            0.0000000000
     12330      4110  TIP3      H2              3.2532496015       22.9761542534      -20.3872446635  WZ2       3301            0.0000000000
     12331      4111  TIP3      OH2            12.9569196015       34.8647442534       -4.4675446635  WZ2       3302            0.0000000000
     12332      4111  TIP3      H1             13.1567896015       35.2889342534       -5.3020146635  WZ2       3302            0.0000000000
     12333      4111  TIP3      H2             13.6122896015       35.2085642534       -3.8605046635  WZ2       3302            0.0000000000
     12334      4112  TIP3      OH2             0.5548996015       27.3388742534       -4.8594946635  WZ2       3303            0.0000000000
     12335      4112  TIP3      H1              1.2871396015       27.5934642534       -4.2980446635  WZ2       3303            0.0000000000
     12336      4112  TIP3      H2             -0.2252303985       27.5434142534       -4.3439546635  WZ2       3303            0.0000000000
     12337      4113  TIP3      OH2             6.5841896015       22.7458742534      -12.1215246635  WZ2       3304            0.0000000000
     12338      4113  TIP3      H1              7.1485296015       22.1995342534      -12.6685646635  WZ2       3304            0.0000000000
     12339      4113  TIP3      H2              6.4365296015       22.2240642534      -11.3327646635  WZ2       3304            0.0000000000
     12340      4114  TIP3      OH2             1.5861596015       18.8824842534      -15.7030446635  WZ2       3305            0.0000000000
     12341      4114  TIP3      H1              1.2691096015       17.9800142534      -15.7385046635  WZ2       3305            0.0000000000
     12342      4114  TIP3      H2              2.3675696015       18.8842242534      -16.2558846635  WZ2       3305            0.0000000000
     12343      4115  TIP3      OH2             5.2107796015       21.1344842534       -9.7074846635  WZ2       3306            0.0000000000
     12344      4115  TIP3      H1              4.3753096015       21.5884342534       -9.5972446635  WZ2       3306            0.0000000000
     12345      4115  TIP3      H2              5.7348396015       21.4103342534       -8.9554946635  WZ2       3306            0.0000000000
     12346      4116  TIP3      OH2             5.7550396015       27.3472542534      -18.0228446635  WZ2       3307            0.0000000000
     12347      4116  TIP3      H1              5.0101396015       26.8397842534      -18.3450546635  WZ2       3307            0.0000000000
     12348      4116  TIP3      H2              5.6207596015       27.3960542534      -17.0763646635  WZ2       3307            0.0000000000
     12349      4117  TIP3      OH2            12.9049296015       26.4800742534       -9.2360846635  WZ2       3308            0.0000000000
     12350      4117  TIP3      H1             13.5468096015       26.9367042534       -9.7798646635  WZ2       3308            0.0000000000
     12351      4117  TIP3      H2             12.0746196015       26.5933142534       -9.6986746635  WZ2       3308            0.0000000000
     12352      4118  TIP3      OH2             9.6527196015       20.1612442534      -19.8235846635  WZ2       3309            0.0000000000
     12353      4118  TIP3      H1              8.7141396015       20.2728042534      -19.9747046635  WZ2       3309            0.0000000000
     12354      4118  TIP3      H2              9.9499296015       21.0179342534      -19.5170146635  WZ2       3309            0.0000000000
     12355      4119  TIP3      OH2             7.2742496015       27.5315842534       -6.7859346635  WZ2       3310            0.0000000000
     12356      4119  TIP3      H1              6.9288596015       27.1498242534       -5.9789746635  WZ2       3310            0.0000000000
     12357      4119  TIP3      H2              7.0742596015       28.4649442534       -6.7146446635  WZ2       3310            0.0000000000
     12358      4120  TIP3      OH2            10.3710696015       22.0285142534      -18.1628446635  WZ2       3311            0.0000000000
     12359      4120  TIP3      H1             11.2629696015       21.8910142534      -17.8437246635  WZ2       3311            0.0000000000
     12360      4120  TIP3      H2             10.4274296015       22.8191242534      -18.6994946635  WZ2       3311            0.0000000000
     12361      4121  TIP3      OH2             0.8798696015       26.6422542534      -12.2530546635  WZ2       3312            0.0000000000
     12362      4121  TIP3      H1              1.6245896015       26.6398242534      -12.8544046635  WZ2       3312            0.0000000000
     12363      4121  TIP3      H2              0.9575296015       25.8186342534      -11.7715446635  WZ2       3312            0.0000000000
     12364      4122  TIP3      OH2             7.8804496015       28.8056842534      -18.9973846635  WZ2       3313            0.0000000000
     12365      4122  TIP3      H1              7.5852896015       29.6324742534      -18.6159046635  WZ2       3313            0.0000000000
     12366      4122  TIP3      H2              7.1774496015       28.1863742534      -18.8012446635  WZ2       3313            0.0000000000
     12367      4123  TIP3      OH2            -2.1121603985       25.1029442534       -6.9382046635  WZ2       3314            0.0000000000
     12368      4123  TIP3      H1             -1.8893003985       24.6849042534       -6.1064546635  WZ2       3314            0.0000000000
     12369      4123  TIP3      H2             -2.7141503985       24.4904442534       -7.3609246635  WZ2       3314            0.0000000000
     12370      4124  TIP3      OH2             4.9043296015       24.6199342534       -4.7252346635  WZ2       3315            0.0000000000
     12371      4124  TIP3      H1              4.6084096015       24.4542342534       -5.6203246635  WZ2       3315            0.0000000000
     12372      4124  TIP3      H2              5.8358496015       24.3999642534       -4.7358446635  WZ2       3315            0.0000000000
     12373      4125  TIP3      OH2             9.5246096015       29.9931342534       -6.8354346635  WZ2       3316            0.0000000000
     12374      4125  TIP3      H1              8.6240396015       30.1763942534       -7.1030446635  WZ2       3316            0.0000000000
     12375      4125  TIP3      H2              9.5587196015       30.2520642534       -5.9145546635  WZ2       3316            0.0000000000
     12376      4126  TIP3      OH2            15.2559396015       22.2379242534      -18.4681746635  WZ2       3317            0.0000000000
     12377      4126  TIP3      H1             14.7015696015       21.8417242534      -19.1404246635  WZ2       3317            0.0000000000
     12378      4126  TIP3      H2             15.3562996015       23.1484442534      -18.7458446635  WZ2       3317            0.0000000000
     12379      4127  TIP3      OH2            15.2191396015       28.0380942534       -5.6310246635  WZ2       3318            0.0000000000
     12380      4127  TIP3      H1             14.3679896015       28.2764742534       -5.9983846635  WZ2       3318            0.0000000000
     12381      4127  TIP3      H2             15.8094796015       28.0214142534       -6.3843146635  WZ2       3318            0.0000000000
     12382      4128  TIP3      OH2            13.5511096015       31.0239642534      -18.0029646635  WZ2       3319            0.0000000000
     12383      4128  TIP3      H1             13.1782196015       30.1983442534      -17.6939046635  WZ2       3319            0.0000000000
     12384      4128  TIP3      H2             13.8284596015       30.8409042534      -18.9006246635  WZ2       3319            0.0000000000
     12385      4129  TIP3      OH2            10.7114996015       25.8319142534      -10.9817746635  WZ2       3320            0.0000000000
     12386      4129  TIP3      H1              9.7831896015       25.6001042534      -11.0088446635  WZ2       3320            0.0000000000
     12387      4129  TIP3      H2             11.1626096015       25.0548942534      -11.3118946635  WZ2       3320            0.0000000000
     12388      4130  TIP3      OH2             3.2548096015       30.1600742534      -14.8489046635  WZ2       3321            0.0000000000
     12389      4130  TIP3      H1              3.7820296015       30.9335142534      -15.0490246635  WZ2       3321            0.0000000000
     12390      4130  TIP3      H2              2.3746596015       30.3849942534      -15.1505046635  WZ2       3321            0.0000000000
     12391      4131  TIP3      OH2            -0.9904203985       25.0224842534      -20.2616646635  WZ2       3322            0.0000000000
     12392      4131  TIP3      H1             -0.3744303985       25.6492042534      -19.8821846635  WZ2       3322            0.0000000000
     12393      4131  TIP3      H2             -1.8521603985       25.3384642534      -19.9900146635  WZ2       3322            0.0000000000
     12394      4132  TIP3      OH2             4.6820396015       27.8230642534      -15.2724746635  WZ2       3323            0.0000000000
     12395      4132  TIP3      H1              4.4410396015       28.7485042534      -15.2309446635  WZ2       3323            0.0000000000
     12396      4132  TIP3      H2              3.9413996015       27.3641942534      -14.8760846635  WZ2       3323            0.0000000000
     12397      4133  TIP3      OH2             5.1966996015       31.9724242534       -8.9573646635  WZ2       3324            0.0000000000
     12398      4133  TIP3      H1              5.5591696015       32.8269842534       -9.1909246635  WZ2       3324            0.0000000000
     12399      4133  TIP3      H2              5.7282196015       31.6805842534       -8.2167346635  WZ2       3324            0.0000000000
     12400      4134  TIP3      OH2             3.3651196015       32.8448242534      -15.7272546635  WZ2       3325            0.0000000000
     12401      4134  TIP3      H1              2.4151696015       32.9505642534      -15.6759246635  WZ2       3325            0.0000000000
     12402      4134  TIP3      H2              3.7169296015       33.6655642534      -15.3825046635  WZ2       3325            0.0000000000
     12403      4135  TIP3      OH2             8.7407796015       28.0714942534       -9.2568046635  WZ2       3326            0.0000000000
     12404      4135  TIP3      H1              8.3149096015       27.8436642534       -8.4304046635  WZ2       3326            0.0000000000
     12405      4135  TIP3      H2              9.3213596015       27.3326742534       -9.4392746635  WZ2       3326            0.0000000000
     12406      4136  TIP3      OH2            10.9436696015       29.0005442534      -20.1829046635  WZ2       3327            0.0000000000
     12407      4136  TIP3      H1             11.2969796015       28.6205242534      -19.3785546635  WZ2       3327            0.0000000000
     12408      4136  TIP3      H2              9.9950196015       28.9070242534      -20.0959746635  WZ2       3327            0.0000000000
     12409      4137  TIP3      OH2            11.3991996015       32.6234442534       -6.7873246635  WZ2       3328            0.0000000000
     12410      4137  TIP3      H1             10.7975196015       32.0677342534       -7.2826946635  WZ2       3328            0.0000000000
     12411      4137  TIP3      H2             11.6805696015       33.2904242534       -7.4135846635  WZ2       3328            0.0000000000
     12412      4138  TIP3      OH2            15.4471096015       33.4797942534      -19.9818846635  WZ2       3329            0.0000000000
     12413      4138  TIP3      H1             16.1908996015       34.0658442534      -20.1217246635  WZ2       3329            0.0000000000
     12414      4138  TIP3      H2             14.7529196015       34.0483742534      -19.6486446635  WZ2       3329            0.0000000000
     12415      4139  TIP3      OH2            -0.4782103985       19.8562142534       -7.3800646635  WZ2       3330            0.0000000000
     12416      4139  TIP3      H1             -1.3709803985       20.1947542534       -7.4476646635  WZ2       3330            0.0000000000
     12417      4139  TIP3      H2             -0.5769303985       19.0008242534       -6.9619846635  WZ2       3330            0.0000000000
     12418      4140  TIP3      OH2            11.8095996015       27.6727442534      -17.9561146635  WZ2       3331            0.0000000000
     12419      4140  TIP3      H1             11.5323596015       26.9446742534      -17.4000046635  WZ2       3331            0.0000000000
     12420      4140  TIP3      H2             12.7368996015       27.7919442534      -17.7508546635  WZ2       3331            0.0000000000
     12421      4141  TIP3      OH2            -0.8270103985       31.6606542534       -8.9451246635  WZ2       3332            0.0000000000
     12422      4141  TIP3      H1             -0.6099803985       30.7288942534       -8.9761546635  WZ2       3332            0.0000000000
     12423      4141  TIP3      H2             -0.5806603985       31.9351542534       -8.0618446635  WZ2       3332            0.0000000000
     12424      4142  TIP3      OH2             5.0344496015       30.1121542534      -21.7359046635  WZ2       3333            0.0000000000
     12425      4142  TIP3      H1              5.2734296015       29.3639642534      -22.2830146635  WZ2       3333            0.0000000000
     12426      4142  TIP3      H2              4.7655796015       29.7243242534      -20.9031246635  WZ2       3333            0.0000000000
     12427      4143  TIP3      OH2             3.9715096015       29.6825342534      -19.2796446635  WZ2       3334            0.0000000000
     12428      4143  TIP3      H1              4.1183096015       29.1625142534      -18.4895546635  WZ2       3334            0.0000000000
     12429      4143  TIP3      H2              3.9686796015       30.5892942534      -18.9730546635  WZ2       3334            0.0000000000
     12430      4144  TIP3      OH2             0.4246196015       26.9348642534      -18.7691046635  WZ2       3335            0.0000000000
     12431      4144  TIP3      H1             -0.2614503985       27.2871142534      -18.2021346635  WZ2       3335            0.0000000000
     12432      4144  TIP3      H2              0.9474096015       27.6978242534      -19.0156746635  WZ2       3335            0.0000000000
     12433      4145  TIP3      OH2             8.2561296015       19.5972442534       -8.4902046635  WZ2       3336            0.0000000000
     12434      4145  TIP3      H1              8.9549196015       19.6711142534       -7.8402346635  WZ2       3336            0.0000000000
     12435      4145  TIP3      H2              7.8752696015       18.7327442534       -8.3359146635  WZ2       3336            0.0000000000
     12436      4146  TIP3      OH2             9.0406196015       19.2494142534      -17.3929746635  WZ2       3337            0.0000000000
     12437      4146  TIP3      H1              9.2604496015       19.7209542534      -18.1964346635  WZ2       3337            0.0000000000
     12438      4146  TIP3      H2              9.5990196015       19.6436742534      -16.7229146635  WZ2       3337            0.0000000000
     12439      4147  TIP3      OH2             6.7092296015       31.3798942534      -18.5302246635  WZ2       3338            0.0000000000
     12440      4147  TIP3      H1              5.8928396015       31.8768642534      -18.4777946635  WZ2       3338            0.0000000000
     12441      4147  TIP3      H2              7.2388596015       31.8552442534      -19.1703446635  WZ2       3338            0.0000000000
     12442      4148  TIP3      OH2             6.2406096015       20.9772942534      -16.5581346635  WZ2       3339            0.0000000000
     12443      4148  TIP3      H1              7.0528696015       21.4816142534      -16.5119646635  WZ2       3339            0.0000000000
     12444      4148  TIP3      H2              5.9959096015       20.8322642534      -15.6441746635  WZ2       3339            0.0000000000
     12445      4149  TIP3      OH2             6.7762496015       21.9635642534       -7.3734746635  WZ2       3340            0.0000000000
     12446      4149  TIP3      H1              6.8952796015       22.5371042534       -6.6164346635  WZ2       3340            0.0000000000
     12447      4149  TIP3      H2              7.4317096015       21.2755042534       -7.2586946635  WZ2       3340            0.0000000000
     12448      4150  TIP3      OH2             7.1242796015       18.0585942534      -15.6200246635  WZ2       3341            0.0000000000
     12449      4150  TIP3      H1              6.7776296015       18.6756542534      -14.9755946635  WZ2       3341            0.0000000000
     12450      4150  TIP3      H2              7.7829696015       18.5591642534      -16.1014746635  WZ2       3341            0.0000000000
     12451      4151  TIP3      OH2             4.0475396015       32.4236142534      -18.5485346635  WZ2       3342            0.0000000000
     12452      4151  TIP3      H1              4.2084096015       33.2233642534      -19.0492746635  WZ2       3342            0.0000000000
     12453      4151  TIP3      H2              3.8503196015       32.7302142534      -17.6634746635  WZ2       3342            0.0000000000
     12454      4152  TIP3      OH2             2.7819796015       19.1215342534      -18.9327746635  WZ2       3343            0.0000000000
     12455      4152  TIP3      H1              2.6984596015       20.0098442534      -18.5861346635  WZ2       3343            0.0000000000
     12456      4152  TIP3      H2              3.6720096015       18.8562042534      -18.7010946635  WZ2       3343            0.0000000000
     12457      4153  TIP3      OH2            12.9808296015       19.8705942534       -6.5385046635  WZ2       3344            0.0000000000
     12458      4153  TIP3      H1             12.0644096015       20.1327642534       -6.6261346635  WZ2       3344            0.0000000000
     12459      4153  TIP3      H2             13.3163296015       19.8674942534       -7.4349746635  WZ2       3344            0.0000000000
     12460      4154  TIP3      OH2            11.5829296015       23.6206942534      -12.4427746635  WZ2       3345            0.0000000000
     12461      4154  TIP3      H1             10.7853696015       23.2057142534      -12.7712746635  WZ2       3345            0.0000000000
     12462      4154  TIP3      H2             12.0280396015       22.9300642534      -11.9517246635  WZ2       3345            0.0000000000
     12463      4155  TIP3      OH2             1.0405096015       29.5487542534      -19.8723246635  WZ2       3346            0.0000000000
     12464      4155  TIP3      H1              1.6326596015       30.2482342534      -19.5960846635  WZ2       3346            0.0000000000
     12465      4155  TIP3      H2              1.4998096015       29.1157042534      -20.5918646635  WZ2       3346            0.0000000000
     12466      4156  TIP3      OH2            -0.6435703985       22.2130542534      -20.7563846635  WZ2       3347            0.0000000000
     12467      4156  TIP3      H1             -0.6883103985       23.1523642534      -20.5776846635  WZ2       3347            0.0000000000
     12468      4156  TIP3      H2             -1.5312503985       21.9775442534      -21.0261746635  WZ2       3347            0.0000000000
     12469      4157  TIP3      OH2            12.6693896015       32.8769442534      -10.8204246635  WZ2       3348            0.0000000000
     12470      4157  TIP3      H1             12.5138196015       33.5553842534      -11.4774946635  WZ2       3348            0.0000000000
     12471      4157  TIP3      H2             13.6020296015       32.9488742534      -10.6173646635  WZ2       3348            0.0000000000
     12472      4158  TIP3      OH2             0.1646296015       16.9947142534      -12.0832846635  WZ2       3349            0.0000000000
     12473      4158  TIP3      H1             -0.0643903985       17.0539642534      -13.0107846635  WZ2       3349            0.0000000000
     12474      4158  TIP3      H2             -0.2780303985       16.2032642534      -11.7768746635  WZ2       3349            0.0000000000
     12475      4159  TIP3      OH2            -0.9050403985       30.9354242534      -15.9227046635  WZ2       3350            0.0000000000
     12476      4159  TIP3      H1             -1.7371803985       31.4076942534      -15.8955646635  WZ2       3350            0.0000000000
     12477      4159  TIP3      H2             -0.3592103985       31.4451842534      -16.5213946635  WZ2       3350            0.0000000000
     12478      4160  TIP3      OH2            -1.6166703985       33.5477942534       -4.5929046635  WZ2       3351            0.0000000000
     12479      4160  TIP3      H1             -1.0764503985       33.3311942534       -3.8329846635  WZ2       3351            0.0000000000
     12480      4160  TIP3      H2             -2.0978703985       32.7423942534       -4.7826546635  WZ2       3351            0.0000000000
     12481      4161  TIP3      OH2             2.9806696015       32.4672342534       -2.9724846635  WZ2       3352            0.0000000000
     12482      4161  TIP3      H1              3.7483896015       32.0083142534       -2.6315646635  WZ2       3352            0.0000000000
     12483      4161  TIP3      H2              2.9592896015       32.2412142534       -3.9023646635  WZ2       3352            0.0000000000
     12484      4162  TIP3      OH2             7.0726296015       31.9752942534      -21.5973046635  WZ2       3353            0.0000000000
     12485      4162  TIP3      H1              6.4287296015       31.3441542534      -21.2759346635  WZ2       3353            0.0000000000
     12486      4162  TIP3      H2              7.8344596015       31.4440942534      -21.8289546635  WZ2       3353            0.0000000000
     12487      4163  TIP3      OH2             9.5575396015       30.8473442534       -4.2433346635  WZ2       3354            0.0000000000
     12488      4163  TIP3      H1              9.2064896015       29.9906442534       -4.0002946635  WZ2       3354            0.0000000000
     12489      4163  TIP3      H2             10.2838596015       30.9900142534       -3.6364346635  WZ2       3354            0.0000000000
     12490      4164  TIP3      OH2            11.6769196015       31.7922842534      -21.3635046635  WZ2       3355            0.0000000000
     12491      4164  TIP3      H1             11.9599596015       30.9978042534      -20.9108146635  WZ2       3355            0.0000000000
     12492      4164  TIP3      H2             12.4167096015       32.0253842534      -21.9243946635  WZ2       3355            0.0000000000
     12493      4165  TIP3      OH2            -1.7097203985       27.3582042534       -3.6384746635  WZ2       3356            0.0000000000
     12494      4165  TIP3      H1             -1.5656703985       26.4562742534       -3.9248046635  WZ2       3356            0.0000000000
     12495      4165  TIP3      H2             -2.4819803985       27.6444142534       -4.1262446635  WZ2       3356            0.0000000000
     12496      4166  TIP3      OH2             2.6316496015       27.7017742534      -21.5060146635  WZ2       3357            0.0000000000
     12497      4166  TIP3      H1              2.6960596015       26.9077342534      -20.9753746635  WZ2       3357            0.0000000000
     12498      4166  TIP3      H2              3.2845696015       27.5830542534      -22.1958146635  WZ2       3357            0.0000000000
     12499      4167  TIP3      OH2             4.9458896015       27.3280142534       -4.2058346635  WZ2       3358            0.0000000000
     12500      4167  TIP3      H1              4.6172696015       27.5988242534       -5.0630946635  WZ2       3358            0.0000000000
     12501      4167  TIP3      H2              5.0977096015       26.3869942534       -4.2933346635  WZ2       3358            0.0000000000
     12502      4168  TIP3      OH2             7.9839896015       28.7489442534      -21.7702146635  WZ2       3359            0.0000000000
     12503      4168  TIP3      H1              7.7153996015       28.9291542534      -20.8693246635  WZ2       3359            0.0000000000
     12504      4168  TIP3      H2              7.7775496015       27.8235642534      -21.9016346635  WZ2       3359            0.0000000000
     12505      4169  TIP3      OH2            10.6804096015       27.2437442534       -6.8226046635  WZ2       3360            0.0000000000
     12506      4169  TIP3      H1             11.4258896015       27.8321142534       -6.9422046635  WZ2       3360            0.0000000000
     12507      4169  TIP3      H2              9.9230896015       27.8257142534       -6.7592946635  WZ2       3360            0.0000000000
     12508      4170  TIP3      OH2            -0.8770703985       24.5585342534       -4.2185446635  WZ2       3361            0.0000000000
     12509      4170  TIP3      H1             -0.4689503985       23.7011942534       -4.3394846635  WZ2       3361            0.0000000000
     12510      4170  TIP3      H2             -1.1373103985       24.5726642534       -3.2975146635  WZ2       3361            0.0000000000
     12511      4171  TIP3      OH2             3.7810296015       25.6743942534      -19.2002146635  WZ2       3362            0.0000000000
     12512      4171  TIP3      H1              3.3212296015       25.1902242534      -18.5143646635  WZ2       3362            0.0000000000
     12513      4171  TIP3      H2              4.0358996015       25.0059342534      -19.8361646635  WZ2       3362            0.0000000000
     12514      4172  TIP3      OH2             3.0699596015       23.5671042534       -6.8442546635  WZ2       3363            0.0000000000
     12515      4172  TIP3      H1              2.4515696015       24.2417642534       -6.5637846635  WZ2       3363            0.0000000000
     12516      4172  TIP3      H2              3.4140796015       23.8884942534       -7.6776346635  WZ2       3363            0.0000000000
     12517      4173  TIP3      OH2             4.8520696015       23.9175742534      -20.9378946635  WZ2       3364            0.0000000000
     12518      4173  TIP3      H1              4.6715696015       23.7626942534      -21.8650646635  WZ2       3364            0.0000000000
     12519      4173  TIP3      H2              5.8021196015       24.0254442534      -20.8931046635  WZ2       3364            0.0000000000
     12520      4174  TIP3      OH2             8.0897796015       26.0386342534       -3.5667746635  WZ2       3365            0.0000000000
     12521      4174  TIP3      H1              9.0428996015       26.1225442534       -3.5941746635  WZ2       3365            0.0000000000
     12522      4174  TIP3      H2              7.9292396015       25.3268142534       -2.9472846635  WZ2       3365            0.0000000000
     12523      4175  TIP3      OH2            14.2418996015       26.2719942534      -21.4920846635  WZ2       3366            0.0000000000
     12524      4175  TIP3      H1             13.9683796015       25.8475442534      -22.3052546635  WZ2       3366            0.0000000000
     12525      4175  TIP3      H2             14.2813096015       27.2034442534      -21.7090446635  WZ2       3366            0.0000000000
     12526      4176  TIP3      OH2             3.4093296015       20.9221842534       -5.7619446635  WZ2       3367            0.0000000000
     12527      4176  TIP3      H1              3.5594196015       20.1933142534       -6.3639746635  WZ2       3367            0.0000000000
     12528      4176  TIP3      H2              3.4115696015       21.6993542534       -6.3207246635  WZ2       3367            0.0000000000
     12529      4177  TIP3      OH2             3.8218996015       19.2917642534       -8.2692046635  WZ2       3368            0.0000000000
     12530      4177  TIP3      H1              4.3576496015       19.7434342534       -8.9212746635  WZ2       3368            0.0000000000
     12531      4177  TIP3      H2              2.9698596015       19.1837442534       -8.6917946635  WZ2       3368            0.0000000000
     12532      4178  TIP3      OH2             5.4037396015       24.7313842534       -8.0296846635  WZ2       3369            0.0000000000
     12533      4178  TIP3      H1              6.1542196015       24.5751342534       -8.6029046635  WZ2       3369            0.0000000000
     12534      4178  TIP3      H2              5.0645696015       25.5830442534       -8.3051346635  WZ2       3369            0.0000000000
     12535      4179  TIP3      OH2             9.8193596015       22.5465642534       -3.0011546635  WZ2       3370            0.0000000000
     12536      4179  TIP3      H1             10.0114896015       21.6155042534       -3.1127046635  WZ2       3370            0.0000000000
     12537      4179  TIP3      H2             10.6769896015       22.9715142534       -3.0116146635  WZ2       3370            0.0000000000
     12538      4180  TIP3      OH2            11.1360796015       25.3350842534       -4.9238846635  WZ2       3371            0.0000000000
     12539      4180  TIP3      H1             10.8545796015       26.0445442534       -5.5015046635  WZ2       3371            0.0000000000
     12540      4180  TIP3      H2             12.0785096015       25.2623842534       -5.0747646635  WZ2       3371            0.0000000000
     12541      4181  TIP3      OH2             1.8879596015       22.1205342534       -3.8503846635  WZ2       3372            0.0000000000
     12542      4181  TIP3      H1              1.1208596015       21.5880142534       -4.0606246635  WZ2       3372            0.0000000000
     12543      4181  TIP3      H2              2.5668596015       21.8105742534       -4.4497546635  WZ2       3372            0.0000000000
     12544      4182  TIP3      OH2             4.6274496015       16.7483342534       -7.8378446635  WZ2       3373            0.0000000000
     12545      4182  TIP3      H1              4.5294096015       17.6946542534       -7.9432246635  WZ2       3373            0.0000000000
     12546      4182  TIP3      H2              3.8850696015       16.3757142534       -8.3134946635  WZ2       3373            0.0000000000
     12547      4183  TIP3      OH2             5.8914996015       21.0698742534       -4.2740046635  WZ2       3374            0.0000000000
     12548      4183  TIP3      H1              5.6560396015       20.8505442534       -3.3725146635  WZ2       3374            0.0000000000
     12549      4183  TIP3      H2              5.1081896015       20.8629942534       -4.7837546635  WZ2       3374            0.0000000000
     12550      4184  TIP3      OH2             8.6071596015       20.1972242534       -5.1986546635  WZ2       3375            0.0000000000
     12551      4184  TIP3      H1              7.6596996015       20.2291942534       -5.0663246635  WZ2       3375            0.0000000000
     12552      4184  TIP3      H2              8.9198296015       19.5719342534       -4.5448346635  WZ2       3375            0.0000000000
     12553      4185  TIP3      OH2            10.2413096015       18.8313342534       -3.1934646635  WZ2       3376            0.0000000000
     12554      4185  TIP3      H1             10.1444896015       17.8790642534       -3.1992746635  WZ2       3376            0.0000000000
     12555      4185  TIP3      H2              9.9196196015       19.1000142534       -2.3329146635  WZ2       3376            0.0000000000
     12556      4186  TIP3      OH2             0.0682396015       20.0409142534       -4.1459146635  WZ2       3377            0.0000000000
     12557      4186  TIP3      H1              0.2799796015       19.3345242534       -4.7561646635  WZ2       3377            0.0000000000
     12558      4186  TIP3      H2             -0.0430103985       19.6035142534       -3.3017946635  WZ2       3377            0.0000000000
     12559      4187  TIP3      OH2             4.8492596015       16.0420742534       -5.1665646635  WZ2       3378            0.0000000000
     12560      4187  TIP3      H1              5.5610996015       15.4022942534       -5.1806546635  WZ2       3378            0.0000000000
     12561      4187  TIP3      H2              4.7482996015       16.3089042534       -6.0802546635  WZ2       3378            0.0000000000
     12562      4188  TIP3      OH2             5.2030096015       17.7249142534       -3.1129346635  WZ2       3379            0.0000000000
     12563      4188  TIP3      H1              5.0712296015       17.2492942534       -3.9330846635  WZ2       3379            0.0000000000
     12564      4188  TIP3      H2              4.6037496015       18.4692742534       -3.1682246635  WZ2       3379            0.0000000000
     12565      4189  TIP3      OH2             4.7492396015       34.6079442534      -19.9365346635  WZ2       3380            0.0000000000
     12566      4189  TIP3      H1              5.6823096015       34.7658142534      -19.7926946635  WZ2       3380            0.0000000000
     12567      4189  TIP3      H2              4.4851196015       35.2832442534      -20.5613846635  WZ2       3380            0.0000000000
     12568      4190  TIP3      OH2            -1.6822703985       29.2443242534      -20.4537246635  WZ2       3381            0.0000000000
     12569      4190  TIP3      H1             -0.7683503985       29.3232142534      -20.1803346635  WZ2       3381            0.0000000000
     12570      4190  TIP3      H2             -1.6749603985       28.5572842534      -21.1201646635  WZ2       3381            0.0000000000
     12571      4191  TIP3      OH2            -3.0332103985       34.6371742534      -15.3763346635  WZ2       3382            0.0000000000
     12572      4191  TIP3      H1             -3.6805003985       34.1753442534      -15.9092146635  WZ2       3382            0.0000000000
     12573      4191  TIP3      H2             -2.6787503985       33.9655042534      -14.7937146635  WZ2       3382            0.0000000000
     12574      4192  TIP3      OH2            -2.1632903985       32.7178742534      -13.5717146635  WZ2       3383            0.0000000000
     12575      4192  TIP3      H1             -2.4976103985       31.8376042534      -13.3996946635  WZ2       3383            0.0000000000
     12576      4192  TIP3      H2             -1.9410503985       33.0633742534      -12.7071546635  WZ2       3383            0.0000000000
     12577      4193  TIP3      OH2            15.3851896015       33.5275142534      -10.5912346635  WZ2       3384            0.0000000000
     12578      4193  TIP3      H1             15.3638596015       33.7123542534       -9.6522946635  WZ2       3384            0.0000000000
     12579      4193  TIP3      H2             16.0758096015       34.0959142534      -10.9320946635  WZ2       3384            0.0000000000
     12580      4194  TIP3      OH2            14.9484796015       33.0946242534       -7.6693246635  WZ2       3385            0.0000000000
     12581      4194  TIP3      H1             14.4613496015       32.3590342534       -8.0405846635  WZ2       3385            0.0000000000
     12582      4194  TIP3      H2             15.4977496015       32.7010142534       -6.9913846635  WZ2       3385            0.0000000000
     12583      4195  TIP3      OH2            13.3992096015       28.8844342534       -3.0312946635  WZ2       3386            0.0000000000
     12584      4195  TIP3      H1             12.5333196015       28.7794042534       -2.6370646635  WZ2       3386            0.0000000000
     12585      4195  TIP3      H2             13.7757996015       29.6427642534       -2.5848246635  WZ2       3386            0.0000000000
     12586      4196  TIP3      OH2            14.7001796015       27.1408042534      -17.5170446635  WZ2       3387            0.0000000000
     12587      4196  TIP3      H1             15.5503196015       27.5618942534      -17.3898846635  WZ2       3387            0.0000000000
     12588      4196  TIP3      H2             14.7056896015       26.4008142534      -16.9099046635  WZ2       3387            0.0000000000
     12589      4197  TIP3      OH2            15.0947396015       25.1945442534      -15.6934746635  WZ2       3388            0.0000000000
     12590      4197  TIP3      H1             14.3681996015       24.7148042534      -15.2957146635  WZ2       3388            0.0000000000
     12591      4197  TIP3      H2             15.6760696015       25.4000142534      -14.9613146635  WZ2       3388            0.0000000000
     12592      4198  TIP3      OH2            14.8538596015       27.9792942534      -10.7457146635  WZ2       3389            0.0000000000
     12593      4198  TIP3      H1             15.6872796015       27.6012942534      -11.0263546635  WZ2       3389            0.0000000000
     12594      4198  TIP3      H2             14.9658896015       28.9224142534      -10.8648046635  WZ2       3389            0.0000000000
     12595      4199  TIP3      OH2            13.3400896015       30.8570442534       -8.4388746635  WZ2       3390            0.0000000000
     12596      4199  TIP3      H1             12.6926196015       31.1821942534       -7.8133546635  WZ2       3390            0.0000000000
     12597      4199  TIP3      H2             12.8224896015       30.4168142534       -9.1130446635  WZ2       3390            0.0000000000
     12598      4200  TIP3      OH2            15.3630496015       25.0953942534      -19.3023446635  WZ2       3391            0.0000000000
     12599      4200  TIP3      H1             14.8411596015       25.4518042534      -20.0212546635  WZ2       3391            0.0000000000
     12600      4200  TIP3      H2             15.3299696015       25.7701742534      -18.6242546635  WZ2       3391            0.0000000000
     12601      4201  TIP3      OH2            13.7119496015       22.3349542534      -20.7516346635  WZ2       3392            0.0000000000
     12602      4201  TIP3      H1             13.8083896015       23.0016542534      -21.4316646635  WZ2       3392            0.0000000000
     12603      4201  TIP3      H2             13.5719096015       21.5195842534      -21.2330846635  WZ2       3392            0.0000000000
     12604      4202  TIP3      OH2            12.8814196015       23.7151942534      -15.1306046635  WZ2       3393            0.0000000000
     12605      4202  TIP3      H1             12.7312996015       22.7700542534      -15.1508246635  WZ2       3393            0.0000000000
     12606      4202  TIP3      H2             12.5278696015       23.9963342534      -14.2866946635  WZ2       3393            0.0000000000
     12607      4203  TIP3      OH2            -2.0833403985       25.7934142534      -11.1202246635  WZ2       3394            0.0000000000
     12608      4203  TIP3      H1             -1.8990503985       25.7115842534      -12.0559346635  WZ2       3394            0.0000000000
     12609      4203  TIP3      H2             -1.2340503985       25.6691142534      -10.6965846635  WZ2       3394            0.0000000000
     12610      4204  TIP3      OH2            13.7377096015       25.6855242534       -5.4917746635  WZ2       3395            0.0000000000
     12611      4204  TIP3      H1             14.3204396015       24.9507542534       -5.3000546635  WZ2       3395            0.0000000000
     12612      4204  TIP3      H2             14.3016396015       26.4575542534       -5.4451946635  WZ2       3395            0.0000000000
     12613      4205  TIP3      OH2            15.2344196015       23.5881042534       -4.8072346635  WZ2       3396            0.0000000000
     12614      4205  TIP3      H1             14.3710896015       23.2093142534       -4.9727646635  WZ2       3396            0.0000000000
     12615      4205  TIP3      H2             15.8387896015       22.8495842534       -4.8816546635  WZ2       3396            0.0000000000
     12616      4206  TIP3      OH2            12.9593296015       19.7429342534      -21.6340846635  WZ2       3397            0.0000000000
     12617      4206  TIP3      H1             13.5699096015       19.3716142534      -20.9972646635  WZ2       3397            0.0000000000
     12618      4206  TIP3      H2             12.1224796015       19.3216242534      -21.4380846635  WZ2       3397            0.0000000000
     12619      4207  TIP3      OH2            12.5918996015       21.2977742534      -16.6680946635  WZ2       3398            0.0000000000
     12620      4207  TIP3      H1             12.8716096015       20.3908142534      -16.5439246635  WZ2       3398            0.0000000000
     12621      4207  TIP3      H2             13.3510696015       21.7319242534      -17.0571746635  WZ2       3398            0.0000000000
     12622      4208  TIP3      OH2            13.2037296015       21.8795142534      -11.2322046635  WZ2       3399            0.0000000000
     12623      4208  TIP3      H1             14.1365296015       22.0915042534      -11.2666046635  WZ2       3399            0.0000000000
     12624      4208  TIP3      H2             12.9684796015       21.9807242534      -10.3099046635  WZ2       3399            0.0000000000
     12625      4209  TIP3      OH2            13.2329196015       22.6160442534       -8.4562646635  WZ2       3400            0.0000000000
     12626      4209  TIP3      H1             12.3900496015       22.8840842534       -8.0902846635  WZ2       3400            0.0000000000
     12627      4209  TIP3      H2             13.6753496015       23.4382342534       -8.6671546635  WZ2       3400            0.0000000000
     12628      4210  TIP3      OH2            -2.4858603985       21.0639142534       -4.9793446635  WZ2       3401            0.0000000000
     12629      4210  TIP3      H1             -1.5663703985       20.9417442534       -4.7430346635  WZ2       3401            0.0000000000
     12630      4210  TIP3      H2             -2.9354103985       20.3138842534       -4.5899946635  WZ2       3401            0.0000000000
     12631      4211  TIP3      OH2            15.5160796015       16.5960642534       -3.1027646635  WZ2       3402            0.0000000000
     12632      4211  TIP3      H1             15.8657796015       15.9424142534       -3.7082946635  WZ2       3402            0.0000000000
     12633      4211  TIP3      H2             15.6630296015       17.4334742534       -3.5425046635  WZ2       3402            0.0000000000
     12634      4212  TIP3      OH2            13.2053796015       18.5607042534      -16.6198946635  WZ2       3403            0.0000000000
     12635      4212  TIP3      H1             13.3878796015       18.1118542534      -15.7943946635  WZ2       3403            0.0000000000
     12636      4212  TIP3      H2             12.6056696015       17.9761442534      -17.0834346635  WZ2       3403            0.0000000000
     12637      4213  TIP3      OH2            -1.2646103985       19.3760742534      -12.0880546635  WZ2       3404            0.0000000000
     12638      4213  TIP3      H1             -0.8194503985       18.5843242534      -11.7860846635  WZ2       3404            0.0000000000
     12639      4213  TIP3      H2             -0.7983103985       20.0925942534      -11.6574946635  WZ2       3404            0.0000000000
     12640      4214  TIP3      OH2            -2.9605803985       22.3753742534      -11.0190346635  WZ2       3405            0.0000000000
     12641      4214  TIP3      H1             -2.4686003985       22.1544242534      -11.8098346635  WZ2       3405            0.0000000000
     12642      4214  TIP3      H2             -2.5984903985       23.2157142534      -10.7380846635  WZ2       3405            0.0000000000
     12643      4215  TIP3      OH2            15.0357996015       18.7055242534       -4.7536346635  WZ2       3406            0.0000000000
     12644      4215  TIP3      H1             14.1183696015       18.9762342534       -4.7892846635  WZ2       3406            0.0000000000
     12645      4215  TIP3      H2             15.1587396015       18.1703642534       -5.5376646635  WZ2       3406            0.0000000000
     12646      4216  TIP3      OH2            15.0719996015       18.6285142534      -20.0918646635  WZ2       3407            0.0000000000
     12647      4216  TIP3      H1             15.4842596015       17.9070842534      -20.5670646635  WZ2       3407            0.0000000000
     12648      4216  TIP3      H2             15.7536496015       19.2979742534      -20.0334346635  WZ2       3407            0.0000000000
     12649      4217  TIP3      OH2            -2.6469303985       18.6332842534      -16.9647946635  WZ2       3408            0.0000000000
     12650      4217  TIP3      H1             -3.5720903985       18.8419442534      -17.0942446635  WZ2       3408            0.0000000000
     12651      4217  TIP3      H2             -2.1929403985       19.1173642534      -17.6545646635  WZ2       3408            0.0000000000
     12652      4218  TIP3      OH2            12.1237896015       33.6174542534      -15.0190546635  WZ2       3409            0.0000000000
     12653      4218  TIP3      H1             12.7760796015       33.2696642534      -15.6271446635  WZ2       3409            0.0000000000
     12654      4218  TIP3      H2             12.6341696015       34.1057742534      -14.3730846635  WZ2       3409            0.0000000000
     12655      4219  TIP3      OH2            -2.6833903985       17.3711842534       -8.6205446635  WZ2       3410            0.0000000000
     12656      4219  TIP3      H1             -3.3483403985       17.1252142534       -7.9774546635  WZ2       3410            0.0000000000
     12657      4219  TIP3      H2             -3.1262603985       17.9932242534       -9.1977446635  WZ2       3410            0.0000000000
     12658      4220  TIP3      OH2            -0.4914603985       30.5465942534       -4.4759646635  WZ2       3411            0.0000000000
     12659      4220  TIP3      H1             -1.3122103985       30.7212442534       -4.9364946635  WZ2       3411            0.0000000000
     12660      4220  TIP3      H2             -0.7436803985       30.4730642534       -3.5555246635  WZ2       3411            0.0000000000
     12661      4221  TIP3      OH2             2.4628296015       31.5207142534       -8.2175646635  WZ2       3412            0.0000000000
     12662      4221  TIP3      H1              2.0379396015       32.3305642534       -8.5001046635  WZ2       3412            0.0000000000
     12663      4221  TIP3      H2              3.3671096015       31.6061242534       -8.5195846635  WZ2       3412            0.0000000000
     12664      4222  TIP3      OH2             6.7739696015       32.9197142534       -5.2581946635  WZ2       3413            0.0000000000
     12665      4222  TIP3      H1              6.9587196015       32.5863242534       -4.3801646635  WZ2       3413            0.0000000000
     12666      4222  TIP3      H2              7.6204196015       33.2295742534       -5.5802746635  WZ2       3413            0.0000000000
     12667      4223  TIP3      OH2             9.1190096015       34.2056042534       -6.0140546635  WZ2       3414            0.0000000000
     12668      4223  TIP3      H1              9.7958996015       33.5728342534       -6.2541346635  WZ2       3414            0.0000000000
     12669      4223  TIP3      H2              9.4408896015       34.6066542534       -5.2067246635  WZ2       3414            0.0000000000
     12670      4224  TIP3      OH2            14.0363896015       16.7951542534       -6.9345546635  WZ2       3415            0.0000000000
     12671      4224  TIP3      H1             13.2237396015       17.1201842534       -7.3220846635  WZ2       3415            0.0000000000
     12672      4224  TIP3      H2             14.2692396015       16.0350042534       -7.4676446635  WZ2       3415            0.0000000000
     12673      4225  TIP3      OH2            -0.1355003985       34.7771042534       -8.1700346635  WZ2       3416            0.0000000000
     12674      4225  TIP3      H1             -0.8558603985       35.2172042534       -8.6212646635  WZ2       3416            0.0000000000
     12675      4225  TIP3      H2             -0.5011003985       34.5265742534       -7.3216346635  WZ2       3416            0.0000000000
     12676      4226  TIP3      OH2             2.3317596015       34.3774942534       -9.1403146635  WZ2       3417            0.0000000000
     12677      4226  TIP3      H1              1.4669796015       34.4493442534       -8.7363046635  WZ2       3417            0.0000000000
     12678      4226  TIP3      H2              2.2766596015       34.9242242534       -9.9240646635  WZ2       3417            0.0000000000
     12679      4227  TIP3      OH2             7.0423196015       34.2653842534       -9.9647146635  WZ2       3418            0.0000000000
     12680      4227  TIP3      H1              6.5857196015       34.7943542534      -10.6188746635  WZ2       3418            0.0000000000
     12681      4227  TIP3      H2              7.2051196015       34.8685242534       -9.2394846635  WZ2       3418            0.0000000000
     12682      4228  TIP3      OH2             9.3699496015       33.1433442534       -9.0196846635  WZ2       3419            0.0000000000
     12683      4228  TIP3      H1              8.4653196015       33.3083642534       -9.2854746635  WZ2       3419            0.0000000000
     12684      4228  TIP3      H2              9.7988096015       33.9965642534       -9.0853446635  WZ2       3419            0.0000000000
     12685      4229  TIP3      OH2            11.9741396015       34.7132542534       -8.7249046635  WZ2       3420            0.0000000000
     12686      4229  TIP3      H1             11.7923396015       35.6291442534       -8.9354146635  WZ2       3420            0.0000000000
     12687      4229  TIP3      H2             12.1509196015       34.3029642534       -9.5714446635  WZ2       3420            0.0000000000
     12688      4230  TIP3      OH2            -0.7206903985       33.4003542534      -11.2598546635  WZ2       3421            0.0000000000
     12689      4230  TIP3      H1             -0.7390903985       32.9748642534      -10.4026246635  WZ2       3421            0.0000000000
     12690      4230  TIP3      H2              0.0840996015       33.0818542534      -11.6686346635  WZ2       3421            0.0000000000
     12691      4231  TIP3      OH2             1.4206196015       32.1102242534      -12.6048646635  WZ2       3422            0.0000000000
     12692      4231  TIP3      H1              1.2016896015       31.1939642534      -12.4352646635  WZ2       3422            0.0000000000
     12693      4231  TIP3      H2              2.2448396015       32.2502642534      -12.1387246635  WZ2       3422            0.0000000000
     12694      4232  TIP3      OH2             3.9578696015       32.5801542534      -11.7560646635  WZ2       3423            0.0000000000
     12695      4232  TIP3      H1              4.1704396015       31.6920542534      -12.0429746635  WZ2       3423            0.0000000000
     12696      4232  TIP3      H2              4.0223796015       32.5459242534      -10.8016646635  WZ2       3423            0.0000000000
     12697      4233  TIP3      OH2             7.4662396015       18.2442142534      -12.6117346635  WZ2       3424            0.0000000000
     12698      4233  TIP3      H1              6.7919196015       17.6147742534      -12.3561546635  WZ2       3424            0.0000000000
     12699      4233  TIP3      H2              8.0301596015       17.7601042534      -13.2149446635  WZ2       3424            0.0000000000
     12700      4234  TIP3      OH2            12.6089596015       16.3516142534      -12.4990246635  WZ2       3425            0.0000000000
     12701      4234  TIP3      H1             13.2127196015       16.8991542534      -13.0009246635  WZ2       3425            0.0000000000
     12702      4234  TIP3      H2             11.7391596015       16.6706542534      -12.7396146635  WZ2       3425            0.0000000000
     12703      4235  TIP3      OH2            14.3359996015       17.4904842534      -14.1659346635  WZ2       3426            0.0000000000
     12704      4235  TIP3      H1             14.9477496015       16.9760542534      -14.6925746635  WZ2       3426            0.0000000000
     12705      4235  TIP3      H2             14.7183396015       18.3676942534      -14.1424946635  WZ2       3426            0.0000000000
     12706      4236  TIP3      OH2            -0.2070103985       16.8782442534      -14.7897446635  WZ2       3427            0.0000000000
     12707      4236  TIP3      H1             -0.9840303985       16.6437342534      -15.2971546635  WZ2       3427            0.0000000000
     12708      4236  TIP3      H2              0.3233496015       16.0814542534      -14.7809446635  WZ2       3427            0.0000000000
     12709      4237  TIP3      OH2            -1.3706703985       16.6760542534      -18.9861346635  WZ2       3428            0.0000000000
     12710      4237  TIP3      H1             -0.9316003985       17.2871042534      -19.5777846635  WZ2       3428            0.0000000000
     12711      4237  TIP3      H2             -2.0044303985       17.2144642534      -18.5121346635  WZ2       3428            0.0000000000
     12712      4238  TIP3      OH2             4.3722496015       16.8049542534      -14.9764346635  WZ2       3429            0.0000000000
     12713      4238  TIP3      H1              5.2465896015       17.1933842534      -15.0060046635  WZ2       3429            0.0000000000
     12714      4238  TIP3      H2              4.2363296015       16.5897342534      -14.0537146635  WZ2       3429            0.0000000000
     12715      4239  TIP3      OH2             9.9290896015       16.8349342534      -13.3272646635  WZ2       3430            0.0000000000
     12716      4239  TIP3      H1             10.0052496015       16.9300942534      -14.2766646635  WZ2       3430            0.0000000000
     12717      4239  TIP3      H2              9.6540096015       15.9272242534      -13.1983546635  WZ2       3430            0.0000000000
     12718      4240  TIP3      OH2            11.2823496015       16.8607142534      -17.6347646635  WZ2       3431            0.0000000000
     12719      4240  TIP3      H1             10.5794596015       17.4756342534      -17.8446246635  WZ2       3431            0.0000000000
     12720      4240  TIP3      H2             10.8374896015       16.0233842534      -17.5036746635  WZ2       3431            0.0000000000
     12721      4241  TIP3      OH2            -1.4697203985       32.6242742534      -18.0886246635  WZ2       3432            0.0000000000
     12722      4241  TIP3      H1             -2.1547303985       32.5861642534      -18.7561146635  WZ2       3432            0.0000000000
     12723      4241  TIP3      H2             -1.4660003985       33.5370342534      -17.8004146635  WZ2       3432            0.0000000000
     12724      4242  TIP3      OH2             0.4902396015       18.5922042534      -20.5437246635  WZ2       3433            0.0000000000
     12725      4242  TIP3      H1              0.9815796015       17.9624442534      -21.0711746635  WZ2       3433            0.0000000000
     12726      4242  TIP3      H2              1.1138696015       18.8881442534      -19.8806046635  WZ2       3433            0.0000000000
     12727      4243  TIP3      OH2             5.5162496015       18.8853542534      -18.0866746635  WZ2       3434            0.0000000000
     12728      4243  TIP3      H1              5.6943796015       18.2386742534      -17.4038146635  WZ2       3434            0.0000000000
     12729      4243  TIP3      H2              5.4628696015       19.7191242534      -17.6195646635  WZ2       3434            0.0000000000
     12730      4244  TIP3      OH2             7.3946296015       33.8337642534      -19.6910046635  WZ2       3435            0.0000000000
     12731      4244  TIP3      H1              8.2606496015       34.2005042534      -19.8691846635  WZ2       3435            0.0000000000
     12732      4244  TIP3      H2              7.1479096015       33.3945642534      -20.5049246635  WZ2       3435            0.0000000000
     12733      4245  TIP3      OH2            14.1035896015       33.3967942534      -17.0118946635  WZ2       3436            0.0000000000
     12734      4245  TIP3      H1             13.9092996015       32.6490042534      -17.5769346635  WZ2       3436            0.0000000000
     12735      4245  TIP3      H2             14.0645996015       34.1548042534      -17.5951046635  WZ2       3436            0.0000000000
     12736      4246  TIP3      OH2            -0.2492103985       17.3924342534       -5.2721246635  WZ2       3437            0.0000000000
     12737      4246  TIP3      H1             -0.6153903985       16.6266942534       -4.8296546635  WZ2       3437            0.0000000000
     12738      4246  TIP3      H2              0.6636396015       17.4214542534       -4.9856146635  WZ2       3437            0.0000000000
     12739      4247  TIP3      OH2             1.7238696015       16.7428742534       -3.7364146635  WZ2       3438            0.0000000000
     12740      4247  TIP3      H1              2.6222296015       16.4688942534       -3.9210746635  WZ2       3438            0.0000000000
     12741      4247  TIP3      H2              1.3371796015       16.0004742534       -3.2721546635  WZ2       3438            0.0000000000
     12742      4248  TIP3      OH2             0.3483996015       33.5443542534      -21.0634146635  WZ2       3439            0.0000000000
     12743      4248  TIP3      H1              0.0808596015       33.8306442534      -20.1901046635  WZ2       3439            0.0000000000
     12744      4248  TIP3      H2              1.1196596015       32.9982742534      -20.9111646635  WZ2       3439            0.0000000000
     12745      4249  TIP3      OH2            10.1450996015       16.0754042534       -3.5541346635  WZ2       3440            0.0000000000
     12746      4249  TIP3      H1             10.2218196015       15.6494742534       -2.7003646635  WZ2       3440            0.0000000000
     12747      4249  TIP3      H2             11.0387596015       16.0888742534       -3.8967846635  WZ2       3440            0.0000000000
     12748      4250  TIP3      OH2            13.3212096015       32.1480342534       -4.8617146635  WZ2       3441            0.0000000000
     12749      4250  TIP3      H1             12.5393996015       31.9618342534       -5.3816546635  WZ2       3441            0.0000000000
     12750      4250  TIP3      H2             13.2491996015       33.0774642534       -4.6444646635  WZ2       3441            0.0000000000
     12751      4251  TIP3      OH2            27.7272496015       26.0344742534      -14.8309946635  WZ2       3442            0.0000000000
     12752      4251  TIP3      H1             27.8163596015       26.9782942534      -14.9632846635  WZ2       3442            0.0000000000
     12753      4251  TIP3      H2             27.0890096015       25.7591142534      -15.4890546635  WZ2       3442            0.0000000000
     12754      4252  TIP3      OH2            26.6603796015       25.2895442534      -11.4121746635  WZ2       3443            0.0000000000
     12755      4252  TIP3      H1             26.6221296015       24.6431742534      -10.7072146635  WZ2       3443            0.0000000000
     12756      4252  TIP3      H2             26.3380296015       24.8229842534      -12.1833046635  WZ2       3443            0.0000000000
     12757      4253  TIP3      OH2            19.0288796015       24.9037542534       -9.8191846635  WZ2       3444            0.0000000000
     12758      4253  TIP3      H1             19.0700896015       24.2780842534       -9.0959446635  WZ2       3444            0.0000000000
     12759      4253  TIP3      H2             19.7316496015       25.5276142534       -9.6371446635  WZ2       3444            0.0000000000
     12760      4254  TIP3      OH2            30.3663996015       28.2285842534      -13.1106646635  WZ2       3445            0.0000000000
     12761      4254  TIP3      H1             29.9256696015       27.5081842534      -12.6601046635  WZ2       3445            0.0000000000
     12762      4254  TIP3      H2             30.3533696015       28.9493042534      -12.4808946635  WZ2       3445            0.0000000000
     12763      4255  TIP3      OH2            19.9521896015       29.3536442534      -11.2842746635  WZ2       3446            0.0000000000
     12764      4255  TIP3      H1             19.5827096015       28.5516942534      -11.6538446635  WZ2       3446            0.0000000000
     12765      4255  TIP3      H2             20.8932996015       29.1851342534      -11.2379346635  WZ2       3446            0.0000000000
     12766      4256  TIP3      OH2            16.5622396015       23.0139042534      -15.8913946635  WZ2       3447            0.0000000000
     12767      4256  TIP3      H1             16.1145796015       23.8597742534      -15.9097446635  WZ2       3447            0.0000000000
     12768      4256  TIP3      H2             16.0013596015       22.4343242534      -16.4068846635  WZ2       3447            0.0000000000
     12769      4257  TIP3      OH2            17.2728496015       25.1758642534      -13.7655946635  WZ2       3448            0.0000000000
     12770      4257  TIP3      H1             17.4861996015       24.4060242534      -13.2382946635  WZ2       3448            0.0000000000
     12771      4257  TIP3      H2             18.0106096015       25.2655342534      -14.3688346635  WZ2       3448            0.0000000000
     12772      4258  TIP3      OH2            27.4779496015       33.3327542534      -12.8986246635  WZ2       3449            0.0000000000
     12773      4258  TIP3      H1             28.0975896015       32.6562242534      -13.1717046635  WZ2       3449            0.0000000000
     12774      4258  TIP3      H2             27.2696896015       33.1148342534      -11.9901346635  WZ2       3449            0.0000000000
     12775      4259  TIP3      OH2            25.0498196015       27.7216842534      -11.0060746635  WZ2       3450            0.0000000000
     12776      4259  TIP3      H1             25.3536096015       27.0358242534      -11.6006646635  WZ2       3450            0.0000000000
     12777      4259  TIP3      H2             25.7712196015       27.8405542534      -10.3882746635  WZ2       3450            0.0000000000
     12778      4260  TIP3      OH2            33.7127996015       19.3232142534      -10.1454546635  WZ2       3451            0.0000000000
     12779      4260  TIP3      H1             33.7620196015       19.9333342534       -9.4095446635  WZ2       3451            0.0000000000
     12780      4260  TIP3      H2             34.1383096015       19.7843042534      -10.8683446635  WZ2       3451            0.0000000000
     12781      4261  TIP3      OH2            28.1905196015       22.1159242534      -10.6785946635  WZ2       3452            0.0000000000
     12782      4261  TIP3      H1             28.3331096015       21.1696242534      -10.6584346635  WZ2       3452            0.0000000000
     12783      4261  TIP3      H2             28.0844196015       22.3229042534      -11.6071046635  WZ2       3452            0.0000000000
     12784      4262  TIP3      OH2            21.3453496015       20.2175642534      -13.4061146635  WZ2       3453            0.0000000000
     12785      4262  TIP3      H1             21.3884596015       21.0774142534      -13.8244846635  WZ2       3453            0.0000000000
     12786      4262  TIP3      H2             20.8877596015       19.6650342534      -14.0397946635  WZ2       3453            0.0000000000
     12787      4263  TIP3      OH2            29.0676196015       20.3481242534      -15.0052846635  WZ2       3454            0.0000000000
     12788      4263  TIP3      H1             29.7140496015       20.0194442534      -14.3805246635  WZ2       3454            0.0000000000
     12789      4263  TIP3      H2             29.5775596015       20.8660242534      -15.6281446635  WZ2       3454            0.0000000000
     12790      4264  TIP3      OH2            17.9654996015       22.6141442534      -12.6439746635  WZ2       3455            0.0000000000
     12791      4264  TIP3      H1             18.6191596015       22.0643142534      -12.2119646635  WZ2       3455            0.0000000000
     12792      4264  TIP3      H2             17.9894296015       22.3400442534      -13.5607746635  WZ2       3455            0.0000000000
     12793      4265  TIP3      OH2            23.1219496015       24.1642742534      -13.4288246635  WZ2       3456            0.0000000000
     12794      4265  TIP3      H1             23.7380496015       23.6378142534      -12.9194246635  WZ2       3456            0.0000000000
     12795      4265  TIP3      H2             22.5358296015       23.5241442534      -13.8324646635  WZ2       3456            0.0000000000
     12796      4266  TIP3      OH2            34.1042596015       20.8011342534       -7.9094746635  WZ2       3457            0.0000000000
     12797      4266  TIP3      H1             33.4157196015       21.4592042534       -8.0048146635  WZ2       3457            0.0000000000
     12798      4266  TIP3      H2             34.1197196015       20.6039242534       -6.9729346635  WZ2       3457            0.0000000000
     12799      4267  TIP3      OH2            20.1555396015       19.1354042534       -9.3320346635  WZ2       3458            0.0000000000
     12800      4267  TIP3      H1             19.9367096015       19.6654642534      -10.0984346635  WZ2       3458            0.0000000000
     12801      4267  TIP3      H2             19.4876296015       19.3619542534       -8.6848946635  WZ2       3458            0.0000000000
     12802      4268  TIP3      OH2            27.5245196015       28.6355142534      -15.7881246635  WZ2       3459            0.0000000000
     12803      4268  TIP3      H1             27.2290296015       28.3127442534      -16.6394346635  WZ2       3459            0.0000000000
     12804      4268  TIP3      H2             27.2002996015       29.5351842534      -15.7468646635  WZ2       3459            0.0000000000
     12805      4269  TIP3      OH2            22.7246796015       26.8109742534       -9.0446646635  WZ2       3460            0.0000000000
     12806      4269  TIP3      H1             21.9845896015       27.4091242534       -8.9411446635  WZ2       3460            0.0000000000
     12807      4269  TIP3      H2             23.4386296015       27.3649342534       -9.3603046635  WZ2       3460            0.0000000000
     12808      4270  TIP3      OH2            30.8314596015       19.6390542534      -13.0246946635  WZ2       3461            0.0000000000
     12809      4270  TIP3      H1             30.6162596015       18.8733942534      -12.4920946635  WZ2       3461            0.0000000000
     12810      4270  TIP3      H2             31.4871996015       20.1115142534      -12.5118446635  WZ2       3461            0.0000000000
     12811      4271  TIP3      OH2            19.7492696015       21.0275842534      -11.3798146635  WZ2       3462            0.0000000000
     12812      4271  TIP3      H1             20.3628996015       21.6603442534      -11.0065746635  WZ2       3462            0.0000000000
     12813      4271  TIP3      H2             20.2613396015       20.5550842534      -12.0361246635  WZ2       3462            0.0000000000
     12814      4272  TIP3      OH2            21.1321096015       28.7752742534       -8.2575146635  WZ2       3463            0.0000000000
     12815      4272  TIP3      H1             21.1268696015       29.6546242534       -8.6355846635  WZ2       3463            0.0000000000
     12816      4272  TIP3      H2             20.2785196015       28.6916842534       -7.8325246635  WZ2       3463            0.0000000000
     12817      4273  TIP3      OH2            17.2531996015       28.4460642534      -17.4755846635  WZ2       3464            0.0000000000
     12818      4273  TIP3      H1             16.9812896015       28.6751642534      -18.3642946635  WZ2       3464            0.0000000000
     12819      4273  TIP3      H2             17.2987696015       29.2839442534      -17.0150546635  WZ2       3464            0.0000000000
     12820      4274  TIP3      OH2            30.8781696015       30.0676542534      -10.7627346635  WZ2       3465            0.0000000000
     12821      4274  TIP3      H1             29.9365396015       30.1260442534      -10.6010446635  WZ2       3465            0.0000000000
     12822      4274  TIP3      H2             31.1547796015       30.9737042534      -10.8997646635  WZ2       3465            0.0000000000
     12823      4275  TIP3      OH2            31.1788696015       18.3541842534       -9.3453446635  WZ2       3466            0.0000000000
     12824      4275  TIP3      H1             30.4427896015       18.9648942534       -9.3832146635  WZ2       3466            0.0000000000
     12825      4275  TIP3      H2             31.8622696015       18.7690842534       -9.8717046635  WZ2       3466            0.0000000000
     12826      4276  TIP3      OH2            24.1820096015       16.4409142534      -11.8795446635  WZ2       3467            0.0000000000
     12827      4276  TIP3      H1             24.0644296015       15.4925142534      -11.9337146635  WZ2       3467            0.0000000000
     12828      4276  TIP3      H2             23.3270196015       16.7735242534      -11.6064346635  WZ2       3467            0.0000000000
     12829      4277  TIP3      OH2            29.1302896015       31.8490042534      -14.1375746635  WZ2       3468            0.0000000000
     12830      4277  TIP3      H1             29.5555196015       31.1417942534      -14.6226146635  WZ2       3468            0.0000000000
     12831      4277  TIP3      H2             29.4472896015       32.6502742534      -14.5543546635  WZ2       3468            0.0000000000
     12832      4278  TIP3      OH2            30.2899396015       29.7498542534      -15.6289146635  WZ2       3469            0.0000000000
     12833      4278  TIP3      H1             30.0324196015       29.0598642534      -16.2403246635  WZ2       3469            0.0000000000
     12834      4278  TIP3      H2             30.3610196015       29.3069742534      -14.7833246635  WZ2       3469            0.0000000000
     12835      4279  TIP3      OH2            31.9759596015       28.3165242534       -7.1515646635  WZ2       3470            0.0000000000
     12836      4279  TIP3      H1             32.1155896015       27.7247742534       -7.8908646635  WZ2       3470            0.0000000000
     12837      4279  TIP3      H2             32.1432396015       29.1891142534       -7.5076846635  WZ2       3470            0.0000000000
     12838      4280  TIP3      OH2            26.4484996015       25.2784742534      -17.3789646635  WZ2       3471            0.0000000000
     12839      4280  TIP3      H1             25.7370496015       25.8134442534      -17.7309146635  WZ2       3471            0.0000000000
     12840      4280  TIP3      H2             27.1394596015       25.3336842534      -18.0390746635  WZ2       3471            0.0000000000
     12841      4281  TIP3      OH2            33.8178896015       24.6563242534       -9.0855246635  WZ2       3473            0.0000000000
     12842      4281  TIP3      H1             33.1652996015       25.3508842534       -8.9964346635  WZ2       3473            0.0000000000
     12843      4281  TIP3      H2             34.2829196015       24.8664142534       -9.8953646635  WZ2       3473            0.0000000000
     12844      4282  TIP3      OH2            29.8542696015       25.4878042534      -16.4273746635  WZ2       3474            0.0000000000
     12845      4282  TIP3      H1             29.1223696015       25.7161742534      -15.8543146635  WZ2       3474            0.0000000000
     12846      4282  TIP3      H2             30.3014896015       24.7740742534      -15.9726246635  WZ2       3474            0.0000000000
     12847      4283  TIP3      OH2            29.7516196015       23.6620642534       -7.3596746635  WZ2       3475            0.0000000000
     12848      4283  TIP3      H1             29.8315296015       24.4255042534       -6.7878246635  WZ2       3475            0.0000000000
     12849      4283  TIP3      H2             29.1503896015       23.9413042534       -8.0501646635  WZ2       3475            0.0000000000
     12850      4284  TIP3      OH2            21.4996396015       26.1184242534      -14.5448746635  WZ2       3476            0.0000000000
     12851      4284  TIP3      H1             21.1691596015       25.7477642534      -15.3631746635  WZ2       3476            0.0000000000
     12852      4284  TIP3      H2             22.0880496015       25.4478242534      -14.1980446635  WZ2       3476            0.0000000000
     12853      4285  TIP3      OH2            22.8663896015       29.5464842534      -11.8636546635  WZ2       3477            0.0000000000
     12854      4285  TIP3      H1             22.7715196015       28.9677942534      -12.6201946635  WZ2       3477            0.0000000000
     12855      4285  TIP3      H2             23.5957496015       29.1750542534      -11.3673746635  WZ2       3477            0.0000000000
     12856      4286  TIP3      OH2            21.8661896015       24.8869842534      -10.9113746635  WZ2       3478            0.0000000000
     12857      4286  TIP3      H1             22.4314396015       25.0084042534      -11.6742546635  WZ2       3478            0.0000000000
     12858      4286  TIP3      H2             22.1850796015       25.5244842534      -10.2725246635  WZ2       3478            0.0000000000
     12859      4287  TIP3      OH2            28.1754096015       30.3901742534      -10.1773246635  WZ2       3479            0.0000000000
     12860      4287  TIP3      H1             27.9350696015       31.0524842534       -9.5294046635  WZ2       3479            0.0000000000
     12861      4287  TIP3      H2             27.9772296015       29.5556942534       -9.7523646635  WZ2       3479            0.0000000000
     12862      4288  TIP3      OH2            22.7462596015       29.2862542534       -6.1941846635  WZ2       3480            0.0000000000
     12863      4288  TIP3      H1             22.4350096015       30.0685742534       -5.7388646635  WZ2       3480            0.0000000000
     12864      4288  TIP3      H2             22.0962796015       29.1331642534       -6.8799846635  WZ2       3480            0.0000000000
     12865      4289  TIP3      OH2            19.6662496015       25.4843642534       -6.9656146635  WZ2       3482            0.0000000000
     12866      4289  TIP3      H1             19.7365696015       26.1350442534       -6.2671146635  WZ2       3482            0.0000000000
     12867      4289  TIP3      H2             18.7754696015       25.5871142534       -7.3005246635  WZ2       3482            0.0000000000
     12868      4290  TIP3      OH2            26.4517096015       31.3869442534      -15.3069446635  WZ2       3483            0.0000000000
     12869      4290  TIP3      H1             26.9254696015       31.6825742534      -14.5295246635  WZ2       3483            0.0000000000
     12870      4290  TIP3      H2             25.8886396015       32.1251042534      -15.5399846635  WZ2       3483            0.0000000000
     12871      4291  TIP3      OH2            20.9858496015       31.3577542534       -5.4308046635  WZ2       3484            0.0000000000
     12872      4291  TIP3      H1             20.9933796015       31.2217242534       -6.3782546635  WZ2       3484            0.0000000000
     12873      4291  TIP3      H2             20.0698896015       31.2405642534       -5.1788046635  WZ2       3484            0.0000000000
     12874      4292  TIP3      OH2            32.4240596015       16.4001342534      -18.9292846635  WZ2       3485            0.0000000000
     12875      4292  TIP3      H1             31.5241296015       16.5390342534      -18.6342246635  WZ2       3485            0.0000000000
     12876      4292  TIP3      H2             32.6758996015       17.2315942534      -19.3311146635  WZ2       3485            0.0000000000
     12877      4293  TIP3      OH2            20.4899096015       25.1878542534      -16.9555946635  WZ2       3486            0.0000000000
     12878      4293  TIP3      H1             20.1980396015       25.9560242534      -17.4464646635  WZ2       3486            0.0000000000
     12879      4293  TIP3      H2             19.8154296015       24.5284742534      -17.1184546635  WZ2       3486            0.0000000000
     12880      4294  TIP3      OH2            16.5829196015       27.5507742534       -8.1406146635  WZ2       3488            0.0000000000
     12881      4294  TIP3      H1             16.0817596015       27.5227142534       -8.9556446635  WZ2       3488            0.0000000000
     12882      4294  TIP3      H2             16.5882896015       26.6450942534       -7.8308846635  WZ2       3488            0.0000000000
     12883      4295  TIP3      OH2            16.3331896015       30.3311542534      -11.2565946635  WZ2       3489            0.0000000000
     12884      4295  TIP3      H1             17.2792496015       30.1868542534      -11.2756446635  WZ2       3489            0.0000000000
     12885      4295  TIP3      H2             16.2208196015       31.1154342534      -10.7194746635  WZ2       3489            0.0000000000
     12886      4296  TIP3      OH2            25.5094396015       30.5710442534       -6.6980846635  WZ2       3491            0.0000000000
     12887      4296  TIP3      H1             25.5968996015       31.3975042534       -6.2231746635  WZ2       3491            0.0000000000
     12888      4296  TIP3      H2             24.6459496015       30.2414242534       -6.4491546635  WZ2       3491            0.0000000000
     12889      4297  TIP3      OH2            19.5773996015       33.1321142534      -15.1111246635  WZ2       3493            0.0000000000
     12890      4297  TIP3      H1             19.7294396015       32.7841542534      -14.2324746635  WZ2       3493            0.0000000000
     12891      4297  TIP3      H2             18.7264396015       32.7758442534      -15.3664046635  WZ2       3493            0.0000000000
     12892      4298  TIP3      OH2            31.6830196015       22.4903742534       -5.0940046635  WZ2       3496            0.0000000000
     12893      4298  TIP3      H1             31.2756996015       22.9709342534       -5.8146746635  WZ2       3496            0.0000000000
     12894      4298  TIP3      H2             31.7235896015       21.5849742534       -5.4019246635  WZ2       3496            0.0000000000
     12895      4299  TIP3      OH2            18.8319696015       28.8743142534       -7.0973346635  WZ2       3497            0.0000000000
     12896      4299  TIP3      H1             19.0480996015       28.5128742534       -6.2377546635  WZ2       3497            0.0000000000
     12897      4299  TIP3      H2             17.9764396015       28.4996942534       -7.3069846635  WZ2       3497            0.0000000000
     12898      4300  TIP3      OH2            21.4507696015       17.3443642534      -11.1019146635  WZ2       3498            0.0000000000
     12899      4300  TIP3      H1             20.5891396015       17.2571842534      -11.5096246635  WZ2       3498            0.0000000000
     12900      4300  TIP3      H2             21.4283396015       18.2003742534      -10.6741546635  WZ2       3498            0.0000000000
     12901      4301  TIP3      OH2            26.1135496015       17.0664042534       -7.7272146635  WZ2       3499            0.0000000000
     12902      4301  TIP3      H1             26.5338596015       16.6511142534       -6.9741546635  WZ2       3499            0.0000000000
     12903      4301  TIP3      H2             25.1805096015       16.8877342534       -7.6100146635  WZ2       3499            0.0000000000
     12904      4302  TIP3      OH2            29.4400396015       20.8219242534       -6.8737646635  WZ2       3500            0.0000000000
     12905      4302  TIP3      H1             28.9259896015       20.6961442534       -6.0761646635  WZ2       3500            0.0000000000
     12906      4302  TIP3      H2             29.2845096015       21.7342342534       -7.1181446635  WZ2       3500            0.0000000000
     12907      4303  TIP3      OH2            25.7752796015       19.5587442534      -20.4421346635  WZ2       3502            0.0000000000
     12908      4303  TIP3      H1             25.5217596015       19.5779042534      -19.5193246635  WZ2       3502            0.0000000000
     12909      4303  TIP3      H2             25.5184896015       18.6872842534      -20.7435146635  WZ2       3502            0.0000000000
     12910      4304  TIP3      OH2            21.5417796015       22.3098142534      -10.0068946635  WZ2       3503            0.0000000000
     12911      4304  TIP3      H1             20.8999896015       22.2695442534       -9.2978846635  WZ2       3503            0.0000000000
     12912      4304  TIP3      H2             21.5789796015       23.2362842534      -10.2445946635  WZ2       3503            0.0000000000
     12913      4305  TIP3      OH2            21.5386896015       22.5308242534      -15.0948946635  WZ2       3504            0.0000000000
     12914      4305  TIP3      H1             20.6459796015       22.1904342534      -15.1535146635  WZ2       3504            0.0000000000
     12915      4305  TIP3      H2             21.9893496015       22.1539142534      -15.8505746635  WZ2       3504            0.0000000000
     12916      4306  TIP3      OH2            27.0742396015       22.9468542534      -16.2778146635  WZ2       3505            0.0000000000
     12917      4306  TIP3      H1             26.6652696015       23.7617142534      -16.5693346635  WZ2       3505            0.0000000000
     12918      4306  TIP3      H2             27.7948596015       22.8068642534      -16.8921046635  WZ2       3505            0.0000000000
     12919      4307  TIP3      OH2            26.1763996015       23.1224942534       -4.7897446635  WZ2       3506            0.0000000000
     12920      4307  TIP3      H1             25.6137796015       22.4176542534       -4.4689646635  WZ2       3506            0.0000000000
     12921      4307  TIP3      H2             27.0027396015       23.0016842534       -4.3219846635  WZ2       3506            0.0000000000
     12922      4308  TIP3      OH2            28.0790096015       22.3928942534      -13.4638446635  WZ2       3507            0.0000000000
     12923      4308  TIP3      H1             27.8834596015       22.9985742534      -14.1787846635  WZ2       3507            0.0000000000
     12924      4308  TIP3      H2             28.2602696015       21.5594142534      -13.8982146635  WZ2       3507            0.0000000000
     12925      4309  TIP3      OH2            19.2918296015       22.6301642534       -8.1396946635  WZ2       3508            0.0000000000
     12926      4309  TIP3      H1             19.2537696015       23.0303242534       -7.2709846635  WZ2       3508            0.0000000000
     12927      4309  TIP3      H2             18.8009396015       21.8134042534       -8.0494046635  WZ2       3508            0.0000000000
     12928      4310  TIP3      OH2            22.6575696015       20.0043942534      -21.3410946635  WZ2       3509            0.0000000000
     12929      4310  TIP3      H1             22.2266396015       19.5594042534      -20.6113546635  WZ2       3509            0.0000000000
     12930      4310  TIP3      H2             21.9394396015       20.3760242534      -21.8533446635  WZ2       3509            0.0000000000
     12931      4311  TIP3      OH2            15.8999096015       19.7463442534      -14.2892246635  WZ2       3510            0.0000000000
     12932      4311  TIP3      H1             16.5306796015       19.7175542534      -13.5698346635  WZ2       3510            0.0000000000
     12933      4311  TIP3      H2             16.3493396015       19.3212142534      -15.0196346635  WZ2       3510            0.0000000000
     12934      4312  TIP3      OH2            17.1741196015       20.4925442534      -18.8651846635  WZ2       3511            0.0000000000
     12935      4312  TIP3      H1             17.6482896015       21.0835342534      -19.4500946635  WZ2       3511            0.0000000000
     12936      4312  TIP3      H2             16.4567596015       21.0228342534      -18.5181746635  WZ2       3511            0.0000000000
     12937      4313  TIP3      OH2            27.3429296015       24.0310242534       -8.7926046635  WZ2       3512            0.0000000000
     12938      4313  TIP3      H1             27.6664096015       23.3999942534       -9.4355546635  WZ2       3512            0.0000000000
     12939      4313  TIP3      H2             26.9028596015       23.4962442534       -8.1318646635  WZ2       3512            0.0000000000
     12940      4314  TIP3      OH2            24.1202196015       19.9585742534      -14.0084846635  WZ2       3513            0.0000000000
     12941      4314  TIP3      H1             23.2093296015       20.0152542534      -13.7198846635  WZ2       3513            0.0000000000
     12942      4314  TIP3      H2             24.6255096015       19.8981242534      -13.1977646635  WZ2       3513            0.0000000000
     12943      4315  TIP3      OH2            18.9485596015       21.5872042534      -15.1817246635  WZ2       3514            0.0000000000
     12944      4315  TIP3      H1             18.0593596015       21.6867542534      -15.5217646635  WZ2       3514            0.0000000000
     12945      4315  TIP3      H2             19.2450496015       20.7455042534      -15.5279346635  WZ2       3514            0.0000000000
     12946      4316  TIP3      OH2            22.6017396015       21.5874642534      -17.5252646635  WZ2       3515            0.0000000000
     12947      4316  TIP3      H1             23.5332896015       21.7164642534      -17.3469546635  WZ2       3515            0.0000000000
     12948      4316  TIP3      H2             22.3867696015       22.2568942534      -18.1747946635  WZ2       3515            0.0000000000
     12949      4317  TIP3      OH2            28.5254096015       19.1932042534      -10.7443046635  WZ2       3516            0.0000000000
     12950      4317  TIP3      H1             27.8485696015       19.3245142534      -10.0803346635  WZ2       3516            0.0000000000
     12951      4317  TIP3      H2             28.0398996015       19.0381542534      -11.5545346635  WZ2       3516            0.0000000000
     12952      4318  TIP3      OH2            21.2757596015       22.7816842534      -19.9586546635  WZ2       3517            0.0000000000
     12953      4318  TIP3      H1             20.7332696015       22.4020642534      -20.6498946635  WZ2       3517            0.0000000000
     12954      4318  TIP3      H2             22.1092496015       22.9761542534      -20.3872446635  WZ2       3517            0.0000000000
     12955      4319  TIP3      OH2            19.4108996015       27.3388742534       -4.8594946635  WZ2       3519            0.0000000000
     12956      4319  TIP3      H1             20.1431396015       27.5934642534       -4.2980446635  WZ2       3519            0.0000000000
     12957      4319  TIP3      H2             18.6307696015       27.5434142534       -4.3439546635  WZ2       3519            0.0000000000
     12958      4320  TIP3      OH2            25.4401896015       22.7458742534      -12.1215246635  WZ2       3520            0.0000000000
     12959      4320  TIP3      H1             26.0045296015       22.1995342534      -12.6685646635  WZ2       3520            0.0000000000
     12960      4320  TIP3      H2             25.2925296015       22.2240642534      -11.3327646635  WZ2       3520            0.0000000000
     12961      4321  TIP3      OH2            20.4421596015       18.8824842534      -15.7030446635  WZ2       3521            0.0000000000
     12962      4321  TIP3      H1             20.1251096015       17.9800142534      -15.7385046635  WZ2       3521            0.0000000000
     12963      4321  TIP3      H2             21.2235696015       18.8842242534      -16.2558846635  WZ2       3521            0.0000000000
     12964      4322  TIP3      OH2            24.0667796015       21.1344842534       -9.7074846635  WZ2       3522            0.0000000000
     12965      4322  TIP3      H1             23.2313096015       21.5884342534       -9.5972446635  WZ2       3522            0.0000000000
     12966      4322  TIP3      H2             24.5908396015       21.4103342534       -8.9554946635  WZ2       3522            0.0000000000
     12967      4323  TIP3      OH2            24.6110396015       27.3472542534      -18.0228446635  WZ2       3523            0.0000000000
     12968      4323  TIP3      H1             23.8661396015       26.8397842534      -18.3450546635  WZ2       3523            0.0000000000
     12969      4323  TIP3      H2             24.4767596015       27.3960542534      -17.0763646635  WZ2       3523            0.0000000000
     12970      4324  TIP3      OH2            31.7609296015       26.4800742534       -9.2360846635  WZ2       3524            0.0000000000
     12971      4324  TIP3      H1             32.4028096015       26.9367042534       -9.7798646635  WZ2       3524            0.0000000000
     12972      4324  TIP3      H2             30.9306196015       26.5933142534       -9.6986746635  WZ2       3524            0.0000000000
     12973      4325  TIP3      OH2            28.5087196015       20.1612442534      -19.8235846635  WZ2       3525            0.0000000000
     12974      4325  TIP3      H1             27.5701396015       20.2728042534      -19.9747046635  WZ2       3525            0.0000000000
     12975      4325  TIP3      H2             28.8059296015       21.0179342534      -19.5170146635  WZ2       3525            0.0000000000
     12976      4326  TIP3      OH2            26.1302496015       27.5315842534       -6.7859346635  WZ2       3526            0.0000000000
     12977      4326  TIP3      H1             25.7848596015       27.1498242534       -5.9789746635  WZ2       3526            0.0000000000
     12978      4326  TIP3      H2             25.9302596015       28.4649442534       -6.7146446635  WZ2       3526            0.0000000000
     12979      4327  TIP3      OH2            29.2270696015       22.0285142534      -18.1628446635  WZ2       3527            0.0000000000
     12980      4327  TIP3      H1             30.1189696015       21.8910142534      -17.8437246635  WZ2       3527            0.0000000000
     12981      4327  TIP3      H2             29.2834296015       22.8191242534      -18.6994946635  WZ2       3527            0.0000000000
     12982      4328  TIP3      OH2            19.7358696015       26.6422542534      -12.2530546635  WZ2       3528            0.0000000000
     12983      4328  TIP3      H1             20.4805896015       26.6398242534      -12.8544046635  WZ2       3528            0.0000000000
     12984      4328  TIP3      H2             19.8135296015       25.8186342534      -11.7715446635  WZ2       3528            0.0000000000
     12985      4329  TIP3      OH2            16.7438396015       25.1029442534       -6.9382046635  WZ2       3530            0.0000000000
     12986      4329  TIP3      H1             16.9666996015       24.6849042534       -6.1064546635  WZ2       3530            0.0000000000
     12987      4329  TIP3      H2             16.1418496015       24.4904442534       -7.3609246635  WZ2       3530            0.0000000000
     12988      4330  TIP3      OH2            23.7603296015       24.6199342534       -4.7252346635  WZ2       3531            0.0000000000
     12989      4330  TIP3      H1             23.4644096015       24.4542342534       -5.6203246635  WZ2       3531            0.0000000000
     12990      4330  TIP3      H2             24.6918496015       24.3999642534       -4.7358446635  WZ2       3531            0.0000000000
     12991      4331  TIP3      OH2            28.3806096015       29.9931342534       -6.8354346635  WZ2       3532            0.0000000000
     12992      4331  TIP3      H1             27.4800396015       30.1763942534       -7.1030446635  WZ2       3532            0.0000000000
     12993      4331  TIP3      H2             28.4147196015       30.2520642534       -5.9145546635  WZ2       3532            0.0000000000
     12994      4332  TIP3      OH2            29.5674996015       25.8319142534      -10.9817746635  WZ2       3536            0.0000000000
     12995      4332  TIP3      H1             28.6391896015       25.6001042534      -11.0088446635  WZ2       3536            0.0000000000
     12996      4332  TIP3      H2             30.0186096015       25.0548942534      -11.3118946635  WZ2       3536            0.0000000000
     12997      4333  TIP3      OH2            22.1108096015       30.1600742534      -14.8489046635  WZ2       3537            0.0000000000
     12998      4333  TIP3      H1             22.6380296015       30.9335142534      -15.0490246635  WZ2       3537            0.0000000000
     12999      4333  TIP3      H2             21.2306596015       30.3849942534      -15.1505046635  WZ2       3537            0.0000000000
     13000      4334  TIP3      OH2            17.8655796015       25.0224842534      -20.2616646635  WZ2       3538            0.0000000000
     13001      4334  TIP3      H1             18.4815696015       25.6492042534      -19.8821846635  WZ2       3538            0.0000000000
     13002      4334  TIP3      H2             17.0038396015       25.3384642534      -19.9900146635  WZ2       3538            0.0000000000
     13003      4335  TIP3      OH2            23.5380396015       27.8230642534      -15.2724746635  WZ2       3539            0.0000000000
     13004      4335  TIP3      H1             23.2970396015       28.7485042534      -15.2309446635  WZ2       3539            0.0000000000
     13005      4335  TIP3      H2             22.7973996015       27.3641942534      -14.8760846635  WZ2       3539            0.0000000000
     13006      4336  TIP3      OH2            24.0526996015       31.9724242534       -8.9573646635  WZ2       3540            0.0000000000
     13007      4336  TIP3      H1             24.4151696015       32.8269842534       -9.1909246635  WZ2       3540            0.0000000000
     13008      4336  TIP3      H2             24.5842196015       31.6805842534       -8.2167346635  WZ2       3540            0.0000000000
     13009      4337  TIP3      OH2            22.2211196015       32.8448242534      -15.7272546635  WZ2       3541            0.0000000000
     13010      4337  TIP3      H1             21.2711696015       32.9505642534      -15.6759246635  WZ2       3541            0.0000000000
     13011      4337  TIP3      H2             22.5729296015       33.6655642534      -15.3825046635  WZ2       3541            0.0000000000
     13012      4338  TIP3      OH2            27.5967796015       28.0714942534       -9.2568046635  WZ2       3542            0.0000000000
     13013      4338  TIP3      H1             27.1709096015       27.8436642534       -8.4304046635  WZ2       3542            0.0000000000
     13014      4338  TIP3      H2             28.1773596015       27.3326742534       -9.4392746635  WZ2       3542            0.0000000000
     13015      4339  TIP3      OH2            18.3777896015       19.8562142534       -7.3800646635  WZ2       3546            0.0000000000
     13016      4339  TIP3      H1             17.4850196015       20.1947542534       -7.4476646635  WZ2       3546            0.0000000000
     13017      4339  TIP3      H2             18.2790696015       19.0008242534       -6.9619846635  WZ2       3546            0.0000000000
     13018      4340  TIP3      OH2            18.0289896015       31.6606542534       -8.9451246635  WZ2       3548            0.0000000000
     13019      4340  TIP3      H1             18.2460196015       30.7288942534       -8.9761546635  WZ2       3548            0.0000000000
     13020      4340  TIP3      H2             18.2753396015       31.9351542534       -8.0618446635  WZ2       3548            0.0000000000
     13021      4341  TIP3      OH2            22.8275096015       29.6825342534      -19.2796446635  WZ2       3550            0.0000000000
     13022      4341  TIP3      H1             22.9743096015       29.1625142534      -18.4895546635  WZ2       3550            0.0000000000
     13023      4341  TIP3      H2             22.8246796015       30.5892942534      -18.9730546635  WZ2       3550            0.0000000000
     13024      4342  TIP3      OH2            19.2806196015       26.9348642534      -18.7691046635  WZ2       3551            0.0000000000
     13025      4342  TIP3      H1             18.5945496015       27.2871142534      -18.2021346635  WZ2       3551            0.0000000000
     13026      4342  TIP3      H2             19.8034096015       27.6978242534      -19.0156746635  WZ2       3551            0.0000000000
     13027      4343  TIP3      OH2            27.1121296015       19.5972442534       -8.4902046635  WZ2       3552            0.0000000000
     13028      4343  TIP3      H1             27.8109196015       19.6711142534       -7.8402346635  WZ2       3552            0.0000000000
     13029      4343  TIP3      H2             26.7312696015       18.7327442534       -8.3359146635  WZ2       3552            0.0000000000
     13030      4344  TIP3      OH2            27.8966196015       19.2494142534      -17.3929746635  WZ2       3553            0.0000000000
     13031      4344  TIP3      H1             28.1164496015       19.7209542534      -18.1964346635  WZ2       3553            0.0000000000
     13032      4344  TIP3      H2             28.4550196015       19.6436742534      -16.7229146635  WZ2       3553            0.0000000000
     13033      4345  TIP3      OH2            25.0966096015       20.9772942534      -16.5581346635  WZ2       3555            0.0000000000
     13034      4345  TIP3      H1             25.9088696015       21.4816142534      -16.5119646635  WZ2       3555            0.0000000000
     13035      4345  TIP3      H2             24.8519096015       20.8322642534      -15.6441746635  WZ2       3555            0.0000000000
     13036      4346  TIP3      OH2            25.6322496015       21.9635642534       -7.3734746635  WZ2       3556            0.0000000000
     13037      4346  TIP3      H1             25.7512796015       22.5371042534       -6.6164346635  WZ2       3556            0.0000000000
     13038      4346  TIP3      H2             26.2877096015       21.2755042534       -7.2586946635  WZ2       3556            0.0000000000
     13039      4347  TIP3      OH2            25.9802796015       18.0585942534      -15.6200246635  WZ2       3557            0.0000000000
     13040      4347  TIP3      H1             25.6336296015       18.6756542534      -14.9755946635  WZ2       3557            0.0000000000
     13041      4347  TIP3      H2             26.6389696015       18.5591642534      -16.1014746635  WZ2       3557            0.0000000000
     13042      4348  TIP3      OH2            22.9035396015       32.4236142534      -18.5485346635  WZ2       3558            0.0000000000
     13043      4348  TIP3      H1             23.0644096015       33.2233642534      -19.0492746635  WZ2       3558            0.0000000000
     13044      4348  TIP3      H2             22.7063196015       32.7302142534      -17.6634746635  WZ2       3558            0.0000000000
     13045      4349  TIP3      OH2            21.6379796015       19.1215342534      -18.9327746635  WZ2       3559            0.0000000000
     13046      4349  TIP3      H1             21.5544596015       20.0098442534      -18.5861346635  WZ2       3559            0.0000000000
     13047      4349  TIP3      H2             22.5280096015       18.8562042534      -18.7010946635  WZ2       3559            0.0000000000
     13048      4350  TIP3      OH2            31.8368296015       19.8705942534       -6.5385046635  WZ2       3560            0.0000000000
     13049      4350  TIP3      H1             30.9204096015       20.1327642534       -6.6261346635  WZ2       3560            0.0000000000
     13050      4350  TIP3      H2             32.1723296015       19.8674942534       -7.4349746635  WZ2       3560            0.0000000000
     13051      4351  TIP3      OH2            30.4389296015       23.6206942534      -12.4427746635  WZ2       3561            0.0000000000
     13052      4351  TIP3      H1             29.6413696015       23.2057142534      -12.7712746635  WZ2       3561            0.0000000000
     13053      4351  TIP3      H2             30.8840396015       22.9300642534      -11.9517246635  WZ2       3561            0.0000000000
     13054      4352  TIP3      OH2            19.8965096015       29.5487542534      -19.8723246635  WZ2       3562            0.0000000000
     13055      4352  TIP3      H1             20.4886596015       30.2482342534      -19.5960846635  WZ2       3562            0.0000000000
     13056      4352  TIP3      H2             20.3558096015       29.1157042534      -20.5918646635  WZ2       3562            0.0000000000
     13057      4353  TIP3      OH2            18.2124296015       22.2130542534      -20.7563846635  WZ2       3563            0.0000000000
     13058      4353  TIP3      H1             18.1676896015       23.1523642534      -20.5776846635  WZ2       3563            0.0000000000
     13059      4353  TIP3      H2             17.3247496015       21.9775442534      -21.0261746635  WZ2       3563            0.0000000000
     13060      4354  TIP3      OH2            19.0206296015       16.9947142534      -12.0832846635  WZ2       3565            0.0000000000
     13061      4354  TIP3      H1             18.7916096015       17.0539642534      -13.0107846635  WZ2       3565            0.0000000000
     13062      4354  TIP3      H2             18.5779696015       16.2032642534      -11.7768746635  WZ2       3565            0.0000000000
     13063      4355  TIP3      OH2            17.9509596015       30.9354242534      -15.9227046635  WZ2       3566            0.0000000000
     13064      4355  TIP3      H1             17.1188196015       31.4076942534      -15.8955646635  WZ2       3566            0.0000000000
     13065      4355  TIP3      H2             18.4967896015       31.4451842534      -16.5213946635  WZ2       3566            0.0000000000
     13066      4356  TIP3      OH2            17.2393296015       33.5477942534       -4.5929046635  WZ2       3567            0.0000000000
     13067      4356  TIP3      H1             17.7795496015       33.3311942534       -3.8329846635  WZ2       3567            0.0000000000
     13068      4356  TIP3      H2             16.7581296015       32.7423942534       -4.7826546635  WZ2       3567            0.0000000000
     13069      4357  TIP3      OH2            21.8366696015       32.4672342534       -2.9724846635  WZ2       3568            0.0000000000
     13070      4357  TIP3      H1             22.6043896015       32.0083142534       -2.6315646635  WZ2       3568            0.0000000000
     13071      4357  TIP3      H2             21.8152896015       32.2412142534       -3.9023646635  WZ2       3568            0.0000000000
     13072      4358  TIP3      OH2            28.4135396015       30.8473442534       -4.2433346635  WZ2       3570            0.0000000000
     13073      4358  TIP3      H1             28.0624896015       29.9906442534       -4.0002946635  WZ2       3570            0.0000000000
     13074      4358  TIP3      H2             29.1398596015       30.9900142534       -3.6364346635  WZ2       3570            0.0000000000
     13075      4359  TIP3      OH2            17.1462796015       27.3582042534       -3.6384746635  WZ2       3572            0.0000000000
     13076      4359  TIP3      H1             17.2903296015       26.4562742534       -3.9248046635  WZ2       3572            0.0000000000
     13077      4359  TIP3      H2             16.3740196015       27.6444142534       -4.1262446635  WZ2       3572            0.0000000000
     13078      4360  TIP3      OH2            21.4876496015       27.7017742534      -21.5060146635  WZ2       3573            0.0000000000
     13079      4360  TIP3      H1             21.5520596015       26.9077342534      -20.9753746635  WZ2       3573            0.0000000000
     13080      4360  TIP3      H2             22.1405696015       27.5830542534      -22.1958146635  WZ2       3573            0.0000000000
     13081      4361  TIP3      OH2            23.8018896015       27.3280142534       -4.2058346635  WZ2       3574            0.0000000000
     13082      4361  TIP3      H1             23.4732696015       27.5988242534       -5.0630946635  WZ2       3574            0.0000000000
     13083      4361  TIP3      H2             23.9537096015       26.3869942534       -4.2933346635  WZ2       3574            0.0000000000
     13084      4362  TIP3      OH2            29.5364096015       27.2437442534       -6.8226046635  WZ2       3576            0.0000000000
     13085      4362  TIP3      H1             30.2818896015       27.8321142534       -6.9422046635  WZ2       3576            0.0000000000
     13086      4362  TIP3      H2             28.7790896015       27.8257142534       -6.7592946635  WZ2       3576            0.0000000000
     13087      4363  TIP3      OH2            17.9789296015       24.5585342534       -4.2185446635  WZ2       3577            0.0000000000
     13088      4363  TIP3      H1             18.3870496015       23.7011942534       -4.3394846635  WZ2       3577            0.0000000000
     13089      4363  TIP3      H2             17.7186896015       24.5726642534       -3.2975146635  WZ2       3577            0.0000000000
     13090      4364  TIP3      OH2            22.6370296015       25.6743942534      -19.2002146635  WZ2       3578            0.0000000000
     13091      4364  TIP3      H1             22.1772296015       25.1902242534      -18.5143646635  WZ2       3578            0.0000000000
     13092      4364  TIP3      H2             22.8918996015       25.0059342534      -19.8361646635  WZ2       3578            0.0000000000
     13093      4365  TIP3      OH2            21.9259596015       23.5671042534       -6.8442546635  WZ2       3579            0.0000000000
     13094      4365  TIP3      H1             21.3075696015       24.2417642534       -6.5637846635  WZ2       3579            0.0000000000
     13095      4365  TIP3      H2             22.2700796015       23.8884942534       -7.6776346635  WZ2       3579            0.0000000000
     13096      4366  TIP3      OH2            23.7080696015       23.9175742534      -20.9378946635  WZ2       3580            0.0000000000
     13097      4366  TIP3      H1             23.5275696015       23.7626942534      -21.8650646635  WZ2       3580            0.0000000000
     13098      4366  TIP3      H2             24.6581196015       24.0254442534      -20.8931046635  WZ2       3580            0.0000000000
     13099      4367  TIP3      OH2            26.9457796015       26.0386342534       -3.5667746635  WZ2       3581            0.0000000000
     13100      4367  TIP3      H1             27.8988996015       26.1225442534       -3.5941746635  WZ2       3581            0.0000000000
     13101      4367  TIP3      H2             26.7852396015       25.3268142534       -2.9472846635  WZ2       3581            0.0000000000
     13102      4368  TIP3      OH2            22.2653296015       20.9221842534       -5.7619446635  WZ2       3583            0.0000000000
     13103      4368  TIP3      H1             22.4154196015       20.1933142534       -6.3639746635  WZ2       3583            0.0000000000
     13104      4368  TIP3      H2             22.2675696015       21.6993542534       -6.3207246635  WZ2       3583            0.0000000000
     13105      4369  TIP3      OH2            22.6778996015       19.2917642534       -8.2692046635  WZ2       3584            0.0000000000
     13106      4369  TIP3      H1             23.2136496015       19.7434342534       -8.9212746635  WZ2       3584            0.0000000000
     13107      4369  TIP3      H2             21.8258596015       19.1837442534       -8.6917946635  WZ2       3584            0.0000000000
     13108      4370  TIP3      OH2            24.2597396015       24.7313842534       -8.0296846635  WZ2       3585            0.0000000000
     13109      4370  TIP3      H1             25.0102196015       24.5751342534       -8.6029046635  WZ2       3585            0.0000000000
     13110      4370  TIP3      H2             23.9205696015       25.5830442534       -8.3051346635  WZ2       3585            0.0000000000
     13111      4371  TIP3      OH2            28.6753596015       22.5465642534       -3.0011546635  WZ2       3586            0.0000000000
     13112      4371  TIP3      H1             28.8674896015       21.6155042534       -3.1127046635  WZ2       3586            0.0000000000
     13113      4371  TIP3      H2             29.5329896015       22.9715142534       -3.0116146635  WZ2       3586            0.0000000000
     13114      4372  TIP3      OH2            29.9920796015       25.3350842534       -4.9238846635  WZ2       3587            0.0000000000
     13115      4372  TIP3      H1             29.7105796015       26.0445442534       -5.5015046635  WZ2       3587            0.0000000000
     13116      4372  TIP3      H2             30.9345096015       25.2623842534       -5.0747646635  WZ2       3587            0.0000000000
     13117      4373  TIP3      OH2            20.7439596015       22.1205342534       -3.8503846635  WZ2       3588            0.0000000000
     13118      4373  TIP3      H1             19.9768596015       21.5880142534       -4.0606246635  WZ2       3588            0.0000000000
     13119      4373  TIP3      H2             21.4228596015       21.8105742534       -4.4497546635  WZ2       3588            0.0000000000
     13120      4374  TIP3      OH2            23.4834496015       16.7483342534       -7.8378446635  WZ2       3589            0.0000000000
     13121      4374  TIP3      H1             23.3854096015       17.6946542534       -7.9432246635  WZ2       3589            0.0000000000
     13122      4374  TIP3      H2             22.7410696015       16.3757142534       -8.3134946635  WZ2       3589            0.0000000000
     13123      4375  TIP3      OH2            24.7474996015       21.0698742534       -4.2740046635  WZ2       3590            0.0000000000
     13124      4375  TIP3      H1             24.5120396015       20.8505442534       -3.3725146635  WZ2       3590            0.0000000000
     13125      4375  TIP3      H2             23.9641896015       20.8629942534       -4.7837546635  WZ2       3590            0.0000000000
     13126      4376  TIP3      OH2            27.4631596015       20.1972242534       -5.1986546635  WZ2       3591            0.0000000000
     13127      4376  TIP3      H1             26.5156996015       20.2291942534       -5.0663246635  WZ2       3591            0.0000000000
     13128      4376  TIP3      H2             27.7758296015       19.5719342534       -4.5448346635  WZ2       3591            0.0000000000
     13129      4377  TIP3      OH2            29.0973096015       18.8313342534       -3.1934646635  WZ2       3592            0.0000000000
     13130      4377  TIP3      H1             29.0004896015       17.8790642534       -3.1992746635  WZ2       3592            0.0000000000
     13131      4377  TIP3      H2             28.7756196015       19.1000142534       -2.3329146635  WZ2       3592            0.0000000000
     13132      4378  TIP3      OH2            18.9242396015       20.0409142534       -4.1459146635  WZ2       3593            0.0000000000
     13133      4378  TIP3      H1             19.1359796015       19.3345242534       -4.7561646635  WZ2       3593            0.0000000000
     13134      4378  TIP3      H2             18.8129896015       19.6035142534       -3.3017946635  WZ2       3593            0.0000000000
     13135      4379  TIP3      OH2            23.7052596015       16.0420742534       -5.1665646635  WZ2       3594            0.0000000000
     13136      4379  TIP3      H1             24.4170996015       15.4022942534       -5.1806546635  WZ2       3594            0.0000000000
     13137      4379  TIP3      H2             23.6042996015       16.3089042534       -6.0802546635  WZ2       3594            0.0000000000
     13138      4380  TIP3      OH2            24.0590096015       17.7249142534       -3.1129346635  WZ2       3595            0.0000000000
     13139      4380  TIP3      H1             23.9272296015       17.2492942534       -3.9330846635  WZ2       3595            0.0000000000
     13140      4380  TIP3      H2             23.4597496015       18.4692742534       -3.1682246635  WZ2       3595            0.0000000000
     13141      4381  TIP3      OH2            17.1737296015       29.2443242534      -20.4537246635  WZ2       3597            0.0000000000
     13142      4381  TIP3      H1             18.0876496015       29.3232142534      -20.1803346635  WZ2       3597            0.0000000000
     13143      4381  TIP3      H2             17.1810396015       28.5572842534      -21.1201646635  WZ2       3597            0.0000000000
     13144      4382  TIP3      OH2            15.8227896015       34.6371742534      -15.3763346635  WZ2       3598            0.0000000000
     13145      4382  TIP3      H1             15.1754996015       34.1753442534      -15.9092146635  WZ2       3598            0.0000000000
     13146      4382  TIP3      H2             16.1772496015       33.9655042534      -14.7937146635  WZ2       3598            0.0000000000
     13147      4383  TIP3      OH2            16.6927096015       32.7178742534      -13.5717146635  WZ2       3599            0.0000000000
     13148      4383  TIP3      H1             16.3583896015       31.8376042534      -13.3996946635  WZ2       3599            0.0000000000
     13149      4383  TIP3      H2             16.9149496015       33.0633742534      -12.7071546635  WZ2       3599            0.0000000000
     13150      4384  TIP3      OH2            33.9507396015       25.1945442534      -15.6934746635  WZ2       3604            0.0000000000
     13151      4384  TIP3      H1             33.2241996015       24.7148042534      -15.2957146635  WZ2       3604            0.0000000000
     13152      4384  TIP3      H2             34.5320696015       25.4000142534      -14.9613146635  WZ2       3604            0.0000000000
     13153      4385  TIP3      OH2            31.7374196015       23.7151942534      -15.1306046635  WZ2       3609            0.0000000000
     13154      4385  TIP3      H1             31.5872996015       22.7700542534      -15.1508246635  WZ2       3609            0.0000000000
     13155      4385  TIP3      H2             31.3838696015       23.9963342534      -14.2866946635  WZ2       3609            0.0000000000
     13156      4386  TIP3      OH2            16.7726596015       25.7934142534      -11.1202246635  WZ2       3610            0.0000000000
     13157      4386  TIP3      H1             16.9569496015       25.7115842534      -12.0559346635  WZ2       3610            0.0000000000
     13158      4386  TIP3      H2             17.6219496015       25.6691142534      -10.6965846635  WZ2       3610            0.0000000000
     13159      4387  TIP3      OH2            32.5937096015       25.6855242534       -5.4917746635  WZ2       3611            0.0000000000
     13160      4387  TIP3      H1             33.1764396015       24.9507542534       -5.3000546635  WZ2       3611            0.0000000000
     13161      4387  TIP3      H2             33.1576396015       26.4575542534       -5.4451946635  WZ2       3611            0.0000000000
     13162      4388  TIP3      OH2            34.0904196015       23.5881042534       -4.8072346635  WZ2       3612            0.0000000000
     13163      4388  TIP3      H1             33.2270896015       23.2093142534       -4.9727646635  WZ2       3612            0.0000000000
     13164      4388  TIP3      H2             34.6947896015       22.8495842534       -4.8816546635  WZ2       3612            0.0000000000
     13165      4389  TIP3      OH2            31.4478996015       21.2977742534      -16.6680946635  WZ2       3614            0.0000000000
     13166      4389  TIP3      H1             31.7276096015       20.3908142534      -16.5439246635  WZ2       3614            0.0000000000
     13167      4389  TIP3      H2             32.2070696015       21.7319242534      -17.0571746635  WZ2       3614            0.0000000000
     13168      4390  TIP3      OH2            32.0597296015       21.8795142534      -11.2322046635  WZ2       3615            0.0000000000
     13169      4390  TIP3      H1             32.9925296015       22.0915042534      -11.2666046635  WZ2       3615            0.0000000000
     13170      4390  TIP3      H2             31.8244796015       21.9807242534      -10.3099046635  WZ2       3615            0.0000000000
     13171      4391  TIP3      OH2            32.0889196015       22.6160442534       -8.4562646635  WZ2       3616            0.0000000000
     13172      4391  TIP3      H1             31.2460496015       22.8840842534       -8.0902846635  WZ2       3616            0.0000000000
     13173      4391  TIP3      H2             32.5313496015       23.4382342534       -8.6671546635  WZ2       3616            0.0000000000
     13174      4392  TIP3      OH2            16.3701396015       21.0639142534       -4.9793446635  WZ2       3617            0.0000000000
     13175      4392  TIP3      H1             17.2896296015       20.9417442534       -4.7430346635  WZ2       3617            0.0000000000
     13176      4392  TIP3      H2             15.9205896015       20.3138842534       -4.5899946635  WZ2       3617            0.0000000000
     13177      4393  TIP3      OH2            34.3720796015       16.5960642534       -3.1027646635  WZ2       3618            0.0000000000
     13178      4393  TIP3      H1             34.7217796015       15.9424142534       -3.7082946635  WZ2       3618            0.0000000000
     13179      4393  TIP3      H2             34.5190296015       17.4334742534       -3.5425046635  WZ2       3618            0.0000000000
     13180      4394  TIP3      OH2            32.0613796015       18.5607042534      -16.6198946635  WZ2       3619            0.0000000000
     13181      4394  TIP3      H1             32.2438796015       18.1118542534      -15.7943946635  WZ2       3619            0.0000000000
     13182      4394  TIP3      H2             31.4616696015       17.9761442534      -17.0834346635  WZ2       3619            0.0000000000
     13183      4395  TIP3      OH2            17.5913896015       19.3760742534      -12.0880546635  WZ2       3620            0.0000000000
     13184      4395  TIP3      H1             18.0365496015       18.5843242534      -11.7860846635  WZ2       3620            0.0000000000
     13185      4395  TIP3      H2             18.0576896015       20.0925942534      -11.6574946635  WZ2       3620            0.0000000000
     13186      4396  TIP3      OH2            15.8954196015       22.3753742534      -11.0190346635  WZ2       3621            0.0000000000
     13187      4396  TIP3      H1             16.3873996015       22.1544242534      -11.8098346635  WZ2       3621            0.0000000000
     13188      4396  TIP3      H2             16.2575096015       23.2157142534      -10.7380846635  WZ2       3621            0.0000000000
     13189      4397  TIP3      OH2            33.8917996015       18.7055242534       -4.7536346635  WZ2       3622            0.0000000000
     13190      4397  TIP3      H1             32.9743696015       18.9762342534       -4.7892846635  WZ2       3622            0.0000000000
     13191      4397  TIP3      H2             34.0147396015       18.1703642534       -5.5376646635  WZ2       3622            0.0000000000
     13192      4398  TIP3      OH2            16.2090696015       18.6332842534      -16.9647946635  WZ2       3624            0.0000000000
     13193      4398  TIP3      H1             15.2839096015       18.8419442534      -17.0942446635  WZ2       3624            0.0000000000
     13194      4398  TIP3      H2             16.6630596015       19.1173642534      -17.6545646635  WZ2       3624            0.0000000000
     13195      4399  TIP3      OH2            16.1726096015       17.3711842534       -8.6205446635  WZ2       3626            0.0000000000
     13196      4399  TIP3      H1             15.5076596015       17.1252142534       -7.9774546635  WZ2       3626            0.0000000000
     13197      4399  TIP3      H2             15.7297396015       17.9932242534       -9.1977446635  WZ2       3626            0.0000000000
     13198      4400  TIP3      OH2            18.3645396015       30.5465942534       -4.4759646635  WZ2       3627            0.0000000000
     13199      4400  TIP3      H1             17.5437896015       30.7212442534       -4.9364946635  WZ2       3627            0.0000000000
     13200      4400  TIP3      H2             18.1123196015       30.4730642534       -3.5555246635  WZ2       3627            0.0000000000
     13201      4401  TIP3      OH2            21.3188296015       31.5207142534       -8.2175646635  WZ2       3628            0.0000000000
     13202      4401  TIP3      H1             20.8939396015       32.3305642534       -8.5001046635  WZ2       3628            0.0000000000
     13203      4401  TIP3      H2             22.2231096015       31.6061242534       -8.5195846635  WZ2       3628            0.0000000000
     13204      4402  TIP3      OH2            25.6299696015       32.9197142534       -5.2581946635  WZ2       3629            0.0000000000
     13205      4402  TIP3      H1             25.8147196015       32.5863242534       -4.3801646635  WZ2       3629            0.0000000000
     13206      4402  TIP3      H2             26.4764196015       33.2295742534       -5.5802746635  WZ2       3629            0.0000000000
     13207      4403  TIP3      OH2            32.8923896015       16.7951542534       -6.9345546635  WZ2       3631            0.0000000000
     13208      4403  TIP3      H1             32.0797396015       17.1201842534       -7.3220846635  WZ2       3631            0.0000000000
     13209      4403  TIP3      H2             33.1252396015       16.0350042534       -7.4676446635  WZ2       3631            0.0000000000
     13210      4404  TIP3      OH2            18.7204996015       34.7771042534       -8.1700346635  WZ2       3632            0.0000000000
     13211      4404  TIP3      H1             18.0001396015       35.2172042534       -8.6212646635  WZ2       3632            0.0000000000
     13212      4404  TIP3      H2             18.3548996015       34.5265742534       -7.3216346635  WZ2       3632            0.0000000000
     13213      4405  TIP3      OH2            21.1877596015       34.3774942534       -9.1403146635  WZ2       3633            0.0000000000
     13214      4405  TIP3      H1             20.3229796015       34.4493442534       -8.7363046635  WZ2       3633            0.0000000000
     13215      4405  TIP3      H2             21.1326596015       34.9242242534       -9.9240646635  WZ2       3633            0.0000000000
     13216      4406  TIP3      OH2            25.8983196015       34.2653842534       -9.9647146635  WZ2       3634            0.0000000000
     13217      4406  TIP3      H1             25.4417196015       34.7943542534      -10.6188746635  WZ2       3634            0.0000000000
     13218      4406  TIP3      H2             26.0611196015       34.8685242534       -9.2394846635  WZ2       3634            0.0000000000
     13219      4407  TIP3      OH2            28.2259496015       33.1433442534       -9.0196846635  WZ2       3635            0.0000000000
     13220      4407  TIP3      H1             27.3213196015       33.3083642534       -9.2854746635  WZ2       3635            0.0000000000
     13221      4407  TIP3      H2             28.6548096015       33.9965642534       -9.0853446635  WZ2       3635            0.0000000000
     13222      4408  TIP3      OH2            18.1353096015       33.4003542534      -11.2598546635  WZ2       3637            0.0000000000
     13223      4408  TIP3      H1             18.1169096015       32.9748642534      -10.4026246635  WZ2       3637            0.0000000000
     13224      4408  TIP3      H2             18.9400996015       33.0818542534      -11.6686346635  WZ2       3637            0.0000000000
     13225      4409  TIP3      OH2            20.2766196015       32.1102242534      -12.6048646635  WZ2       3638            0.0000000000
     13226      4409  TIP3      H1             20.0576896015       31.1939642534      -12.4352646635  WZ2       3638            0.0000000000
     13227      4409  TIP3      H2             21.1008396015       32.2502642534      -12.1387246635  WZ2       3638            0.0000000000
     13228      4410  TIP3      OH2            22.8138696015       32.5801542534      -11.7560646635  WZ2       3639            0.0000000000
     13229      4410  TIP3      H1             23.0264396015       31.6920542534      -12.0429746635  WZ2       3639            0.0000000000
     13230      4410  TIP3      H2             22.8783796015       32.5459242534      -10.8016646635  WZ2       3639            0.0000000000
     13231      4411  TIP3      OH2            26.3222396015       18.2442142534      -12.6117346635  WZ2       3640            0.0000000000
     13232      4411  TIP3      H1             25.6479196015       17.6147742534      -12.3561546635  WZ2       3640            0.0000000000
     13233      4411  TIP3      H2             26.8861596015       17.7601042534      -13.2149446635  WZ2       3640            0.0000000000
     13234      4412  TIP3      OH2            31.4649596015       16.3516142534      -12.4990246635  WZ2       3641            0.0000000000
     13235      4412  TIP3      H1             32.0687196015       16.8991542534      -13.0009246635  WZ2       3641            0.0000000000
     13236      4412  TIP3      H2             30.5951596015       16.6706542534      -12.7396146635  WZ2       3641            0.0000000000
     13237      4413  TIP3      OH2            33.1919996015       17.4904842534      -14.1659346635  WZ2       3642            0.0000000000
     13238      4413  TIP3      H1             33.8037496015       16.9760542534      -14.6925746635  WZ2       3642            0.0000000000
     13239      4413  TIP3      H2             33.5743396015       18.3676942534      -14.1424946635  WZ2       3642            0.0000000000
     13240      4414  TIP3      OH2            18.6489896015       16.8782442534      -14.7897446635  WZ2       3643            0.0000000000
     13241      4414  TIP3      H1             17.8719696015       16.6437342534      -15.2971546635  WZ2       3643            0.0000000000
     13242      4414  TIP3      H2             19.1793496015       16.0814542534      -14.7809446635  WZ2       3643            0.0000000000
     13243      4415  TIP3      OH2            17.4853296015       16.6760542534      -18.9861346635  WZ2       3644            0.0000000000
     13244      4415  TIP3      H1             17.9243996015       17.2871042534      -19.5777846635  WZ2       3644            0.0000000000
     13245      4415  TIP3      H2             16.8515696015       17.2144642534      -18.5121346635  WZ2       3644            0.0000000000
     13246      4416  TIP3      OH2            23.2282496015       16.8049542534      -14.9764346635  WZ2       3645            0.0000000000
     13247      4416  TIP3      H1             24.1025896015       17.1933842534      -15.0060046635  WZ2       3645            0.0000000000
     13248      4416  TIP3      H2             23.0923296015       16.5897342534      -14.0537146635  WZ2       3645            0.0000000000
     13249      4417  TIP3      OH2            28.7850896015       16.8349342534      -13.3272646635  WZ2       3646            0.0000000000
     13250      4417  TIP3      H1             28.8612496015       16.9300942534      -14.2766646635  WZ2       3646            0.0000000000
     13251      4417  TIP3      H2             28.5100096015       15.9272242534      -13.1983546635  WZ2       3646            0.0000000000
     13252      4418  TIP3      OH2            30.1383496015       16.8607142534      -17.6347646635  WZ2       3647            0.0000000000
     13253      4418  TIP3      H1             29.4354596015       17.4756342534      -17.8446246635  WZ2       3647            0.0000000000
     13254      4418  TIP3      H2             29.6934896015       16.0233842534      -17.5036746635  WZ2       3647            0.0000000000
     13255      4419  TIP3      OH2            17.3862796015       32.6242742534      -18.0886246635  WZ2       3648            0.0000000000
     13256      4419  TIP3      H1             16.7012696015       32.5861642534      -18.7561146635  WZ2       3648            0.0000000000
     13257      4419  TIP3      H2             17.3899996015       33.5370342534      -17.8004146635  WZ2       3648            0.0000000000
     13258      4420  TIP3      OH2            19.3462396015       18.5922042534      -20.5437246635  WZ2       3649            0.0000000000
     13259      4420  TIP3      H1             19.8375796015       17.9624442534      -21.0711746635  WZ2       3649            0.0000000000
     13260      4420  TIP3      H2             19.9698696015       18.8881442534      -19.8806046635  WZ2       3649            0.0000000000
     13261      4421  TIP3      OH2            24.3722496015       18.8853542534      -18.0866746635  WZ2       3650            0.0000000000
     13262      4421  TIP3      H1             24.5503796015       18.2386742534      -17.4038146635  WZ2       3650            0.0000000000
     13263      4421  TIP3      H2             24.3188696015       19.7191242534      -17.6195646635  WZ2       3650            0.0000000000
     13264      4422  TIP3      OH2            18.6067896015       17.3924342534       -5.2721246635  WZ2       3653            0.0000000000
     13265      4422  TIP3      H1             18.2406096015       16.6266942534       -4.8296546635  WZ2       3653            0.0000000000
     13266      4422  TIP3      H2             19.5196396015       17.4214542534       -4.9856146635  WZ2       3653            0.0000000000
     13267      4423  TIP3      OH2            20.5798696015       16.7428742534       -3.7364146635  WZ2       3654            0.0000000000
     13268      4423  TIP3      H1             21.4782296015       16.4688942534       -3.9210746635  WZ2       3654            0.0000000000
     13269      4423  TIP3      H2             20.1931796015       16.0004742534       -3.2721546635  WZ2       3654            0.0000000000
     13270      4424  TIP3      OH2            29.0010996015       16.0754042534       -3.5541346635  WZ2       3656            0.0000000000
     13271      4424  TIP3      H1             29.0778196015       15.6494742534       -2.7003646635  WZ2       3656            0.0000000000
     13272      4424  TIP3      H2             29.8947596015       16.0888742534       -3.8967846635  WZ2       3656            0.0000000000
     13273      4425  TIP3      OH2            34.7559096015       19.7463442534      -14.2892246635  WZ2       3680            0.0000000000
     13274      4425  TIP3      H1             35.3866796015       19.7175542534      -13.5698346635  WZ2       3680            0.0000000000
     13275      4425  TIP3      H2             35.2053396015       19.3212142534      -15.0196346635  WZ2       3680            0.0000000000
     13276      4426  TIP3      OH2            37.2337896015       19.8562142534       -7.3800646635  WZ2       3689            0.0000000000
     13277      4426  TIP3      H1             36.3410196015       20.1947542534       -7.4476646635  WZ2       3689            0.0000000000
     13278      4426  TIP3      H2             37.1350696015       19.0008242534       -6.9619846635  WZ2       3689            0.0000000000
     13279      4427  TIP3      OH2            37.8766296015       16.9947142534      -12.0832846635  WZ2       3695            0.0000000000
     13280      4427  TIP3      H1             37.6476096015       17.0539642534      -13.0107846635  WZ2       3695            0.0000000000
     13281      4427  TIP3      H2             37.4339696015       16.2032642534      -11.7768746635  WZ2       3695            0.0000000000
     13282      4428  TIP3      OH2            37.7802396015       20.0409142534       -4.1459146635  WZ2       3702            0.0000000000
     13283      4428  TIP3      H1             37.9919796015       19.3345242534       -4.7561646635  WZ2       3702            0.0000000000
     13284      4428  TIP3      H2             37.6689896015       19.6035142534       -3.3017946635  WZ2       3702            0.0000000000
     13285      4429  TIP3      OH2            35.2261396015       21.0639142534       -4.9793446635  WZ2       3707            0.0000000000
     13286      4429  TIP3      H1             36.1456296015       20.9417442534       -4.7430346635  WZ2       3707            0.0000000000
     13287      4429  TIP3      H2             34.7765896015       20.3138842534       -4.5899946635  WZ2       3707            0.0000000000
     13288      4430  TIP3      OH2            36.4473896015       19.3760742534      -12.0880546635  WZ2       3708            0.0000000000
     13289      4430  TIP3      H1             36.8925496015       18.5843242534      -11.7860846635  WZ2       3708            0.0000000000
     13290      4430  TIP3      H2             36.9136896015       20.0925942534      -11.6574946635  WZ2       3708            0.0000000000
     13291      4431  TIP3      OH2            34.7514196015       22.3753742534      -11.0190346635  WZ2       3709            0.0000000000
     13292      4431  TIP3      H1             35.2433996015       22.1544242534      -11.8098346635  WZ2       3709            0.0000000000
     13293      4431  TIP3      H2             35.1135096015       23.2157142534      -10.7380846635  WZ2       3709            0.0000000000
     13294      4432  TIP3      OH2            35.0650696015       18.6332842534      -16.9647946635  WZ2       3710            0.0000000000
     13295      4432  TIP3      H1             34.1399096015       18.8419442534      -17.0942446635  WZ2       3710            0.0000000000
     13296      4432  TIP3      H2             35.5190596015       19.1173642534      -17.6545646635  WZ2       3710            0.0000000000
     13297      4433  TIP3      OH2            35.0286096015       17.3711842534       -8.6205446635  WZ2       3711            0.0000000000
     13298      4433  TIP3      H1             34.3636596015       17.1252142534       -7.9774546635  WZ2       3711            0.0000000000
     13299      4433  TIP3      H2             34.5857396015       17.9932242534       -9.1977446635  WZ2       3711            0.0000000000
     13300      4434  TIP3      OH2            37.5049896015       16.8782442534      -14.7897446635  WZ2       3718            0.0000000000
     13301      4434  TIP3      H1             36.7279696015       16.6437342534      -15.2971546635  WZ2       3718            0.0000000000
     13302      4434  TIP3      H2             38.0353496015       16.0814542534      -14.7809446635  WZ2       3718            0.0000000000
     13303      4435  TIP3      OH2            37.4627896015       17.3924342534       -5.2721246635  WZ2       3722            0.0000000000
     13304      4435  TIP3      H1             37.0966096015       16.6266942534       -4.8296546635  WZ2       3722            0.0000000000
     13305      4435  TIP3      H2             38.3756396015       17.4214542534       -4.9856146635  WZ2       3722            0.0000000000
     13306      4436  TIP3      OH2            39.4358696015       16.7428742534       -3.7364146635  WZ2       3723            0.0000000000
     13307      4436  TIP3      H1             40.3342296015       16.4688942534       -3.9210746635  WZ2       3723            0.0000000000
     13308      4436  TIP3      H2             39.0491796015       16.0004742534       -3.2721546635  WZ2       3723            0.0000000000
     13309      4437  TIP3      OH2           -22.1959203985       35.4520642534       -3.1027646635  WZ2       3771            0.0000000000
     13310      4437  TIP3      H1            -21.8462203985       34.7984142534       -3.7082946635  WZ2       3771            0.0000000000
     13311      4437  TIP3      H2            -22.0489703985       36.2894742534       -3.5425046635  WZ2       3771            0.0000000000
     13312      4438  TIP3      OH2           -23.6756103985       35.6511542534       -6.9345546635  WZ2       3778            0.0000000000
     13313      4438  TIP3      H1            -24.4882603985       35.9761842534       -7.3220846635  WZ2       3778            0.0000000000
     13314      4438  TIP3      H2            -23.4427603985       34.8910042534       -7.4676446635  WZ2       3778            0.0000000000
     13315      4439  TIP3      OH2           -25.1030403985       35.2076142534      -12.4990246635  WZ2       3780            0.0000000000
     13316      4439  TIP3      H1            -24.4992803985       35.7551542534      -13.0009246635  WZ2       3780            0.0000000000
     13317      4439  TIP3      H2            -25.9728403985       35.5266542534      -12.7396146635  WZ2       3780            0.0000000000
     13318      4440  TIP3      OH2           -23.3760003985       36.3464842534      -14.1659346635  WZ2       3781            0.0000000000
     13319      4440  TIP3      H1            -22.7642503985       35.8320542534      -14.6925746635  WZ2       3781            0.0000000000
     13320      4440  TIP3      H2            -22.9936603985       37.2236942534      -14.1424946635  WZ2       3781            0.0000000000
     13321      4441  TIP3      OH2           -13.5299903985       35.2969142534      -11.8795446635  WZ2       3800            0.0000000000
     13322      4441  TIP3      H1            -13.6475703985       34.3485142534      -11.9337146635  WZ2       3800            0.0000000000
     13323      4441  TIP3      H2            -14.3849803985       35.6295242534      -11.6064346635  WZ2       3800            0.0000000000
     13324      4442  TIP3      OH2            -5.2879403985       35.2561342534      -18.9292846635  WZ2       3801            0.0000000000
     13325      4442  TIP3      H1             -6.1878703985       35.3950342534      -18.6342246635  WZ2       3801            0.0000000000
     13326      4442  TIP3      H2             -5.0361003985       36.0875942534      -19.3311146635  WZ2       3801            0.0000000000
     13327      4443  TIP3      OH2           -16.2612303985       36.2003642534      -11.1019146635  WZ2       3802            0.0000000000
     13328      4443  TIP3      H1            -17.1228603985       36.1131842534      -11.5096246635  WZ2       3802            0.0000000000
     13329      4443  TIP3      H2            -16.2836603985       37.0563742534      -10.6741546635  WZ2       3802            0.0000000000
     13330      4444  TIP3      OH2           -11.5984503985       35.9224042534       -7.7272146635  WZ2       3803            0.0000000000
     13331      4444  TIP3      H1            -11.1781403985       35.5071142534       -6.9741546635  WZ2       3803            0.0000000000
     13332      4444  TIP3      H2            -12.5314903985       35.7437342534       -7.6100146635  WZ2       3803            0.0000000000
     13333      4445  TIP3      OH2           -18.6913703985       35.8507142534      -12.0832846635  WZ2       3824            0.0000000000
     13334      4445  TIP3      H1            -18.9203903985       35.9099642534      -13.0107846635  WZ2       3824            0.0000000000
     13335      4445  TIP3      H2            -19.1340303985       35.0592642534      -11.7768746635  WZ2       3824            0.0000000000
     13336      4446  TIP3      OH2           -14.2285503985       35.6043342534       -7.8378446635  WZ2       3827            0.0000000000
     13337      4446  TIP3      H1            -14.3265903985       36.5506542534       -7.9432246635  WZ2       3827            0.0000000000
     13338      4446  TIP3      H2            -14.9709303985       35.2317142534       -8.3134946635  WZ2       3827            0.0000000000
     13339      4447  TIP3      OH2           -14.0067403985       34.8980742534       -5.1665646635  WZ2       3832            0.0000000000
     13340      4447  TIP3      H1            -13.2949003985       34.2582942534       -5.1806546635  WZ2       3832            0.0000000000
     13341      4447  TIP3      H2            -14.1077003985       35.1649042534       -6.0802546635  WZ2       3832            0.0000000000
     13342      4448  TIP3      OH2           -13.6529903985       36.5809142534       -3.1129346635  WZ2       3833            0.0000000000
     13343      4448  TIP3      H1            -13.7847703985       36.1052942534       -3.9330846635  WZ2       3833            0.0000000000
     13344      4448  TIP3      H2            -14.2522503985       37.3252742534       -3.1682246635  WZ2       3833            0.0000000000
     13345      4449  TIP3      OH2            -3.3399203985       35.4520642534       -3.1027646635  WZ2       3838            0.0000000000
     13346      4449  TIP3      H1             -2.9902203985       34.7984142534       -3.7082946635  WZ2       3838            0.0000000000
     13347      4449  TIP3      H2             -3.1929703985       36.2894742534       -3.5425046635  WZ2       3838            0.0000000000
     13348      4450  TIP3      OH2           -21.5393903985       36.2271842534       -8.6205446635  WZ2       3844            0.0000000000
     13349      4450  TIP3      H1            -22.2043403985       35.9812142534       -7.9774546635  WZ2       3844            0.0000000000
     13350      4450  TIP3      H2            -21.9822603985       36.8492242534       -9.1977446635  WZ2       3844            0.0000000000
     13351      4451  TIP3      OH2            -4.8196103985       35.6511542534       -6.9345546635  WZ2       3845            0.0000000000
     13352      4451  TIP3      H1             -5.6322603985       35.9761842534       -7.3220846635  WZ2       3845            0.0000000000
     13353      4451  TIP3      H2             -4.5867603985       34.8910042534       -7.4676446635  WZ2       3845            0.0000000000
     13354      4452  TIP3      OH2           -11.3897603985       37.1002142534      -12.6117346635  WZ2       3846            0.0000000000
     13355      4452  TIP3      H1            -12.0640803985       36.4707742534      -12.3561546635  WZ2       3846            0.0000000000
     13356      4452  TIP3      H2            -10.8258403985       36.6161042534      -13.2149446635  WZ2       3846            0.0000000000
     13357      4453  TIP3      OH2            -6.2470403985       35.2076142534      -12.4990246635  WZ2       3847            0.0000000000
     13358      4453  TIP3      H1             -5.6432803985       35.7551542534      -13.0009246635  WZ2       3847            0.0000000000
     13359      4453  TIP3      H2             -7.1168403985       35.5266542534      -12.7396146635  WZ2       3847            0.0000000000
     13360      4454  TIP3      OH2            -4.5200003985       36.3464842534      -14.1659346635  WZ2       3848            0.0000000000
     13361      4454  TIP3      H1             -3.9082503985       35.8320542534      -14.6925746635  WZ2       3848            0.0000000000
     13362      4454  TIP3      H2             -4.1376603985       37.2236942534      -14.1424946635  WZ2       3848            0.0000000000
     13363      4455  TIP3      OH2           -19.0630103985       35.7342442534      -14.7897446635  WZ2       3849            0.0000000000
     13364      4455  TIP3      H1            -19.8400303985       35.4997342534      -15.2971546635  WZ2       3849            0.0000000000
     13365      4455  TIP3      H2            -18.5326503985       34.9374542534      -14.7809446635  WZ2       3849            0.0000000000
     13366      4456  TIP3      OH2           -20.2266703985       35.5320542534      -18.9861346635  WZ2       3850            0.0000000000
     13367      4456  TIP3      H1            -19.7876003985       36.1431042534      -19.5777846635  WZ2       3850            0.0000000000
     13368      4456  TIP3      H2            -20.8604303985       36.0704642534      -18.5121346635  WZ2       3850            0.0000000000
     13369      4457  TIP3      OH2           -14.4837503985       35.6609542534      -14.9764346635  WZ2       3851            0.0000000000
     13370      4457  TIP3      H1            -13.6094103985       36.0493842534      -15.0060046635  WZ2       3851            0.0000000000
     13371      4457  TIP3      H2            -14.6196703985       35.4457342534      -14.0537146635  WZ2       3851            0.0000000000
     13372      4458  TIP3      OH2            -8.9269103985       35.6909342534      -13.3272646635  WZ2       3852            0.0000000000
     13373      4458  TIP3      H1             -8.8507503985       35.7860942534      -14.2766646635  WZ2       3852            0.0000000000
     13374      4458  TIP3      H2             -9.2019903985       34.7832242534      -13.1983546635  WZ2       3852            0.0000000000
     13375      4459  TIP3      OH2            -7.5736503985       35.7167142534      -17.6347646635  WZ2       3853            0.0000000000
     13376      4459  TIP3      H1             -8.2765403985       36.3316342534      -17.8446246635  WZ2       3853            0.0000000000
     13377      4459  TIP3      H2             -8.0185103985       34.8793842534      -17.5036746635  WZ2       3853            0.0000000000
     13378      4460  TIP3      OH2           -19.1052103985       36.2484342534       -5.2721246635  WZ2       3856            0.0000000000
     13379      4460  TIP3      H1            -19.4713903985       35.4826942534       -4.8296546635  WZ2       3856            0.0000000000
     13380      4460  TIP3      H2            -18.1923603985       36.2774542534       -4.9856146635  WZ2       3856            0.0000000000
     13381      4461  TIP3      OH2           -17.1321303985       35.5988742534       -3.7364146635  WZ2       3857            0.0000000000
     13382      4461  TIP3      H1            -16.2337703985       35.3248942534       -3.9210746635  WZ2       3857            0.0000000000
     13383      4461  TIP3      H2            -17.5188203985       34.8564742534       -3.2721546635  WZ2       3857            0.0000000000
     13384      4462  TIP3      OH2            -8.7109003985       34.9314042534       -3.5541346635  WZ2       3858            0.0000000000
     13385      4462  TIP3      H1             -8.6341803985       34.5054742534       -2.7003646635  WZ2       3858            0.0000000000
     13386      4462  TIP3      H2             -7.8172403985       34.9448742534       -3.8967846635  WZ2       3858            0.0000000000
     13387      4463  TIP3      OH2             5.3260096015       35.2969142534      -11.8795446635  WZ2       3867            0.0000000000
     13388      4463  TIP3      H1              5.2084296015       34.3485142534      -11.9337146635  WZ2       3867            0.0000000000
     13389      4463  TIP3      H2              4.4710196015       35.6295242534      -11.6064346635  WZ2       3867            0.0000000000
     13390      4464  TIP3      OH2            13.5680596015       35.2561342534      -18.9292846635  WZ2       3868            0.0000000000
     13391      4464  TIP3      H1             12.6681296015       35.3950342534      -18.6342246635  WZ2       3868            0.0000000000
     13392      4464  TIP3      H2             13.8198996015       36.0875942534      -19.3311146635  WZ2       3868            0.0000000000
     13393      4465  TIP3      OH2             2.5947696015       36.2003642534      -11.1019146635  WZ2       3869            0.0000000000
     13394      4465  TIP3      H1              1.7331396015       36.1131842534      -11.5096246635  WZ2       3869            0.0000000000
     13395      4465  TIP3      H2              2.5723396015       37.0563742534      -10.6741546635  WZ2       3869            0.0000000000
     13396      4466  TIP3      OH2             7.2575496015       35.9224042534       -7.7272146635  WZ2       3870            0.0000000000
     13397      4466  TIP3      H1              7.6778596015       35.5071142534       -6.9741546635  WZ2       3870            0.0000000000
     13398      4466  TIP3      H2              6.3245096015       35.7437342534       -7.6100146635  WZ2       3870            0.0000000000
     13399      4467  TIP3      OH2             0.1646296015       35.8507142534      -12.0832846635  WZ2       3891            0.0000000000
     13400      4467  TIP3      H1             -0.0643903985       35.9099642534      -13.0107846635  WZ2       3891            0.0000000000
     13401      4467  TIP3      H2             -0.2780303985       35.0592642534      -11.7768746635  WZ2       3891            0.0000000000
     13402      4468  TIP3      OH2             4.6274496015       35.6043342534       -7.8378446635  WZ2       3894            0.0000000000
     13403      4468  TIP3      H1              4.5294096015       36.5506542534       -7.9432246635  WZ2       3894            0.0000000000
     13404      4468  TIP3      H2              3.8850696015       35.2317142534       -8.3134946635  WZ2       3894            0.0000000000
     13405      4469  TIP3      OH2             4.8492596015       34.8980742534       -5.1665646635  WZ2       3899            0.0000000000
     13406      4469  TIP3      H1              5.5610996015       34.2582942534       -5.1806546635  WZ2       3899            0.0000000000
     13407      4469  TIP3      H2              4.7482996015       35.1649042534       -6.0802546635  WZ2       3899            0.0000000000
     13408      4470  TIP3      OH2             5.2030096015       36.5809142534       -3.1129346635  WZ2       3900            0.0000000000
     13409      4470  TIP3      H1              5.0712296015       36.1052942534       -3.9330846635  WZ2       3900            0.0000000000
     13410      4470  TIP3      H2              4.6037496015       37.3252742534       -3.1682246635  WZ2       3900            0.0000000000
     13411      4471  TIP3      OH2            15.5160796015       35.4520642534       -3.1027646635  WZ2       3905            0.0000000000
     13412      4471  TIP3      H1             15.8657796015       34.7984142534       -3.7082946635  WZ2       3905            0.0000000000
     13413      4471  TIP3      H2             15.6630296015       36.2894742534       -3.5425046635  WZ2       3905            0.0000000000
     13414      4472  TIP3      OH2            -2.6833903985       36.2271842534       -8.6205446635  WZ2       3911            0.0000000000
     13415      4472  TIP3      H1             -3.3483403985       35.9812142534       -7.9774546635  WZ2       3911            0.0000000000
     13416      4472  TIP3      H2             -3.1262603985       36.8492242534       -9.1977446635  WZ2       3911            0.0000000000
     13417      4473  TIP3      OH2            14.0363896015       35.6511542534       -6.9345546635  WZ2       3912            0.0000000000
     13418      4473  TIP3      H1             13.2237396015       35.9761842534       -7.3220846635  WZ2       3912            0.0000000000
     13419      4473  TIP3      H2             14.2692396015       34.8910042534       -7.4676446635  WZ2       3912            0.0000000000
     13420      4474  TIP3      OH2             7.4662396015       37.1002142534      -12.6117346635  WZ2       3913            0.0000000000
     13421      4474  TIP3      H1              6.7919196015       36.4707742534      -12.3561546635  WZ2       3913            0.0000000000
     13422      4474  TIP3      H2              8.0301596015       36.6161042534      -13.2149446635  WZ2       3913            0.0000000000
     13423      4475  TIP3      OH2            12.6089596015       35.2076142534      -12.4990246635  WZ2       3914            0.0000000000
     13424      4475  TIP3      H1             13.2127196015       35.7551542534      -13.0009246635  WZ2       3914            0.0000000000
     13425      4475  TIP3      H2             11.7391596015       35.5266542534      -12.7396146635  WZ2       3914            0.0000000000
     13426      4476  TIP3      OH2            14.3359996015       36.3464842534      -14.1659346635  WZ2       3915            0.0000000000
     13427      4476  TIP3      H1             14.9477496015       35.8320542534      -14.6925746635  WZ2       3915            0.0000000000
     13428      4476  TIP3      H2             14.7183396015       37.2236942534      -14.1424946635  WZ2       3915            0.0000000000
     13429      4477  TIP3      OH2            -0.2070103985       35.7342442534      -14.7897446635  WZ2       3916            0.0000000000
     13430      4477  TIP3      H1             -0.9840303985       35.4997342534      -15.2971546635  WZ2       3916            0.0000000000
     13431      4477  TIP3      H2              0.3233496015       34.9374542534      -14.7809446635  WZ2       3916            0.0000000000
     13432      4478  TIP3      OH2            -1.3706703985       35.5320542534      -18.9861346635  WZ2       3917            0.0000000000
     13433      4478  TIP3      H1             -0.9316003985       36.1431042534      -19.5777846635  WZ2       3917            0.0000000000
     13434      4478  TIP3      H2             -2.0044303985       36.0704642534      -18.5121346635  WZ2       3917            0.0000000000
     13435      4479  TIP3      OH2             4.3722496015       35.6609542534      -14.9764346635  WZ2       3918            0.0000000000
     13436      4479  TIP3      H1              5.2465896015       36.0493842534      -15.0060046635  WZ2       3918            0.0000000000
     13437      4479  TIP3      H2              4.2363296015       35.4457342534      -14.0537146635  WZ2       3918            0.0000000000
     13438      4480  TIP3      OH2             9.9290896015       35.6909342534      -13.3272646635  WZ2       3919            0.0000000000
     13439      4480  TIP3      H1             10.0052496015       35.7860942534      -14.2766646635  WZ2       3919            0.0000000000
     13440      4480  TIP3      H2              9.6540096015       34.7832242534      -13.1983546635  WZ2       3919            0.0000000000
     13441      4481  TIP3      OH2            11.2823496015       35.7167142534      -17.6347646635  WZ2       3920            0.0000000000
     13442      4481  TIP3      H1             10.5794596015       36.3316342534      -17.8446246635  WZ2       3920            0.0000000000
     13443      4481  TIP3      H2             10.8374896015       34.8793842534      -17.5036746635  WZ2       3920            0.0000000000
     13444      4482  TIP3      OH2            -0.2492103985       36.2484342534       -5.2721246635  WZ2       3923            0.0000000000
     13445      4482  TIP3      H1             -0.6153903985       35.4826942534       -4.8296546635  WZ2       3923            0.0000000000
     13446      4482  TIP3      H2              0.6636396015       36.2774542534       -4.9856146635  WZ2       3923            0.0000000000
     13447      4483  TIP3      OH2             1.7238696015       35.5988742534       -3.7364146635  WZ2       3924            0.0000000000
     13448      4483  TIP3      H1              2.6222296015       35.3248942534       -3.9210746635  WZ2       3924            0.0000000000
     13449      4483  TIP3      H2              1.3371796015       34.8564742534       -3.2721546635  WZ2       3924            0.0000000000
     13450      4484  TIP3      OH2            10.1450996015       34.9314042534       -3.5541346635  WZ2       3925            0.0000000000
     13451      4484  TIP3      H1             10.2218196015       34.5054742534       -2.7003646635  WZ2       3925            0.0000000000
     13452      4484  TIP3      H2             11.0387596015       34.9448742534       -3.8967846635  WZ2       3925            0.0000000000
     13453      4485  TIP3      OH2            24.1820096015       35.2969142534      -11.8795446635  WZ2       3934            0.0000000000
     13454      4485  TIP3      H1             24.0644296015       34.3485142534      -11.9337146635  WZ2       3934            0.0000000000
     13455      4485  TIP3      H2             23.3270196015       35.6295242534      -11.6064346635  WZ2       3934            0.0000000000
     13456      4486  TIP3      OH2            21.4507696015       36.2003642534      -11.1019146635  WZ2       3936            0.0000000000
     13457      4486  TIP3      H1             20.5891396015       36.1131842534      -11.5096246635  WZ2       3936            0.0000000000
     13458      4486  TIP3      H2             21.4283396015       37.0563742534      -10.6741546635  WZ2       3936            0.0000000000
     13459      4487  TIP3      OH2            26.1135496015       35.9224042534       -7.7272146635  WZ2       3937            0.0000000000
     13460      4487  TIP3      H1             26.5338596015       35.5071142534       -6.9741546635  WZ2       3937            0.0000000000
     13461      4487  TIP3      H2             25.1805096015       35.7437342534       -7.6100146635  WZ2       3937            0.0000000000
     13462      4488  TIP3      OH2            19.0206296015       35.8507142534      -12.0832846635  WZ2       3958            0.0000000000
     13463      4488  TIP3      H1             18.7916096015       35.9099642534      -13.0107846635  WZ2       3958            0.0000000000
     13464      4488  TIP3      H2             18.5779696015       35.0592642534      -11.7768746635  WZ2       3958            0.0000000000
     13465      4489  TIP3      OH2            23.4834496015       35.6043342534       -7.8378446635  WZ2       3961            0.0000000000
     13466      4489  TIP3      H1             23.3854096015       36.5506542534       -7.9432246635  WZ2       3961            0.0000000000
     13467      4489  TIP3      H2             22.7410696015       35.2317142534       -8.3134946635  WZ2       3961            0.0000000000
     13468      4490  TIP3      OH2            23.7052596015       34.8980742534       -5.1665646635  WZ2       3966            0.0000000000
     13469      4490  TIP3      H1             24.4170996015       34.2582942534       -5.1806546635  WZ2       3966            0.0000000000
     13470      4490  TIP3      H2             23.6042996015       35.1649042534       -6.0802546635  WZ2       3966            0.0000000000
     13471      4491  TIP3      OH2            24.0590096015       36.5809142534       -3.1129346635  WZ2       3967            0.0000000000
     13472      4491  TIP3      H1             23.9272296015       36.1052942534       -3.9330846635  WZ2       3967            0.0000000000
     13473      4491  TIP3      H2             23.4597496015       37.3252742534       -3.1682246635  WZ2       3967            0.0000000000
     13474      4492  TIP3      OH2            16.1726096015       36.2271842534       -8.6205446635  WZ2       3978            0.0000000000
     13475      4492  TIP3      H1             15.5076596015       35.9812142534       -7.9774546635  WZ2       3978            0.0000000000
     13476      4492  TIP3      H2             15.7297396015       36.8492242534       -9.1977446635  WZ2       3978            0.0000000000
     13477      4493  TIP3      OH2            26.3222396015       37.1002142534      -12.6117346635  WZ2       3980            0.0000000000
     13478      4493  TIP3      H1             25.6479196015       36.4707742534      -12.3561546635  WZ2       3980            0.0000000000
     13479      4493  TIP3      H2             26.8861596015       36.6161042534      -13.2149446635  WZ2       3980            0.0000000000
     13480      4494  TIP3      OH2            18.6489896015       35.7342442534      -14.7897446635  WZ2       3983            0.0000000000
     13481      4494  TIP3      H1             17.8719696015       35.4997342534      -15.2971546635  WZ2       3983            0.0000000000
     13482      4494  TIP3      H2             19.1793496015       34.9374542534      -14.7809446635  WZ2       3983            0.0000000000
     13483      4495  TIP3      OH2            17.4853296015       35.5320542534      -18.9861346635  WZ2       3984            0.0000000000
     13484      4495  TIP3      H1             17.9243996015       36.1431042534      -19.5777846635  WZ2       3984            0.0000000000
     13485      4495  TIP3      H2             16.8515696015       36.0704642534      -18.5121346635  WZ2       3984            0.0000000000
     13486      4496  TIP3      OH2            23.2282496015       35.6609542534      -14.9764346635  WZ2       3985            0.0000000000
     13487      4496  TIP3      H1             24.1025896015       36.0493842534      -15.0060046635  WZ2       3985            0.0000000000
     13488      4496  TIP3      H2             23.0923296015       35.4457342534      -14.0537146635  WZ2       3985            0.0000000000
     13489      4497  TIP3      OH2            18.6067896015       36.2484342534       -5.2721246635  WZ2       3990            0.0000000000
     13490      4497  TIP3      H1             18.2406096015       35.4826942534       -4.8296546635  WZ2       3990            0.0000000000
     13491      4497  TIP3      H2             19.5196396015       36.2774542534       -4.9856146635  WZ2       3990            0.0000000000
     13492      4498  TIP3      OH2            20.5798696015       35.5988742534       -3.7364146635  WZ2       3991            0.0000000000
     13493      4498  TIP3      H1             21.4782296015       35.3248942534       -3.9210746635  WZ2       3991            0.0000000000
     13494      4498  TIP3      H2             20.1931796015       34.8564742534       -3.2721546635  WZ2       3991            0.0000000000
     13495      4499  TIP3      OH2           -28.8407503985      -30.5335257466        4.0250053365  WZ3       1               0.0000000000
     13496      4499  TIP3      H1            -28.7516403985      -29.5897057466        3.8927153365  WZ3       1               0.0000000000
     13497      4499  TIP3      H2            -29.4789903985      -30.8088857466        3.3669453365  WZ3       1               0.0000000000
     13498      4500  TIP3      OH2           -26.2016003985      -28.3394157466        5.7453353365  WZ3       4               0.0000000000
     13499      4500  TIP3      H1            -26.6423303985      -29.0598157466        6.1958953365  WZ3       4               0.0000000000
     13500      4500  TIP3      H2            -26.2146303985      -27.6186957466        6.3751053365  WZ3       4               0.0000000000
     13501      4501  TIP3      OH2           -29.0900503985      -23.2352457466        5.9573753365  WZ3       8               0.0000000000
     13502      4501  TIP3      H1            -28.4704103985      -23.9117757466        5.6842953365  WZ3       8               0.0000000000
     13503      4501  TIP3      H2            -29.2983103985      -23.4531657466        6.8658653365  WZ3       8               0.0000000000
     13504      4502  TIP3      OH2           -31.5181803985      -28.8463157466        7.8499253365  WZ3       9               0.0000000000
     13505      4502  TIP3      H1            -31.2143903985      -29.5321757466        7.2553353365  WZ3       9               0.0000000000
     13506      4502  TIP3      H2            -30.7967803985      -28.7274457466        8.4677253365  WZ3       9               0.0000000000
     13507      4503  TIP3      OH2           -22.8552003985      -37.2447857466        8.7105453365  WZ3       10              0.0000000000
     13508      4503  TIP3      H1            -22.8059803985      -36.6346657466        9.4464553365  WZ3       10              0.0000000000
     13509      4503  TIP3      H2            -22.4296903985      -36.7836957466        7.9876553365  WZ3       10              0.0000000000
     13510      4504  TIP3      OH2           -22.4637403985      -35.7668657466       10.9465253365  WZ3       16              0.0000000000
     13511      4504  TIP3      H1            -23.1522803985      -35.1087957466       10.8511853365  WZ3       16              0.0000000000
     13512      4504  TIP3      H2            -22.4482803985      -35.9640757466       11.8830653365  WZ3       16              0.0000000000
     13513      4505  TIP3      OH2           -29.0434803985      -27.9324857466        3.0678753365  WZ3       18              0.0000000000
     13514      4505  TIP3      H1            -29.3389703985      -28.2552557466        2.2165653365  WZ3       18              0.0000000000
     13515      4505  TIP3      H2            -29.3677003985      -27.0328157466        3.1091353365  WZ3       18              0.0000000000
     13516      4506  TIP3      OH2           -25.6898303985      -26.5003457466        8.0932653365  WZ3       24              0.0000000000
     13517      4506  TIP3      H1            -26.6314603985      -26.4419557466        8.2549553365  WZ3       24              0.0000000000
     13518      4506  TIP3      H2            -25.4132203985      -25.5942957466        7.9562353365  WZ3       24              0.0000000000
     13519      4507  TIP3      OH2           -27.4377103985      -24.7189957466        4.7184253365  WZ3       27              0.0000000000
     13520      4507  TIP3      H1            -27.0124803985      -25.4262057466        4.2333853365  WZ3       27              0.0000000000
     13521      4507  TIP3      H2            -27.1207103985      -23.9177257466        4.3016453365  WZ3       27              0.0000000000
     13522      4508  TIP3      OH2           -26.2780603985      -26.8181457466        3.2270853365  WZ3       28              0.0000000000
     13523      4508  TIP3      H1            -26.5355803985      -27.5081357466        2.6156753365  WZ3       28              0.0000000000
     13524      4508  TIP3      H2            -26.2069803985      -27.2610257466        4.0726753365  WZ3       28              0.0000000000
     13525      4509  TIP3      OH2           -24.5920403985      -28.2514757466       11.7044353365  WZ3       29              0.0000000000
     13526      4509  TIP3      H1            -24.4524103985      -28.8432257466       10.9651353365  WZ3       29              0.0000000000
     13527      4509  TIP3      H2            -24.4247603985      -27.3788857466       11.3483153365  WZ3       29              0.0000000000
     13528      4510  TIP3      OH2           -30.1195003985      -31.2895257466        1.4770353365  WZ3       30              0.0000000000
     13529      4510  TIP3      H1            -30.8309503985      -30.7545557466        1.1250853365  WZ3       30              0.0000000000
     13530      4510  TIP3      H2            -29.4285403985      -31.2343157466        0.8169253365  WZ3       30              0.0000000000
     13531      4511  TIP3      OH2           -22.7501103985      -31.9116757466        9.7704753365  WZ3       32              0.0000000000
     13532      4511  TIP3      H1            -23.4027003985      -31.2171157466        9.8595653365  WZ3       32              0.0000000000
     13533      4511  TIP3      H2            -22.2850803985      -31.7015857466        8.9606353365  WZ3       32              0.0000000000
     13534      4512  TIP3      OH2           -26.7137303985      -31.0801957466        2.4286253365  WZ3       33              0.0000000000
     13535      4512  TIP3      H1            -27.4456303985      -30.8518257466        3.0016853365  WZ3       33              0.0000000000
     13536      4512  TIP3      H2            -26.2665103985      -31.7939257466        2.8833753365  WZ3       33              0.0000000000
     13537      4513  TIP3      OH2           -26.8163803985      -32.9059357466       11.4963253365  WZ3       34              0.0000000000
     13538      4513  TIP3      H1            -26.7364703985      -32.1424957466       12.0681753365  WZ3       34              0.0000000000
     13539      4513  TIP3      H2            -27.4176103985      -32.6266957466       10.8058353365  WZ3       34              0.0000000000
     13540      4514  TIP3      OH2           -28.3925903985      -26.1778257466        8.6786753365  WZ3       38              0.0000000000
     13541      4514  TIP3      H1            -28.6329303985      -25.5155157466        9.3265953365  WZ3       38              0.0000000000
     13542      4514  TIP3      H2            -28.5907703985      -27.0123057466        9.1036353365  WZ3       38              0.0000000000
     13543      4515  TIP3      OH2           -27.8427803985      -31.9179057466        0.1137453365  WZ3       40              0.0000000000
     13544      4515  TIP3      H1            -27.2632303985      -31.7678757466        0.8606353365  WZ3       40              0.0000000000
     13545      4515  TIP3      H2            -27.4287803985      -31.4471657466       -0.6096146635  WZ3       40              0.0000000000
     13546      4516  TIP3      OH2           -30.1162903985      -25.1810557466        3.5490553365  WZ3       42              0.0000000000
     13547      4516  TIP3      H1            -29.6425303985      -24.8854257466        4.3264753365  WZ3       42              0.0000000000
     13548      4516  TIP3      H2            -30.6793603985      -24.4428957466        3.3160153365  WZ3       42              0.0000000000
     13549      4517  TIP3      OH2           -22.9548003985      -25.8016257466       -1.6968946635  WZ3       46              0.0000000000
     13550      4517  TIP3      H1            -22.8814503985      -24.8626057466       -1.5263646635  WZ3       46              0.0000000000
     13551      4517  TIP3      H2            -22.0492903985      -26.1067657466       -1.7531646635  WZ3       46              0.0000000000
     13552      4518  TIP3      OH2           -22.0369603985      -25.5708757466       13.2817753365  WZ3       49              0.0000000000
     13553      4518  TIP3      H1            -22.0862803985      -26.5260657466       13.2445353365  WZ3       49              0.0000000000
     13554      4518  TIP3      H2            -22.8637303985      -25.3033457466       13.6831553365  WZ3       49              0.0000000000
     13555      4519  TIP3      OH2           -31.0585603985      -25.9969557466       12.1579153365  WZ3       50              0.0000000000
     13556      4519  TIP3      H1            -30.9711003985      -25.1704957466       12.6328253365  WZ3       50              0.0000000000
     13557      4519  TIP3      H2            -31.9220503985      -26.3265757466       12.4068453365  WZ3       50              0.0000000000
     13558      4520  TIP3      OH2           -30.6439803985      -22.2245857466        1.9639753365  WZ3       51              0.0000000000
     13559      4520  TIP3      H1            -30.7193803985      -22.3458657466        1.0174953365  WZ3       51              0.0000000000
     13560      4520  TIP3      H2            -30.6111103985      -21.2753157466        2.0824353365  WZ3       51              0.0000000000
     13561      4521  TIP3      OH2           -27.5423803985      -23.0705657466       -1.0337846635  WZ3       53              0.0000000000
     13562      4521  TIP3      H1            -27.1675403985      -23.8149557466       -1.5045246635  WZ3       53              0.0000000000
     13563      4521  TIP3      H2            -27.5380103985      -23.3405057466       -0.1154546635  WZ3       53              0.0000000000
     13564      4522  TIP3      OH2           -27.8735703985      -23.1448557466        1.7154353365  WZ3       54              0.0000000000
     13565      4522  TIP3      H1            -28.8085903985      -23.0446657466        1.8941353365  WZ3       54              0.0000000000
     13566      4522  TIP3      H2            -27.5933803985      -23.8542557466        2.2937553365  WZ3       54              0.0000000000
     13567      4523  TIP3      OH2           -24.8849803985      -34.0776257466       13.7619953365  WZ3       55              0.0000000000
     13568      4523  TIP3      H1            -25.2923003985      -33.5970657466       13.0413253365  WZ3       55              0.0000000000
     13569      4523  TIP3      H2            -24.8444103985      -34.9830257466       13.4540753365  WZ3       55              0.0000000000
     13570      4524  TIP3      OH2           -26.3654703985      -30.8850757466       -2.2564646635  WZ3       60              0.0000000000
     13571      4524  TIP3      H1            -26.3233903985      -31.1076857466       -3.1864646635  WZ3       60              0.0000000000
     13572      4524  TIP3      H2            -25.5162603985      -30.4863657466       -2.0664746635  WZ3       60              0.0000000000
     13573      4525  TIP3      OH2           -24.7550803985      -21.7032557466       14.3884553365  WZ3       77              0.0000000000
     13574      4525  TIP3      H1            -24.5552103985      -21.2790657466       13.5539853365  WZ3       77              0.0000000000
     13575      4525  TIP3      H2            -24.0997103985      -21.3594357466       14.9954953365  WZ3       77              0.0000000000
     13576      4526  TIP3      OH2           -24.8070703985      -30.0879257466        9.6199153365  WZ3       83              0.0000000000
     13577      4526  TIP3      H1            -24.1651903985      -29.6312957466        9.0761353365  WZ3       83              0.0000000000
     13578      4526  TIP3      H2            -25.6373803985      -29.9746857466        9.1573253365  WZ3       83              0.0000000000
     13579      4527  TIP3      OH2           -30.4377503985      -29.0364157466       12.0700653365  WZ3       85              0.0000000000
     13580      4527  TIP3      H1            -30.7831403985      -29.4181757466       12.8770253365  WZ3       85              0.0000000000
     13581      4527  TIP3      H2            -30.6377403985      -28.1030557466       12.1413553365  WZ3       85              0.0000000000
     13582      4528  TIP3      OH2           -27.3409303985      -34.5394857466        0.6931553365  WZ3       86              0.0000000000
     13583      4528  TIP3      H1            -26.4490303985      -34.6769857466        1.0122753365  WZ3       86              0.0000000000
     13584      4528  TIP3      H2            -27.2845703985      -33.7488757466        0.1565053365  WZ3       86              0.0000000000
     13585      4529  TIP3      OH2           -29.8315503985      -27.7623157466       -0.1413846635  WZ3       88              0.0000000000
     13586      4529  TIP3      H1            -30.1267103985      -26.9355257466        0.2400953365  WZ3       88              0.0000000000
     13587      4529  TIP3      H2            -30.5345503985      -28.3816257466        0.0547553365  WZ3       88              0.0000000000
     13588      4530  TIP3      OH2           -28.1873903985      -26.5748657466       12.0205653365  WZ3       91              0.0000000000
     13589      4530  TIP3      H1            -29.0879603985      -26.3916057466       11.7529553365  WZ3       91              0.0000000000
     13590      4530  TIP3      H2            -28.1532803985      -26.3159357466       12.9414453365  WZ3       91              0.0000000000
     13591      4531  TIP3      OH2           -22.4560603985      -34.3300757466        0.3878253365  WZ3       92              0.0000000000
     13592      4531  TIP3      H1            -23.0104303985      -34.7262757466       -0.2844246635  WZ3       92              0.0000000000
     13593      4531  TIP3      H2            -22.3557003985      -33.4195557466        0.1101553365  WZ3       92              0.0000000000
     13594      4532  TIP3      OH2           -22.4928603985      -28.5299057466       13.2249753365  WZ3       93              0.0000000000
     13595      4532  TIP3      H1            -23.3440103985      -28.2915257466       12.8576153365  WZ3       93              0.0000000000
     13596      4532  TIP3      H2            -21.9025203985      -28.5465857466       12.4716853365  WZ3       93              0.0000000000
     13597      4533  TIP3      OH2           -24.1608903985      -25.5440357466        0.8530353365  WZ3       94              0.0000000000
     13598      4533  TIP3      H1            -24.5337803985      -26.3696557466        1.1620953365  WZ3       94              0.0000000000
     13599      4533  TIP3      H2            -23.8835403985      -25.7270957466       -0.0446246635  WZ3       94              0.0000000000
     13600      4534  TIP3      OH2           -27.0005003985      -30.7360857466        7.8742253365  WZ3       95              0.0000000000
     13601      4534  TIP3      H1            -27.9288103985      -30.9678957466        7.8471553365  WZ3       95              0.0000000000
     13602      4534  TIP3      H2            -26.5493903985      -31.5131057466        7.5441053365  WZ3       95              0.0000000000
     13603      4535  TIP3      OH2           -32.5153003985      -24.5955757466        9.8986353365  WZ3       99              0.0000000000
     13604      4535  TIP3      H1            -32.1528303985      -23.7410157466        9.6650753365  WZ3       99              0.0000000000
     13605      4535  TIP3      H2            -31.9837803985      -24.8874157466       10.6392653365  WZ3       99              0.0000000000
     13606      4536  TIP3      OH2           -34.3468803985      -23.7231757466        3.1287453365  WZ3       100             0.0000000000
     13607      4536  TIP3      H1            -35.2968303985      -23.6174357466        3.1800753365  WZ3       100             0.0000000000
     13608      4536  TIP3      H2            -33.9950703985      -22.9024357466        3.4734953365  WZ3       100             0.0000000000
     13609      4537  TIP3      OH2           -28.9712203985      -28.4965057466        9.5991953365  WZ3       101             0.0000000000
     13610      4537  TIP3      H1            -29.3970903985      -28.7243357466       10.4255953365  WZ3       101             0.0000000000
     13611      4537  TIP3      H2            -28.3906403985      -29.2353257466        9.4167253365  WZ3       101             0.0000000000
     13612      4538  TIP3      OH2           -26.7683303985      -27.5674557466       -1.3269046635  WZ3       102             0.0000000000
     13613      4538  TIP3      H1            -26.4150203985      -27.9474757466       -0.5225546635  WZ3       102             0.0000000000
     13614      4538  TIP3      H2            -27.7169803985      -27.6609757466       -1.2399746635  WZ3       102             0.0000000000
     13615      4539  TIP3      OH2           -26.3128003985      -23.9445557466       12.0686753365  WZ3       103             0.0000000000
     13616      4539  TIP3      H1            -26.9144803985      -24.5002657466       11.5733053365  WZ3       103             0.0000000000
     13617      4539  TIP3      H2            -26.0314303985      -23.2775757466       11.4424153365  WZ3       103             0.0000000000
     13618      4540  TIP3      OH2           -22.2648903985      -23.0882057466       -1.1258846635  WZ3       104             0.0000000000
     13619      4540  TIP3      H1            -21.5211003985      -22.5021557466       -1.2657246635  WZ3       104             0.0000000000
     13620      4540  TIP3      H2            -22.9590803985      -22.5196257466       -0.7926446635  WZ3       104             0.0000000000
     13621      4541  TIP3      OH2           -25.9024003985      -28.8952557466        0.8998853365  WZ3       106             0.0000000000
     13622      4541  TIP3      H1            -26.1796403985      -29.6233257466        1.4559953365  WZ3       106             0.0000000000
     13623      4541  TIP3      H2            -24.9751003985      -28.7760557466        1.1051453365  WZ3       106             0.0000000000
     13624      4542  TIP3      OH2           -32.6775503985      -26.4558457466       -2.8799046635  WZ3       108             0.0000000000
     13625      4542  TIP3      H1            -32.4385703985      -27.2040357466       -3.4270146635  WZ3       108             0.0000000000
     13626      4542  TIP3      H2            -32.9464203985      -26.8436757466       -2.0471246635  WZ3       108             0.0000000000
     13627      4543  TIP3      OH2           -31.0027703985      -25.1881057466        0.3257753365  WZ3       113             0.0000000000
     13628      4543  TIP3      H1            -31.8191603985      -24.6911357466        0.3782053365  WZ3       113             0.0000000000
     13629      4543  TIP3      H2            -30.4731403985      -24.7127557466       -0.3143446635  WZ3       113             0.0000000000
     13630      4544  TIP3      OH2           -33.6644603985      -24.1443857466        0.3074653365  WZ3       117             0.0000000000
     13631      4544  TIP3      H1            -33.5035903985      -23.3446357466       -0.1932746635  WZ3       117             0.0000000000
     13632      4544  TIP3      H2            -33.8616803985      -23.8377857466        1.1925253365  WZ3       117             0.0000000000
     13633      4545  TIP3      OH2           -24.7311703985      -36.6974057466       12.3174953365  WZ3       119             0.0000000000
     13634      4545  TIP3      H1            -25.6475903985      -36.4352357466       12.2298653365  WZ3       119             0.0000000000
     13635      4545  TIP3      H2            -24.3956703985      -36.7005057466       11.4210253365  WZ3       119             0.0000000000
     13636      4546  TIP3      OH2           -26.1290703985      -32.9473057466        6.4132253365  WZ3       120             0.0000000000
     13637      4546  TIP3      H1            -26.9266303985      -33.3622857466        6.0847253365  WZ3       120             0.0000000000
     13638      4546  TIP3      H2            -25.6839603985      -33.6379357466        6.9042753365  WZ3       120             0.0000000000
     13639      4547  TIP3      OH2           -25.0426103985      -23.6910557466        8.0355753365  WZ3       123             0.0000000000
     13640      4547  TIP3      H1            -25.1981803985      -23.0126157466        7.3785053365  WZ3       123             0.0000000000
     13641      4547  TIP3      H2            -24.1099703985      -23.6191257466        8.2386353365  WZ3       123             0.0000000000
     13642      4548  TIP3      OH2           -30.6393703985      -24.5927057466       -2.7413046635  WZ3       128             0.0000000000
     13643      4548  TIP3      H1            -31.2832703985      -25.2238457466       -2.4199346635  WZ3       128             0.0000000000
     13644      4548  TIP3      H2            -29.8775403985      -25.1239057466       -2.9729546635  WZ3       128             0.0000000000
     13645      4549  TIP3      OH2           -28.1544603985      -25.7206557466       14.6126653365  WZ3       129             0.0000000000
     13646      4549  TIP3      H1            -28.5055103985      -26.5773557466       14.8557053365  WZ3       129             0.0000000000
     13647      4549  TIP3      H2            -27.4281403985      -25.5779857466       15.2195653365  WZ3       129             0.0000000000
     13648      4550  TIP3      OH2           -26.0350803985      -24.7757157466       -2.5075046635  WZ3       130             0.0000000000
     13649      4550  TIP3      H1            -25.7520403985      -25.5701957466       -2.0548146635  WZ3       130             0.0000000000
     13650      4550  TIP3      H2            -25.2952903985      -24.5426157466       -3.0683946635  WZ3       130             0.0000000000
     13651      4551  TIP3      OH2           -29.7280103985      -27.8190557466       -2.9142146635  WZ3       134             0.0000000000
     13652      4551  TIP3      H1            -29.9966003985      -27.6388457466       -2.0133246635  WZ3       134             0.0000000000
     13653      4551  TIP3      H2            -29.9344503985      -28.7444357466       -3.0456346635  WZ3       134             0.0000000000
     13654      4552  TIP3      OH2           -27.0315903985      -29.3242557466       12.0333953365  WZ3       135             0.0000000000
     13655      4552  TIP3      H1            -26.2861103985      -28.7358857466       11.9137953365  WZ3       135             0.0000000000
     13656      4552  TIP3      H2            -27.7889103985      -28.7422857466       12.0967053365  WZ3       135             0.0000000000
     13657      4553  TIP3      OH2           -29.6222203985      -30.5293657466       15.2892253365  WZ3       140             0.0000000000
     13658      4553  TIP3      H1            -28.6691003985      -30.4454557466       15.2618253365  WZ3       140             0.0000000000
     13659      4553  TIP3      H2            -29.7827603985      -31.2411857466       15.9087153365  WZ3       140             0.0000000000
     13660      4554  TIP3      OH2           -23.4701003985      -30.2960057466       -2.6360846635  WZ3       141             0.0000000000
     13661      4554  TIP3      H1            -23.7436203985      -30.7204557466       -3.4492546635  WZ3       141             0.0000000000
     13662      4554  TIP3      H2            -23.4306903985      -29.3645557466       -2.8530446635  WZ3       141             0.0000000000
     13663      4555  TIP3      OH2           -26.5759203985      -31.2329157466       13.9321153365  WZ3       146             0.0000000000
     13664      4555  TIP3      H1            -26.8574203985      -30.5234557466       13.3544953365  WZ3       146             0.0000000000
     13665      4555  TIP3      H2            -25.6334903985      -31.3056157466       13.7812353365  WZ3       146             0.0000000000
     13666      4556  TIP3      OH2           -32.9627603985      -21.9600557466       -1.0805346635  WZ3       155             0.0000000000
     13667      4556  TIP3      H1            -32.0296903985      -21.8021857466       -0.9366946635  WZ3       155             0.0000000000
     13668      4556  TIP3      H2            -33.2268803985      -21.2847557466       -1.7053846635  WZ3       155             0.0000000000
     13669      4557  TIP3      OH2           -22.3268103985      -23.0404857466        8.2647653365  WZ3       159             0.0000000000
     13670      4557  TIP3      H1            -22.3481403985      -22.8556457466        9.2037053365  WZ3       159             0.0000000000
     13671      4557  TIP3      H2            -21.6361903985      -22.4720857466        7.9239053365  WZ3       159             0.0000000000
     13672      4558  TIP3      OH2           -22.7635203985      -23.4733757466       11.1866753365  WZ3       160             0.0000000000
     13673      4558  TIP3      H1            -23.2506503985      -24.2089657466       10.8154153365  WZ3       160             0.0000000000
     13674      4558  TIP3      H2            -22.2142503985      -23.8669857466       11.8646153365  WZ3       160             0.0000000000
     13675      4559  TIP3      OH2           -24.3127903985      -27.6835657466       15.8247053365  WZ3       161             0.0000000000
     13676      4559  TIP3      H1            -25.1786803985      -27.7885957466       16.2189353365  WZ3       161             0.0000000000
     13677      4559  TIP3      H2            -23.9362003985      -26.9252357466       16.2711753365  WZ3       161             0.0000000000
     13678      4560  TIP3      OH2           -23.0118203985      -29.4271957466        1.3389553365  WZ3       162             0.0000000000
     13679      4560  TIP3      H1            -22.1616803985      -29.0061057466        1.4661153365  WZ3       162             0.0000000000
     13680      4560  TIP3      H2            -23.0063103985      -30.1671857466        1.9460953365  WZ3       162             0.0000000000
     13681      4561  TIP3      OH2           -22.6172603985      -31.3734557466        3.1625253365  WZ3       163             0.0000000000
     13682      4561  TIP3      H1            -23.3438003985      -31.8531957466        3.5602853365  WZ3       163             0.0000000000
     13683      4561  TIP3      H2            -22.0359303985      -31.1679857466        3.8946853365  WZ3       163             0.0000000000
     13684      4562  TIP3      OH2           -22.8581403985      -28.5887057466        8.1102853365  WZ3       164             0.0000000000
     13685      4562  TIP3      H1            -22.0247203985      -28.9667057466        7.8296453365  WZ3       164             0.0000000000
     13686      4562  TIP3      H2            -22.7461103985      -27.6455857466        7.9911953365  WZ3       164             0.0000000000
     13687      4563  TIP3      OH2           -24.3719103985      -25.7109557466       10.4171253365  WZ3       165             0.0000000000
     13688      4563  TIP3      H1            -25.0193803985      -25.3858057466       11.0426453365  WZ3       165             0.0000000000
     13689      4563  TIP3      H2            -24.8895103985      -26.1511857466        9.7429553365  WZ3       165             0.0000000000
     13690      4564  TIP3      OH2           -22.3489503985      -31.4726057466       -0.4463446635  WZ3       166             0.0000000000
     13691      4564  TIP3      H1            -22.8708403985      -31.1161957466       -1.1652546635  WZ3       166             0.0000000000
     13692      4564  TIP3      H2            -22.3820303985      -30.7978257466        0.2317453365  WZ3       166             0.0000000000
     13693      4565  TIP3      OH2           -24.0000503985      -34.2330457466       -1.8956346635  WZ3       167             0.0000000000
     13694      4565  TIP3      H1            -23.9036103985      -33.5663457466       -2.5756646635  WZ3       167             0.0000000000
     13695      4565  TIP3      H2            -24.1400903985      -35.0484157466       -2.3770846635  WZ3       167             0.0000000000
     13696      4566  TIP3      OH2           -24.8305803985      -32.8528057466        3.7253953365  WZ3       168             0.0000000000
     13697      4566  TIP3      H1            -24.9807003985      -33.7979457466        3.7051753365  WZ3       168             0.0000000000
     13698      4566  TIP3      H2            -25.1841303985      -32.5716657466        4.5693053365  WZ3       168             0.0000000000
     13699      4567  TIP3      OH2           -23.9742903985      -30.8824757466       13.3642253365  WZ3       170             0.0000000000
     13700      4567  TIP3      H1            -23.3915603985      -31.6172457466       13.5559453365  WZ3       170             0.0000000000
     13701      4567  TIP3      H2            -23.4103603985      -30.1104457466       13.4108053365  WZ3       170             0.0000000000
     13702      4568  TIP3      OH2           -22.4775803985      -32.9798957466       14.0487653365  WZ3       171             0.0000000000
     13703      4568  TIP3      H1            -23.3409103985      -33.3586857466       13.8832353365  WZ3       171             0.0000000000
     13704      4568  TIP3      H2            -21.8732103985      -33.7184157466       13.9743453365  WZ3       171             0.0000000000
     13705      4569  TIP3      OH2           -25.1201003985      -35.2702257466        2.1879053365  WZ3       173             0.0000000000
     13706      4569  TIP3      H1            -24.8403903985      -36.1771857466        2.3120753365  WZ3       173             0.0000000000
     13707      4569  TIP3      H2            -24.3609303985      -34.8360757466        1.7988253365  WZ3       173             0.0000000000
     13708      4570  TIP3      OH2           -24.5082703985      -34.6884857466        7.6237953365  WZ3       174             0.0000000000
     13709      4570  TIP3      H1            -23.5754703985      -34.4764957466        7.5893953365  WZ3       174             0.0000000000
     13710      4570  TIP3      H2            -24.7435203985      -34.5872757466        8.5460953365  WZ3       174             0.0000000000
     13711      4571  TIP3      OH2           -24.4790803985      -33.9519557466       10.3997353365  WZ3       175             0.0000000000
     13712      4571  TIP3      H1            -25.3219503985      -33.6839157466       10.7657153365  WZ3       175             0.0000000000
     13713      4571  TIP3      H2            -24.0366503985      -33.1297657466       10.1888453365  WZ3       175             0.0000000000
     13714      4572  TIP3      OH2           -25.5882103985      -22.9505457466        3.8369453365  WZ3       184             0.0000000000
     13715      4572  TIP3      H1            -24.9359203985      -23.2983357466        3.2288553365  WZ3       184             0.0000000000
     13716      4572  TIP3      H2            -25.0778303985      -22.4622257466        4.4829153365  WZ3       184             0.0000000000
     13717      4573  TIP3      OH2           -30.9380303985      -23.6482857466       13.5978053365  WZ3       188             0.0000000000
     13718      4573  TIP3      H1            -30.7532803985      -23.9816757466       14.4758353365  WZ3       188             0.0000000000
     13719      4573  TIP3      H2            -30.0915803985      -23.3384257466       13.2757253365  WZ3       188             0.0000000000
     13720      4574  TIP3      OH2           -28.5929903985      -22.3623957466       12.8419453365  WZ3       189             0.0000000000
     13721      4574  TIP3      H1            -27.9161003985      -22.9951657466       12.6018653365  WZ3       189             0.0000000000
     13722      4574  TIP3      H2            -28.2711103985      -21.9613457466       13.6492753365  WZ3       189             0.0000000000
     13723      4575  TIP3      OH2           -35.3802403985      -22.1905057466        9.7156853365  WZ3       192             0.0000000000
     13724      4575  TIP3      H1            -36.2450203985      -22.1186557466       10.1196953365  WZ3       192             0.0000000000
     13725      4575  TIP3      H2            -35.4353403985      -21.6437757466        8.9319353365  WZ3       192             0.0000000000
     13726      4576  TIP3      OH2           -30.6696803985      -22.3026157466        8.8912853365  WZ3       193             0.0000000000
     13727      4576  TIP3      H1            -31.1262803985      -21.7736457466        8.2371253365  WZ3       193             0.0000000000
     13728      4576  TIP3      H2            -30.5068803985      -21.6994757466        9.6165153365  WZ3       193             0.0000000000
     13729      4577  TIP3      OH2           -28.3420503985      -23.4246557466        9.8363153365  WZ3       194             0.0000000000
     13730      4577  TIP3      H1            -29.2466803985      -23.2596357466        9.5705253365  WZ3       194             0.0000000000
     13731      4577  TIP3      H2            -27.9131903985      -22.5714357466        9.7706553365  WZ3       194             0.0000000000
     13732      4578  TIP3      OH2           -25.7378603985      -21.8547457466       10.1310953365  WZ3       195             0.0000000000
     13733      4578  TIP3      H1            -25.9196603985      -20.9388557466        9.9205853365  WZ3       195             0.0000000000
     13734      4578  TIP3      H2            -25.5610803985      -22.2650357466        9.2845553365  WZ3       195             0.0000000000
     13735      4579  TIP3      OH2           -33.7541303985      -23.9878457466        7.0999353365  WZ3       198             0.0000000000
     13736      4579  TIP3      H1            -33.5415603985      -24.8759457466        6.8130253365  WZ3       198             0.0000000000
     13737      4579  TIP3      H2            -33.6896203985      -24.0220757466        8.0543353365  WZ3       198             0.0000000000
     13738      4580  TIP3      OH2           -30.3173703985      -22.7342357466       -0.8350046635  WZ3       210             0.0000000000
     13739      4580  TIP3      H1            -29.4513503985      -22.3674957466       -1.0131846635  WZ3       210             0.0000000000
     13740      4580  TIP3      H2            -30.5640903985      -23.1734357466       -1.6489246635  WZ3       210             0.0000000000
     13741      4581  TIP3      OH2           -23.6084103985      -23.1712057466        1.8441053365  WZ3       211             0.0000000000
     13742      4581  TIP3      H1            -23.8027003985      -23.9189957466        1.2790653365  WZ3       211             0.0000000000
     13743      4581  TIP3      H2            -23.6474003985      -22.4131957466        1.2608953365  WZ3       211             0.0000000000
     13744      4582  TIP3      OH2           -24.3907903985      -24.4199657466       13.9942853365  WZ3       216             0.0000000000
     13745      4582  TIP3      H1            -25.1726003985      -24.6061657466       13.4743453365  WZ3       216             0.0000000000
     13746      4582  TIP3      H2            -24.4628003985      -23.4905357466       14.2115353365  WZ3       216             0.0000000000
     13747      4583  TIP3      OH2            -9.9847503985      -30.5335257466        4.0250053365  WZ3       217             0.0000000000
     13748      4583  TIP3      H1             -9.8956403985      -29.5897057466        3.8927153365  WZ3       217             0.0000000000
     13749      4583  TIP3      H2            -10.6229903985      -30.8088857466        3.3669453365  WZ3       217             0.0000000000
     13750      4584  TIP3      OH2           -11.0516203985      -31.2784557466        7.4438253365  WZ3       218             0.0000000000
     13751      4584  TIP3      H1            -11.0898703985      -31.9248257466        8.1487853365  WZ3       218             0.0000000000
     13752      4584  TIP3      H2            -11.3739703985      -31.7450157466        6.6726953365  WZ3       218             0.0000000000
     13753      4585  TIP3      OH2           -18.6831203985      -31.6642457466        9.0368153365  WZ3       219             0.0000000000
     13754      4585  TIP3      H1            -18.6419103985      -32.2899157466        9.7600553365  WZ3       219             0.0000000000
     13755      4585  TIP3      H2            -17.9803503985      -31.0403857466        9.2188553365  WZ3       219             0.0000000000
     13756      4586  TIP3      OH2            -7.3456003985      -28.3394157466        5.7453353365  WZ3       220             0.0000000000
     13757      4586  TIP3      H1             -7.7863303985      -29.0598157466        6.1958953365  WZ3       220             0.0000000000
     13758      4586  TIP3      H2             -7.3586303985      -27.6186957466        6.3751053365  WZ3       220             0.0000000000
     13759      4587  TIP3      OH2           -17.7598103985      -27.2143557466        7.5717253365  WZ3       221             0.0000000000
     13760      4587  TIP3      H1            -18.1292903985      -28.0163057466        7.2021553365  WZ3       221             0.0000000000
     13761      4587  TIP3      H2            -16.8187003985      -27.3828657466        7.6180653365  WZ3       221             0.0000000000
     13762      4588  TIP3      OH2           -21.1497603985      -33.5540957466        2.9646053365  WZ3       222             0.0000000000
     13763      4588  TIP3      H1            -21.5974203985      -32.7082257466        2.9462553365  WZ3       222             0.0000000000
     13764      4588  TIP3      H2            -21.7106403985      -34.1336757466        2.4491153365  WZ3       222             0.0000000000
     13765      4589  TIP3      OH2           -20.4391503985      -31.3921357466        5.0904053365  WZ3       223             0.0000000000
     13766      4589  TIP3      H1            -20.2258003985      -32.1619757466        5.6177053365  WZ3       223             0.0000000000
     13767      4589  TIP3      H2            -19.7013903985      -31.3024657466        4.4871653365  WZ3       223             0.0000000000
     13768      4590  TIP3      OH2           -10.2340503985      -23.2352457466        5.9573753365  WZ3       224             0.0000000000
     13769      4590  TIP3      H1             -9.6144103985      -23.9117757466        5.6842953365  WZ3       224             0.0000000000
     13770      4590  TIP3      H2            -10.4423103985      -23.4531657466        6.8658653365  WZ3       224             0.0000000000
     13771      4591  TIP3      OH2           -12.6621803985      -28.8463157466        7.8499253365  WZ3       225             0.0000000000
     13772      4591  TIP3      H1            -12.3583903985      -29.5321757466        7.2553353365  WZ3       225             0.0000000000
     13773      4591  TIP3      H2            -11.9407803985      -28.7274457466        8.4677253365  WZ3       225             0.0000000000
     13774      4592  TIP3      OH2            -3.9992003985      -37.2447857466        8.7105453365  WZ3       226             0.0000000000
     13775      4592  TIP3      H1             -3.9499803985      -36.6346657466        9.4464553365  WZ3       226             0.0000000000
     13776      4592  TIP3      H2             -3.5736903985      -36.7836957466        7.9876553365  WZ3       226             0.0000000000
     13777      4593  TIP3      OH2            -9.5214803985      -34.4520757466        8.1774053365  WZ3       227             0.0000000000
     13778      4593  TIP3      H1             -9.3788903985      -35.3983757466        8.1975653365  WZ3       227             0.0000000000
     13779      4593  TIP3      H2             -9.6275803985      -34.2450957466        7.2488953365  WZ3       227             0.0000000000
     13780      4594  TIP3      OH2           -16.3666503985      -36.3504357466        5.4498853365  WZ3       228             0.0000000000
     13781      4594  TIP3      H1            -16.3235403985      -35.4905857466        5.0315153365  WZ3       228             0.0000000000
     13782      4594  TIP3      H2            -16.8242403985      -36.9029657466        4.8162053365  WZ3       228             0.0000000000
     13783      4595  TIP3      OH2            -8.6443803985      -36.2198757466        3.8507153365  WZ3       229             0.0000000000
     13784      4595  TIP3      H1             -7.9979503985      -36.5485557466        4.4754753365  WZ3       229             0.0000000000
     13785      4595  TIP3      H2             -8.1344403985      -35.7019757466        3.2278553365  WZ3       229             0.0000000000
     13786      4596  TIP3      OH2           -19.7465003985      -33.9538557466        6.2120253365  WZ3       230             0.0000000000
     13787      4596  TIP3      H1            -19.0928403985      -34.5036857466        6.6440353365  WZ3       230             0.0000000000
     13788      4596  TIP3      H2            -19.7225703985      -34.2279557466        5.2952253365  WZ3       230             0.0000000000
     13789      4597  TIP3      OH2           -14.5900503985      -32.4037257466        5.4271753365  WZ3       231             0.0000000000
     13790      4597  TIP3      H1            -13.9739503985      -32.9301857466        5.9365753365  WZ3       231             0.0000000000
     13791      4597  TIP3      H2            -15.1761703985      -33.0438557466        5.0235353365  WZ3       231             0.0000000000
     13792      4598  TIP3      OH2            -3.6077403985      -35.7668657466       10.9465253365  WZ3       232             0.0000000000
     13793      4598  TIP3      H1             -4.2962803985      -35.1087957466       10.8511853365  WZ3       232             0.0000000000
     13794      4598  TIP3      H2             -3.5922803985      -35.9640757466       11.8830653365  WZ3       232             0.0000000000
     13795      4599  TIP3      OH2           -10.1874803985      -27.9324857466        3.0678753365  WZ3       234             0.0000000000
     13796      4599  TIP3      H1            -10.4829703985      -28.2552557466        2.2165653365  WZ3       234             0.0000000000
     13797      4599  TIP3      H2            -10.5117003985      -27.0328157466        3.1091353365  WZ3       234             0.0000000000
     13798      4600  TIP3      OH2           -14.9873203985      -29.7570257466        9.8113353365  WZ3       235             0.0000000000
     13799      4600  TIP3      H1            -15.7274103985      -29.1588757466        9.9148553365  WZ3       235             0.0000000000
     13800      4600  TIP3      H2            -14.2733703985      -29.2030657466        9.4956953365  WZ3       235             0.0000000000
     13801      4601  TIP3      OH2           -17.9627303985      -35.5404157466        7.4761853365  WZ3       237             0.0000000000
     13802      4601  TIP3      H1            -17.3491003985      -34.9076557466        7.8494253365  WZ3       237             0.0000000000
     13803      4601  TIP3      H2            -17.4506603985      -36.0129157466        6.8198753365  WZ3       237             0.0000000000
     13804      4602  TIP3      OH2           -16.5798903985      -27.7927257466       10.5984853365  WZ3       238             0.0000000000
     13805      4602  TIP3      H1            -16.5851303985      -26.9133757466       10.2204153365  WZ3       238             0.0000000000
     13806      4602  TIP3      H2            -17.4334803985      -27.8763157466       11.0234753365  WZ3       238             0.0000000000
     13807      4603  TIP3      OH2           -20.4588003985      -28.1219357466        1.3804153365  WZ3       239             0.0000000000
     13808      4603  TIP3      H1            -20.7307103985      -27.8928357466        0.4917053365  WZ3       239             0.0000000000
     13809      4603  TIP3      H2            -20.4132303985      -27.2840557466        1.8409453365  WZ3       239             0.0000000000
     13810      4604  TIP3      OH2            -6.8338303985      -26.5003457466        8.0932653365  WZ3       240             0.0000000000
     13811      4604  TIP3      H1             -7.7754603985      -26.4419557466        8.2549553365  WZ3       240             0.0000000000
     13812      4604  TIP3      H2             -6.5572203985      -25.5942957466        7.9562353365  WZ3       240             0.0000000000
     13813      4605  TIP3      OH2            -8.5817103985      -24.7189957466        4.7184253365  WZ3       243             0.0000000000
     13814      4605  TIP3      H1             -8.1564803985      -25.4262057466        4.2333853365  WZ3       243             0.0000000000
     13815      4605  TIP3      H2             -8.2647103985      -23.9177257466        4.3016453365  WZ3       243             0.0000000000
     13816      4606  TIP3      OH2            -7.4220603985      -26.8181457466        3.2270853365  WZ3       244             0.0000000000
     13817      4606  TIP3      H1             -7.6795803985      -27.5081357466        2.6156753365  WZ3       244             0.0000000000
     13818      4606  TIP3      H2             -7.3509803985      -27.2610257466        4.0726753365  WZ3       244             0.0000000000
     13819      4607  TIP3      OH2            -5.7360403985      -28.2514757466       11.7044353365  WZ3       245             0.0000000000
     13820      4607  TIP3      H1             -5.5964103985      -28.8432257466       10.9651353365  WZ3       245             0.0000000000
     13821      4607  TIP3      H2             -5.5687603985      -27.3788857466       11.3483153365  WZ3       245             0.0000000000
     13822      4608  TIP3      OH2           -11.2635003985      -31.2895257466        1.4770353365  WZ3       246             0.0000000000
     13823      4608  TIP3      H1            -11.9749503985      -30.7545557466        1.1250853365  WZ3       246             0.0000000000
     13824      4608  TIP3      H2            -10.5725403985      -31.2343157466        0.8169253365  WZ3       246             0.0000000000
     13825      4609  TIP3      OH2           -11.2095803985      -32.8320957466       -1.4844646635  WZ3       247             0.0000000000
     13826      4609  TIP3      H1            -10.5085903985      -32.8094057466       -0.8330646635  WZ3       247             0.0000000000
     13827      4609  TIP3      H2            -10.9072903985      -33.4601257466       -2.1405346635  WZ3       247             0.0000000000
     13828      4610  TIP3      OH2            -3.8941103985      -31.9116757466        9.7704753365  WZ3       248             0.0000000000
     13829      4610  TIP3      H1             -4.5467003985      -31.2171157466        9.8595653365  WZ3       248             0.0000000000
     13830      4610  TIP3      H2             -3.4290803985      -31.7015857466        8.9606353365  WZ3       248             0.0000000000
     13831      4611  TIP3      OH2            -7.8577303985      -31.0801957466        2.4286253365  WZ3       249             0.0000000000
     13832      4611  TIP3      H1             -8.5896303985      -30.8518257466        3.0016853365  WZ3       249             0.0000000000
     13833      4611  TIP3      H2             -7.4105103985      -31.7939257466        2.8833753365  WZ3       249             0.0000000000
     13834      4612  TIP3      OH2            -7.9603803985      -32.9059357466       11.4963253365  WZ3       250             0.0000000000
     13835      4612  TIP3      H1             -7.8804703985      -32.1424957466       12.0681753365  WZ3       250             0.0000000000
     13836      4612  TIP3      H2             -8.5616103985      -32.6266957466       10.8058353365  WZ3       250             0.0000000000
     13837      4613  TIP3      OH2           -16.2123603985      -30.4495757466        4.3111253365  WZ3       251             0.0000000000
     13838      4613  TIP3      H1            -16.5428403985      -30.8202357466        3.4928253365  WZ3       251             0.0000000000
     13839      4613  TIP3      H2            -15.6239503985      -31.1201757466        4.6579553365  WZ3       251             0.0000000000
     13840      4614  TIP3      OH2           -14.8456103985      -27.0215157466        6.9923453365  WZ3       252             0.0000000000
     13841      4614  TIP3      H1            -14.9404803985      -27.6002057466        6.2358053365  WZ3       252             0.0000000000
     13842      4614  TIP3      H2            -14.1162503985      -27.3929457466        7.4886253365  WZ3       252             0.0000000000
     13843      4615  TIP3      OH2           -15.8458103985      -31.6810157466        7.9446253365  WZ3       253             0.0000000000
     13844      4615  TIP3      H1            -15.2805603985      -31.5595957466        7.1817453365  WZ3       253             0.0000000000
     13845      4615  TIP3      H2            -15.5269203985      -31.0435157466        8.5834753365  WZ3       253             0.0000000000
     13846      4616  TIP3      OH2            -9.5365903985      -26.1778257466        8.6786753365  WZ3       254             0.0000000000
     13847      4616  TIP3      H1             -9.7769303985      -25.5155157466        9.3265953365  WZ3       254             0.0000000000
     13848      4616  TIP3      H2             -9.7347703985      -27.0123057466        9.1036353365  WZ3       254             0.0000000000
     13849      4617  TIP3      OH2           -14.9657403985      -27.2817457466       12.6618153365  WZ3       255             0.0000000000
     13850      4617  TIP3      H1            -15.2769903985      -26.4994257466       13.1171353365  WZ3       255             0.0000000000
     13851      4617  TIP3      H2            -15.6157203985      -27.4348357466       11.9760153365  WZ3       255             0.0000000000
     13852      4618  TIP3      OH2            -8.9867803985      -31.9179057466        0.1137453365  WZ3       256             0.0000000000
     13853      4618  TIP3      H1             -8.4072303985      -31.7678757466        0.8606353365  WZ3       256             0.0000000000
     13854      4618  TIP3      H2             -8.5727803985      -31.4471657466       -0.6096146635  WZ3       256             0.0000000000
     13855      4619  TIP3      OH2           -18.0457503985      -31.0836357466       11.8903853365  WZ3       257             0.0000000000
     13856      4619  TIP3      H1            -17.9754303985      -30.4329557466       12.5888853365  WZ3       257             0.0000000000
     13857      4619  TIP3      H2            -18.9365303985      -30.9808857466       11.5554753365  WZ3       257             0.0000000000
     13858      4620  TIP3      OH2           -11.2602903985      -25.1810557466        3.5490553365  WZ3       258             0.0000000000
     13859      4620  TIP3      H1            -10.7865303985      -24.8854257466        4.3264753365  WZ3       258             0.0000000000
     13860      4620  TIP3      H2            -11.8233603985      -24.4428957466        3.3160153365  WZ3       258             0.0000000000
     13861      4621  TIP3      OH2           -16.7261503985      -25.2102457466       13.4251953365  WZ3       259             0.0000000000
     13862      4621  TIP3      H1            -16.7186203985      -25.3462757466       12.4777453365  WZ3       259             0.0000000000
     13863      4621  TIP3      H2            -17.6421103985      -25.3274357466       13.6771953365  WZ3       259             0.0000000000
     13864      4622  TIP3      OH2           -17.2220903985      -31.3801457466        1.9004053365  WZ3       261             0.0000000000
     13865      4622  TIP3      H1            -17.5139603985      -30.6119757466        1.4095353365  WZ3       261             0.0000000000
     13866      4622  TIP3      H2            -17.8965703985      -32.0395257466        1.7375453365  WZ3       261             0.0000000000
     13867      4623  TIP3      OH2            -4.0988003985      -25.8016257466       -1.6968946635  WZ3       262             0.0000000000
     13868      4623  TIP3      H1             -4.0254503985      -24.8626057466       -1.5263646635  WZ3       262             0.0000000000
     13869      4623  TIP3      H2             -3.1932903985      -26.1067657466       -1.7531646635  WZ3       262             0.0000000000
     13870      4624  TIP3      OH2           -21.1290803985      -29.0172257466       10.7153853365  WZ3       263             0.0000000000
     13871      4624  TIP3      H1            -21.6302403985      -29.0452857466        9.9003553365  WZ3       263             0.0000000000
     13872      4624  TIP3      H2            -21.1237103985      -29.9229057466       11.0251153365  WZ3       263             0.0000000000
     13873      4625  TIP3      OH2           -21.3788103985      -26.2368457466        7.5994053365  WZ3       264             0.0000000000
     13874      4625  TIP3      H1            -20.4327503985      -26.3811457466        7.5803553365  WZ3       264             0.0000000000
     13875      4625  TIP3      H2            -21.4911803985      -25.4525657466        8.1365253365  WZ3       264             0.0000000000
     13876      4626  TIP3      OH2            -3.1809603985      -25.5708757466       13.2817753365  WZ3       265             0.0000000000
     13877      4626  TIP3      H1             -3.2302803985      -26.5260657466       13.2445353365  WZ3       265             0.0000000000
     13878      4626  TIP3      H2             -4.0077303985      -25.3033457466       13.6831553365  WZ3       265             0.0000000000
     13879      4627  TIP3      OH2           -12.2025603985      -25.9969557466       12.1579153365  WZ3       266             0.0000000000
     13880      4627  TIP3      H1            -12.1151003985      -25.1704957466       12.6328253365  WZ3       266             0.0000000000
     13881      4627  TIP3      H2            -13.0660503985      -26.3265757466       12.4068453365  WZ3       266             0.0000000000
     13882      4628  TIP3      OH2           -11.7879803985      -22.2245857466        1.9639753365  WZ3       267             0.0000000000
     13883      4628  TIP3      H1            -11.8633803985      -22.3458657466        1.0174953365  WZ3       267             0.0000000000
     13884      4628  TIP3      H2            -11.7551103985      -21.2753157466        2.0824353365  WZ3       267             0.0000000000
     13885      4629  TIP3      OH2           -18.1346003985      -23.4358857466        3.7448753365  WZ3       268             0.0000000000
     13886      4629  TIP3      H1            -17.9825603985      -23.7838457466        4.6235253365  WZ3       268             0.0000000000
     13887      4629  TIP3      H2            -18.9855603985      -23.7921557466        3.4895953365  WZ3       268             0.0000000000
     13888      4630  TIP3      OH2            -8.6863803985      -23.0705657466       -1.0337846635  WZ3       269             0.0000000000
     13889      4630  TIP3      H1             -8.3115403985      -23.8149557466       -1.5045246635  WZ3       269             0.0000000000
     13890      4630  TIP3      H2             -8.6820103985      -23.3405057466       -0.1154546635  WZ3       269             0.0000000000
     13891      4631  TIP3      OH2            -9.0175703985      -23.1448557466        1.7154353365  WZ3       270             0.0000000000
     13892      4631  TIP3      H1             -9.9525903985      -23.0446657466        1.8941353365  WZ3       270             0.0000000000
     13893      4631  TIP3      H2             -8.7373803985      -23.8542557466        2.2937553365  WZ3       270             0.0000000000
     13894      4632  TIP3      OH2            -6.0289803985      -34.0776257466       13.7619953365  WZ3       271             0.0000000000
     13895      4632  TIP3      H1             -6.4363003985      -33.5970657466       13.0413253365  WZ3       271             0.0000000000
     13896      4632  TIP3      H2             -5.9884103985      -34.9830257466       13.4540753365  WZ3       271             0.0000000000
     13897      4633  TIP3      OH2           -18.8800303985      -27.6936857466       11.7586653365  WZ3       272             0.0000000000
     13898      4633  TIP3      H1            -18.6639003985      -28.0551257466       12.6182453365  WZ3       272             0.0000000000
     13899      4633  TIP3      H2            -19.7355603985      -28.0683057466       11.5490153365  WZ3       272             0.0000000000
     13900      4634  TIP3      OH2            -8.2719603985      -35.7460757466       11.9822353365  WZ3       275             0.0000000000
     13901      4634  TIP3      H1             -8.7860103985      -35.8718557466       12.7798353365  WZ3       275             0.0000000000
     13902      4634  TIP3      H2             -8.4274903985      -34.8337657466       11.7378553365  WZ3       275             0.0000000000
     13903      4635  TIP3      OH2            -7.5094703985      -30.8850757466       -2.2564646635  WZ3       276             0.0000000000
     13904      4635  TIP3      H1             -7.4673903985      -31.1076857466       -3.1864646635  WZ3       276             0.0000000000
     13905      4635  TIP3      H2             -6.6602603985      -30.4863657466       -2.0664746635  WZ3       276             0.0000000000
     13906      4636  TIP3      OH2           -16.1702203985      -34.2581857466        8.8491053365  WZ3       278             0.0000000000
     13907      4636  TIP3      H1            -16.8120103985      -34.2984557466        9.5581153365  WZ3       278             0.0000000000
     13908      4636  TIP3      H2            -16.1330203985      -33.3317157466        8.6114053365  WZ3       278             0.0000000000
     13909      4637  TIP3      OH2           -16.1733103985      -34.0371757466        3.7611053365  WZ3       279             0.0000000000
     13910      4637  TIP3      H1            -17.0660203985      -34.3775657466        3.7024853365  WZ3       279             0.0000000000
     13911      4637  TIP3      H2            -15.7226503985      -34.4140857466        3.0054253365  WZ3       279             0.0000000000
     13912      4638  TIP3      OH2           -10.6377603985      -33.6211457466        2.5781853365  WZ3       280             0.0000000000
     13913      4638  TIP3      H1            -11.0467303985      -32.8062857466        2.2866653365  WZ3       280             0.0000000000
     13914      4638  TIP3      H2             -9.9171403985      -33.7611357466        1.9638953365  WZ3       280             0.0000000000
     13915      4639  TIP3      OH2           -11.5356003985      -33.4455057466       14.0662553365  WZ3       281             0.0000000000
     13916      4639  TIP3      H1            -12.0982203985      -34.1503457466       14.3870353365  WZ3       281             0.0000000000
     13917      4639  TIP3      H2            -10.7092603985      -33.5663157466       14.5340153365  WZ3       281             0.0000000000
     13918      4640  TIP3      OH2            -9.6329903985      -34.1751057466        5.3921553365  WZ3       282             0.0000000000
     13919      4640  TIP3      H1             -9.8285403985      -33.5694257466        4.6772153365  WZ3       282             0.0000000000
     13920      4640  TIP3      H2             -9.4517303985      -35.0085857466        4.9577853365  WZ3       282             0.0000000000
     13921      4641  TIP3      OH2           -18.4201703985      -33.9378357466       10.7163053365  WZ3       283             0.0000000000
     13922      4641  TIP3      H1            -18.4582303985      -33.5376757466       11.5850153365  WZ3       283             0.0000000000
     13923      4641  TIP3      H2            -18.9110603985      -34.7545957466       10.8065953365  WZ3       283             0.0000000000
     13924      4642  TIP3      OH2           -15.0544303985      -36.5636057466       -2.4850946635  WZ3       284             0.0000000000
     13925      4642  TIP3      H1            -15.4853603985      -37.0085957466       -1.7553546635  WZ3       284             0.0000000000
     13926      4642  TIP3      H2            -15.7725603985      -36.1919757466       -2.9973446635  WZ3       284             0.0000000000
     13927      4643  TIP3      OH2           -20.5378803985      -36.0754557466       -0.0091846635  WZ3       286             0.0000000000
     13928      4643  TIP3      H1            -20.0637103985      -35.4844657466       -0.5940946635  WZ3       286             0.0000000000
     13929      4643  TIP3      H2            -21.2552403985      -35.5451657466        0.3378253365  WZ3       286             0.0000000000
     13930      4644  TIP3      OH2           -10.3690703985      -32.5369757466       10.0633953365  WZ3       287             0.0000000000
     13931      4644  TIP3      H1            -10.0455903985      -33.1680057466        9.4204453365  WZ3       287             0.0000000000
     13932      4644  TIP3      H2            -10.8091403985      -33.0717557466       10.7241353365  WZ3       287             0.0000000000
     13933      4645  TIP3      OH2           -13.5917803985      -36.6094257466        4.8475153365  WZ3       288             0.0000000000
     13934      4645  TIP3      H1            -14.5026703985      -36.5527457466        5.1361153365  WZ3       288             0.0000000000
     13935      4645  TIP3      H2            -13.0864903985      -36.6698757466        5.6582353365  WZ3       288             0.0000000000
     13936      4646  TIP3      OH2           -18.7634403985      -34.9807957466        3.6742753365  WZ3       289             0.0000000000
     13937      4646  TIP3      H1            -19.6526403985      -34.8812457466        3.3342353365  WZ3       289             0.0000000000
     13938      4646  TIP3      H2            -18.4669503985      -35.8224957466        3.3280653365  WZ3       289             0.0000000000
     13939      4647  TIP3      OH2           -15.1102603985      -34.9805357466        1.3307353365  WZ3       290             0.0000000000
     13940      4647  TIP3      H1            -14.1787103985      -34.8515357466        1.5090453365  WZ3       290             0.0000000000
     13941      4647  TIP3      H2            -15.3252303985      -34.3111057466        0.6812053365  WZ3       290             0.0000000000
     13942      4648  TIP3      OH2           -16.4362403985      -33.7863157466       -1.1026546635  WZ3       292             0.0000000000
     13943      4648  TIP3      H1            -16.9787303985      -34.1659357466       -1.7938946635  WZ3       292             0.0000000000
     13944      4648  TIP3      H2            -15.6027503985      -33.5918457466       -1.5312446635  WZ3       292             0.0000000000
     13945      4649  TIP3      OH2            -5.8990803985      -21.7032557466       14.3884553365  WZ3       293             0.0000000000
     13946      4649  TIP3      H1             -5.6992103985      -21.2790657466       13.5539853365  WZ3       293             0.0000000000
     13947      4649  TIP3      H2             -5.2437103985      -21.3594357466       14.9954953365  WZ3       293             0.0000000000
     13948      4650  TIP3      OH2           -18.3011003985      -29.2291257466       13.9965053365  WZ3       294             0.0000000000
     13949      4650  TIP3      H1            -17.5688603985      -28.9745357466       14.5579553365  WZ3       294             0.0000000000
     13950      4650  TIP3      H2            -19.0812303985      -29.0245857466       14.5120453365  WZ3       294             0.0000000000
     13951      4651  TIP3      OH2           -12.2718103985      -33.8221257466        6.7344753365  WZ3       295             0.0000000000
     13952      4651  TIP3      H1            -11.7074703985      -34.3684657466        6.1874353365  WZ3       295             0.0000000000
     13953      4651  TIP3      H2            -12.4194703985      -34.3439357466        7.5232353365  WZ3       295             0.0000000000
     13954      4652  TIP3      OH2           -13.6452203985      -35.4335157466        9.1485153365  WZ3       297             0.0000000000
     13955      4652  TIP3      H1            -14.4806903985      -34.9795657466        9.2587553365  WZ3       297             0.0000000000
     13956      4652  TIP3      H2            -13.1211603985      -35.1576657466        9.9005053365  WZ3       297             0.0000000000
     13957      4653  TIP3      OH2           -13.1009603985      -29.2207457466        0.8331553365  WZ3       298             0.0000000000
     13958      4653  TIP3      H1            -13.8458603985      -29.7282157466        0.5109453365  WZ3       298             0.0000000000
     13959      4653  TIP3      H2            -13.2352403985      -29.1719457466        1.7796353365  WZ3       298             0.0000000000
     13960      4654  TIP3      OH2            -5.9510703985      -30.0879257466        9.6199153365  WZ3       299             0.0000000000
     13961      4654  TIP3      H1             -5.3091903985      -29.6312957466        9.0761353365  WZ3       299             0.0000000000
     13962      4654  TIP3      H2             -6.7813803985      -29.9746857466        9.1573253365  WZ3       299             0.0000000000
     13963      4655  TIP3      OH2            -9.2032803985      -36.4067557466       -0.9675846635  WZ3       300             0.0000000000
     13964      4655  TIP3      H1            -10.1418603985      -36.2951957466       -1.1187046635  WZ3       300             0.0000000000
     13965      4655  TIP3      H2             -8.9060703985      -35.5500657466       -0.6610146635  WZ3       300             0.0000000000
     13966      4656  TIP3      OH2           -11.5817503985      -29.0364157466       12.0700653365  WZ3       301             0.0000000000
     13967      4656  TIP3      H1            -11.9271403985      -29.4181757466       12.8770253365  WZ3       301             0.0000000000
     13968      4656  TIP3      H2            -11.7817403985      -28.1030557466       12.1413553365  WZ3       301             0.0000000000
     13969      4657  TIP3      OH2            -8.4849303985      -34.5394857466        0.6931553365  WZ3       302             0.0000000000
     13970      4657  TIP3      H1             -7.5930303985      -34.6769857466        1.0122753365  WZ3       302             0.0000000000
     13971      4657  TIP3      H2             -8.4285703985      -33.7488757466        0.1565053365  WZ3       302             0.0000000000
     13972      4658  TIP3      OH2           -17.9761303985      -29.9257457466        6.6029453365  WZ3       303             0.0000000000
     13973      4658  TIP3      H1            -17.2314103985      -29.9281757466        6.0015953365  WZ3       303             0.0000000000
     13974      4658  TIP3      H2            -17.8984703985      -30.7493657466        7.0844553365  WZ3       303             0.0000000000
     13975      4659  TIP3      OH2           -10.9755503985      -27.7623157466       -0.1413846635  WZ3       304             0.0000000000
     13976      4659  TIP3      H1            -11.2707103985      -26.9355257466        0.2400953365  WZ3       304             0.0000000000
     13977      4659  TIP3      H2            -11.6785503985      -28.3816257466        0.0547553365  WZ3       304             0.0000000000
     13978      4660  TIP3      OH2           -20.9681603985      -31.4650557466       11.9177953365  WZ3       305             0.0000000000
     13979      4660  TIP3      H1            -20.7453003985      -31.8830957466       12.7495453365  WZ3       305             0.0000000000
     13980      4660  TIP3      H2            -21.5701503985      -32.0775557466       11.4950753365  WZ3       305             0.0000000000
     13981      4661  TIP3      OH2           -13.9516703985      -31.9480657466       14.1307653365  WZ3       306             0.0000000000
     13982      4661  TIP3      H1            -14.2475903985      -32.1137657466       13.2356753365  WZ3       306             0.0000000000
     13983      4661  TIP3      H2            -13.0201503985      -32.1680357466       14.1201553365  WZ3       306             0.0000000000
     13984      4662  TIP3      OH2            -9.3313903985      -26.5748657466       12.0205653365  WZ3       307             0.0000000000
     13985      4662  TIP3      H1            -10.2319603985      -26.3916057466       11.7529553365  WZ3       307             0.0000000000
     13986      4662  TIP3      H2             -9.2972803985      -26.3159357466       12.9414453365  WZ3       307             0.0000000000
     13987      4663  TIP3      OH2            -3.6000603985      -34.3300757466        0.3878253365  WZ3       308             0.0000000000
     13988      4663  TIP3      H1             -4.1544303985      -34.7262757466       -0.2844246635  WZ3       308             0.0000000000
     13989      4663  TIP3      H2             -3.4997003985      -33.4195557466        0.1101553365  WZ3       308             0.0000000000
     13990      4664  TIP3      OH2            -3.6368603985      -28.5299057466       13.2249753365  WZ3       309             0.0000000000
     13991      4664  TIP3      H1             -4.4880103985      -28.2915257466       12.8576153365  WZ3       309             0.0000000000
     13992      4664  TIP3      H2             -3.0465203985      -28.5465857466       12.4716853365  WZ3       309             0.0000000000
     13993      4665  TIP3      OH2            -5.3048903985      -25.5440357466        0.8530353365  WZ3       310             0.0000000000
     13994      4665  TIP3      H1             -5.6777803985      -26.3696557466        1.1620953365  WZ3       310             0.0000000000
     13995      4665  TIP3      H2             -5.0275403985      -25.7270957466       -0.0446246635  WZ3       310             0.0000000000
     13996      4666  TIP3      OH2            -8.1445003985      -30.7360857466        7.8742253365  WZ3       311             0.0000000000
     13997      4666  TIP3      H1             -9.0728103985      -30.9678957466        7.8471553365  WZ3       311             0.0000000000
     13998      4666  TIP3      H2             -7.6933903985      -31.5131057466        7.5441053365  WZ3       311             0.0000000000
     13999      4667  TIP3      OH2           -15.6011903985      -26.4079257466        4.0070953365  WZ3       312             0.0000000000
     14000      4667  TIP3      H1            -15.0739703985      -25.6344857466        3.8069753365  WZ3       312             0.0000000000
     14001      4667  TIP3      H2            -16.4813403985      -26.1830057466        3.7054953365  WZ3       312             0.0000000000
     14002      4668  TIP3      OH2           -19.8464203985      -31.5455157466       -1.4056646635  WZ3       313             0.0000000000
     14003      4668  TIP3      H1            -19.2304303985      -30.9187957466       -1.0261846635  WZ3       313             0.0000000000
     14004      4668  TIP3      H2            -20.7081603985      -31.2295357466       -1.1340146635  WZ3       313             0.0000000000
     14005      4669  TIP3      OH2           -14.1739603985      -28.7449357466        3.5835253365  WZ3       314             0.0000000000
     14006      4669  TIP3      H1            -14.4149603985      -27.8194957466        3.6250553365  WZ3       314             0.0000000000
     14007      4669  TIP3      H2            -14.9146003985      -29.2038057466        3.9799153365  WZ3       314             0.0000000000
     14008      4670  TIP3      OH2           -13.6593003985      -24.5955757466        9.8986353365  WZ3       315             0.0000000000
     14009      4670  TIP3      H1            -13.2968303985      -23.7410157466        9.6650753365  WZ3       315             0.0000000000
     14010      4670  TIP3      H2            -13.1277803985      -24.8874157466       10.6392653365  WZ3       315             0.0000000000
     14011      4671  TIP3      OH2           -15.4908803985      -23.7231757466        3.1287453365  WZ3       316             0.0000000000
     14012      4671  TIP3      H1            -16.4408303985      -23.6174357466        3.1800753365  WZ3       316             0.0000000000
     14013      4671  TIP3      H2            -15.1390703985      -22.9024357466        3.4734953365  WZ3       316             0.0000000000
     14014      4672  TIP3      OH2           -10.1152203985      -28.4965057466        9.5991953365  WZ3       317             0.0000000000
     14015      4672  TIP3      H1            -10.5410903985      -28.7243357466       10.4255953365  WZ3       317             0.0000000000
     14016      4672  TIP3      H2             -9.5346403985      -29.2353257466        9.4167253365  WZ3       317             0.0000000000
     14017      4673  TIP3      OH2            -7.9123303985      -27.5674557466       -1.3269046635  WZ3       318             0.0000000000
     14018      4673  TIP3      H1             -7.5590203985      -27.9474757466       -0.5225546635  WZ3       318             0.0000000000
     14019      4673  TIP3      H2             -8.8609803985      -27.6609757466       -1.2399746635  WZ3       318             0.0000000000
     14020      4674  TIP3      OH2            -7.4568003985      -23.9445557466       12.0686753365  WZ3       319             0.0000000000
     14021      4674  TIP3      H1             -8.0584803985      -24.5002657466       11.5733053365  WZ3       319             0.0000000000
     14022      4674  TIP3      H2             -7.1754303985      -23.2775757466       11.4424153365  WZ3       319             0.0000000000
     14023      4675  TIP3      OH2            -3.4088903985      -23.0882057466       -1.1258846635  WZ3       320             0.0000000000
     14024      4675  TIP3      H1             -2.6651003985      -22.5021557466       -1.2657246635  WZ3       320             0.0000000000
     14025      4675  TIP3      H2             -4.1030803985      -22.5196257466       -0.7926446635  WZ3       320             0.0000000000
     14026      4676  TIP3      OH2           -19.3342103985      -36.7117857466       11.4759353365  WZ3       321             0.0000000000
     14027      4676  TIP3      H1            -20.2269803985      -36.3732457466       11.4083353365  WZ3       321             0.0000000000
     14028      4676  TIP3      H2            -19.4329303985      -37.5671757466       11.8940153365  WZ3       321             0.0000000000
     14029      4677  TIP3      OH2            -7.0464003985      -28.8952557466        0.8998853365  WZ3       322             0.0000000000
     14030      4677  TIP3      H1             -7.3236403985      -29.6233257466        1.4559953365  WZ3       322             0.0000000000
     14031      4677  TIP3      H2             -6.1191003985      -28.7760557466        1.1051453365  WZ3       322             0.0000000000
     14032      4678  TIP3      OH2           -19.6830103985      -24.9073457466        9.9108753365  WZ3       323             0.0000000000
     14033      4678  TIP3      H1            -19.4659803985      -25.8391057466        9.8798453365  WZ3       323             0.0000000000
     14034      4678  TIP3      H2            -19.4366603985      -24.6328457466       10.7941553365  WZ3       323             0.0000000000
     14035      4679  TIP3      OH2           -13.8215503985      -26.4558457466       -2.8799046635  WZ3       324             0.0000000000
     14036      4679  TIP3      H1            -13.5825703985      -27.2040357466       -3.4270146635  WZ3       324             0.0000000000
     14037      4679  TIP3      H2            -14.0904203985      -26.8436757466       -2.0471246635  WZ3       324             0.0000000000
     14038      4680  TIP3      OH2           -14.8844903985      -26.8854657466       -0.4236446635  WZ3       325             0.0000000000
     14039      4680  TIP3      H1            -14.7376903985      -27.4054857466        0.3664453365  WZ3       325             0.0000000000
     14040      4680  TIP3      H2            -14.8873203985      -25.9787057466       -0.1170546635  WZ3       325             0.0000000000
     14041      4681  TIP3      OH2           -18.4313803985      -29.6331357466        0.0868953365  WZ3       326             0.0000000000
     14042      4681  TIP3      H1            -19.1174503985      -29.2808857466        0.6538653365  WZ3       326             0.0000000000
     14043      4681  TIP3      H2            -17.9085903985      -28.8701757466       -0.1596746635  WZ3       326             0.0000000000
     14044      4682  TIP3      OH2           -12.1467703985      -25.1881057466        0.3257753365  WZ3       329             0.0000000000
     14045      4682  TIP3      H1            -12.9631603985      -24.6911357466        0.3782053365  WZ3       329             0.0000000000
     14046      4682  TIP3      H2            -11.6171403985      -24.7127557466       -0.3143446635  WZ3       329             0.0000000000
     14047      4683  TIP3      OH2           -12.6153903985      -35.5907057466        2.2978653365  WZ3       330             0.0000000000
     14048      4683  TIP3      H1            -11.8031303985      -35.0863857466        2.3440353365  WZ3       330             0.0000000000
     14049      4683  TIP3      H2            -12.8600903985      -35.7357357466        3.2118253365  WZ3       330             0.0000000000
     14050      4684  TIP3      OH2           -12.0797503985      -34.6044357466       11.4825253365  WZ3       331             0.0000000000
     14051      4684  TIP3      H1            -11.9607203985      -34.0308957466       12.2395653365  WZ3       331             0.0000000000
     14052      4684  TIP3      H2            -11.4242903985      -35.2924957466       11.5973053365  WZ3       331             0.0000000000
     14053      4685  TIP3      OH2           -14.8084603985      -24.1443857466        0.3074653365  WZ3       333             0.0000000000
     14054      4685  TIP3      H1            -14.6475903985      -23.3446357466       -0.1932746635  WZ3       333             0.0000000000
     14055      4685  TIP3      H2            -15.0056803985      -23.8377857466        1.1925253365  WZ3       333             0.0000000000
     14056      4686  TIP3      OH2            -5.8751703985      -36.6974057466       12.3174953365  WZ3       335             0.0000000000
     14057      4686  TIP3      H1             -6.7915903985      -36.4352357466       12.2298653365  WZ3       335             0.0000000000
     14058      4686  TIP3      H2             -5.5396703985      -36.7005057466       11.4210253365  WZ3       335             0.0000000000
     14059      4687  TIP3      OH2            -7.2730703985      -32.9473057466        6.4132253365  WZ3       336             0.0000000000
     14060      4687  TIP3      H1             -8.0706303985      -33.3622857466        6.0847253365  WZ3       336             0.0000000000
     14061      4687  TIP3      H2             -6.8279603985      -33.6379357466        6.9042753365  WZ3       336             0.0000000000
     14062      4688  TIP3      OH2           -17.8154903985      -27.0192457466       -1.0163246635  WZ3       337             0.0000000000
     14063      4688  TIP3      H1            -17.2233403985      -26.3197657466       -0.7400846635  WZ3       337             0.0000000000
     14064      4688  TIP3      H2            -17.3561903985      -27.4522957466       -1.7358646635  WZ3       337             0.0000000000
     14065      4689  TIP3      OH2           -19.4995703985      -34.3549457466       -1.9003846635  WZ3       338             0.0000000000
     14066      4689  TIP3      H1            -19.5443103985      -33.4156357466       -1.7216846635  WZ3       338             0.0000000000
     14067      4689  TIP3      H2            -20.3872503985      -34.5904557466       -2.1701746635  WZ3       338             0.0000000000
     14068      4690  TIP3      OH2            -6.1866103985      -23.6910557466        8.0355753365  WZ3       339             0.0000000000
     14069      4690  TIP3      H1             -6.3421803985      -23.0126157466        7.3785053365  WZ3       339             0.0000000000
     14070      4690  TIP3      H2             -5.2539703985      -23.6191257466        8.2386353365  WZ3       339             0.0000000000
     14071      4691  TIP3      OH2           -19.7610403985      -25.6325757466        2.9332953365  WZ3       341             0.0000000000
     14072      4691  TIP3      H1            -20.5931803985      -25.1603057466        2.9604353365  WZ3       341             0.0000000000
     14073      4691  TIP3      H2            -19.2152103985      -25.1228157466        2.3346053365  WZ3       341             0.0000000000
     14074      4692  TIP3      OH2           -20.4726703985      -23.0202057466       14.2630953365  WZ3       342             0.0000000000
     14075      4692  TIP3      H1            -19.9324503985      -23.2368057466       15.0230153365  WZ3       342             0.0000000000
     14076      4692  TIP3      H2            -20.9538703985      -23.8256057466       14.0733453365  WZ3       342             0.0000000000
     14077      4693  TIP3      OH2           -15.8753303985      -24.1007657466       15.8835153365  WZ3       343             0.0000000000
     14078      4693  TIP3      H1            -15.1076103985      -24.5596857466       16.2244353365  WZ3       343             0.0000000000
     14079      4693  TIP3      H2            -15.8967103985      -24.3267857466       14.9536353365  WZ3       343             0.0000000000
     14080      4694  TIP3      OH2           -11.7833703985      -24.5927057466       -2.7413046635  WZ3       344             0.0000000000
     14081      4694  TIP3      H1            -12.4272703985      -25.2238457466       -2.4199346635  WZ3       344             0.0000000000
     14082      4694  TIP3      H2            -11.0215403985      -25.1239057466       -2.9729546635  WZ3       344             0.0000000000
     14083      4695  TIP3      OH2            -9.2984603985      -25.7206557466       14.6126653365  WZ3       345             0.0000000000
     14084      4695  TIP3      H1             -9.6495103985      -26.5773557466       14.8557053365  WZ3       345             0.0000000000
     14085      4695  TIP3      H2             -8.5721403985      -25.5779857466       15.2195653365  WZ3       345             0.0000000000
     14086      4696  TIP3      OH2            -7.1790803985      -24.7757157466       -2.5075046635  WZ3       346             0.0000000000
     14087      4696  TIP3      H1             -6.8960403985      -25.5701957466       -2.0548146635  WZ3       346             0.0000000000
     14088      4696  TIP3      H2             -6.4392903985      -24.5426157466       -3.0683946635  WZ3       346             0.0000000000
     14089      4697  TIP3      OH2           -20.5657203985      -29.2097957466       15.2175253365  WZ3       347             0.0000000000
     14090      4697  TIP3      H1            -20.4216703985      -30.1117257466       14.9311953365  WZ3       347             0.0000000000
     14091      4697  TIP3      H2            -21.3379803985      -28.9235857466       14.7297553365  WZ3       347             0.0000000000
     14092      4698  TIP3      OH2           -16.2243503985      -28.8662257466       -2.6500146635  WZ3       348             0.0000000000
     14093      4698  TIP3      H1            -16.1599403985      -29.6602657466       -2.1193746635  WZ3       348             0.0000000000
     14094      4698  TIP3      H2            -15.5714303985      -28.9849457466       -3.3398146635  WZ3       348             0.0000000000
     14095      4699  TIP3      OH2           -13.9101103985      -29.2399857466       14.6501653365  WZ3       349             0.0000000000
     14096      4699  TIP3      H1            -14.2387303985      -28.9691757466       13.7929053365  WZ3       349             0.0000000000
     14097      4699  TIP3      H2            -13.7582903985      -30.1810057466       14.5626653365  WZ3       349             0.0000000000
     14098      4700  TIP3      OH2           -10.8720103985      -27.8190557466       -2.9142146635  WZ3       350             0.0000000000
     14099      4700  TIP3      H1            -11.1406003985      -27.6388457466       -2.0133246635  WZ3       350             0.0000000000
     14100      4700  TIP3      H2            -11.0784503985      -28.7444357466       -3.0456346635  WZ3       350             0.0000000000
     14101      4701  TIP3      OH2            -8.1755903985      -29.3242557466       12.0333953365  WZ3       351             0.0000000000
     14102      4701  TIP3      H1             -7.4301103985      -28.7358857466       11.9137953365  WZ3       351             0.0000000000
     14103      4701  TIP3      H2             -8.9329103985      -28.7422857466       12.0967053365  WZ3       351             0.0000000000
     14104      4702  TIP3      OH2           -19.7330703985      -32.0094657466       14.6374553365  WZ3       352             0.0000000000
     14105      4702  TIP3      H1            -19.3249503985      -32.8668057466       14.5165153365  WZ3       352             0.0000000000
     14106      4702  TIP3      H2            -19.9933103985      -31.9953357466       15.5584853365  WZ3       352             0.0000000000
     14107      4703  TIP3      OH2           -15.0749703985      -30.8936057466       -0.3442146635  WZ3       353             0.0000000000
     14108      4703  TIP3      H1            -15.5347703985      -31.3777757466        0.3416353365  WZ3       353             0.0000000000
     14109      4703  TIP3      H2            -14.8201003985      -31.5620657466       -0.9801646635  WZ3       353             0.0000000000
     14110      4704  TIP3      OH2           -15.7860403985      -33.0008957466       12.0117453365  WZ3       354             0.0000000000
     14111      4704  TIP3      H1            -16.4044303985      -32.3262357466       12.2922153365  WZ3       354             0.0000000000
     14112      4704  TIP3      H2            -15.4419203985      -32.6795057466       11.1783653365  WZ3       354             0.0000000000
     14113      4705  TIP3      OH2           -14.0039303985      -32.6504257466       -2.0818946635  WZ3       355             0.0000000000
     14114      4705  TIP3      H1            -14.1844303985      -32.8053057466       -3.0090646635  WZ3       355             0.0000000000
     14115      4705  TIP3      H2            -13.0538803985      -32.5425557466       -2.0371046635  WZ3       355             0.0000000000
     14116      4706  TIP3      OH2           -10.7662203985      -30.5293657466       15.2892253365  WZ3       356             0.0000000000
     14117      4706  TIP3      H1             -9.8131003985      -30.4454557466       15.2618253365  WZ3       356             0.0000000000
     14118      4706  TIP3      H2            -10.9267603985      -31.2411857466       15.9087153365  WZ3       356             0.0000000000
     14119      4707  TIP3      OH2            -4.6141003985      -30.2960057466       -2.6360846635  WZ3       357             0.0000000000
     14120      4707  TIP3      H1             -4.8876203985      -30.7204557466       -3.4492546635  WZ3       357             0.0000000000
     14121      4707  TIP3      H2             -4.5746903985      -29.3645557466       -2.8530446635  WZ3       357             0.0000000000
     14122      4708  TIP3      OH2           -15.4466703985      -35.6458157466       13.0940553365  WZ3       358             0.0000000000
     14123      4708  TIP3      H1            -15.2965803985      -36.3746857466       12.4920253365  WZ3       358             0.0000000000
     14124      4708  TIP3      H2            -15.4444303985      -34.8686457466       12.5352753365  WZ3       358             0.0000000000
     14125      4709  TIP3      OH2           -13.4522603985      -31.8366157466       10.8263153365  WZ3       360             0.0000000000
     14126      4709  TIP3      H1            -12.7017803985      -31.9928657466       10.2530953365  WZ3       360             0.0000000000
     14127      4709  TIP3      H2            -13.7914303985      -30.9849557466       10.5508653365  WZ3       360             0.0000000000
     14128      4710  TIP3      OH2            -9.0366403985      -34.0214357466       15.8548453365  WZ3       361             0.0000000000
     14129      4710  TIP3      H1             -8.8445103985      -34.9524957466       15.7432953365  WZ3       361             0.0000000000
     14130      4710  TIP3      H2             -8.1790103985      -33.5964857466       15.8443853365  WZ3       361             0.0000000000
     14131      4711  TIP3      OH2            -7.7199203985      -31.2329157466       13.9321153365  WZ3       362             0.0000000000
     14132      4711  TIP3      H1             -8.0014203985      -30.5234557466       13.3544953365  WZ3       362             0.0000000000
     14133      4711  TIP3      H2             -6.7774903985      -31.3056157466       13.7812353365  WZ3       362             0.0000000000
     14134      4712  TIP3      OH2           -16.9680403985      -34.4474657466       15.0056153365  WZ3       363             0.0000000000
     14135      4712  TIP3      H1            -17.7351403985      -34.9799857466       14.7953753365  WZ3       363             0.0000000000
     14136      4712  TIP3      H2            -16.2891403985      -34.7574257466       14.4062453365  WZ3       363             0.0000000000
     14137      4713  TIP3      OH2           -12.9645003985      -35.4981257466       14.5819953365  WZ3       365             0.0000000000
     14138      4713  TIP3      H1            -13.1999603985      -35.7174557466       15.4834853365  WZ3       365             0.0000000000
     14139      4713  TIP3      H2            -13.7478103985      -35.7050057466       14.0722453365  WZ3       365             0.0000000000
     14140      4714  TIP3      OH2           -10.2488403985      -36.3707757466       13.6573453365  WZ3       366             0.0000000000
     14141      4714  TIP3      H1            -11.1963003985      -36.3388057466       13.7896753365  WZ3       366             0.0000000000
     14142      4714  TIP3      H2             -9.9361703985      -36.9960657466       14.3111653365  WZ3       366             0.0000000000
     14143      4715  TIP3      OH2           -18.7877603985      -36.5270857466       14.7100853365  WZ3       368             0.0000000000
     14144      4715  TIP3      H1            -18.5760203985      -37.2334757466       14.0998353365  WZ3       368             0.0000000000
     14145      4715  TIP3      H2            -18.8990103985      -36.9644857466       15.5542053365  WZ3       368             0.0000000000
     14146      4716  TIP3      OH2           -14.1067603985      -21.9600557466       -1.0805346635  WZ3       371             0.0000000000
     14147      4716  TIP3      H1            -13.1736903985      -21.8021857466       -0.9366946635  WZ3       371             0.0000000000
     14148      4716  TIP3      H2            -14.3708803985      -21.2847557466       -1.7053846635  WZ3       371             0.0000000000
     14149      4717  TIP3      OH2           -20.5382703985      -27.3236757466       -1.5977246635  WZ3       372             0.0000000000
     14150      4717  TIP3      H1            -19.6243503985      -27.2447857466       -1.3243346635  WZ3       372             0.0000000000
     14151      4717  TIP3      H2            -20.5309603985      -28.0107157466       -2.2641646635  WZ3       372             0.0000000000
     14152      4718  TIP3      OH2           -21.8892103985      -21.9308257466        3.4796653365  WZ3       373             0.0000000000
     14153      4718  TIP3      H1            -22.5365003985      -22.3926557466        2.9467853365  WZ3       373             0.0000000000
     14154      4718  TIP3      H2            -21.5347503985      -22.6024957466        4.0622853365  WZ3       373             0.0000000000
     14155      4719  TIP3      OH2           -21.0192903985      -23.8501257466        5.2842853365  WZ3       374             0.0000000000
     14156      4719  TIP3      H1            -21.3536103985      -24.7303957466        5.4563053365  WZ3       374             0.0000000000
     14157      4719  TIP3      H2            -20.7970503985      -23.5046257466        6.1488453365  WZ3       374             0.0000000000
     14158      4720  TIP3      OH2            -3.4708103985      -23.0404857466        8.2647653365  WZ3       375             0.0000000000
     14159      4720  TIP3      H1             -3.4921403985      -22.8556457466        9.2037053365  WZ3       375             0.0000000000
     14160      4720  TIP3      H2             -2.7801903985      -22.4720857466        7.9239053365  WZ3       375             0.0000000000
     14161      4721  TIP3      OH2            -3.9075203985      -23.4733757466       11.1866753365  WZ3       376             0.0000000000
     14162      4721  TIP3      H1             -4.3946503985      -24.2089657466       10.8154153365  WZ3       376             0.0000000000
     14163      4721  TIP3      H2             -3.3582503985      -23.8669857466       11.8646153365  WZ3       376             0.0000000000
     14164      4722  TIP3      OH2            -5.4567903985      -27.6835657466       15.8247053365  WZ3       377             0.0000000000
     14165      4722  TIP3      H1             -6.3226803985      -27.7885957466       16.2189353365  WZ3       377             0.0000000000
     14166      4722  TIP3      H2             -5.0802003985      -26.9252357466       16.2711753365  WZ3       377             0.0000000000
     14167      4723  TIP3      OH2            -4.1558203985      -29.4271957466        1.3389553365  WZ3       378             0.0000000000
     14168      4723  TIP3      H1             -3.3056803985      -29.0061057466        1.4661153365  WZ3       378             0.0000000000
     14169      4723  TIP3      H2             -4.1503103985      -30.1671857466        1.9460953365  WZ3       378             0.0000000000
     14170      4724  TIP3      OH2            -3.7612603985      -31.3734557466        3.1625253365  WZ3       379             0.0000000000
     14171      4724  TIP3      H1             -4.4878003985      -31.8531957466        3.5602853365  WZ3       379             0.0000000000
     14172      4724  TIP3      H2             -3.1799303985      -31.1679857466        3.8946853365  WZ3       379             0.0000000000
     14173      4725  TIP3      OH2            -4.0021403985      -28.5887057466        8.1102853365  WZ3       380             0.0000000000
     14174      4725  TIP3      H1             -3.1687203985      -28.9667057466        7.8296453365  WZ3       380             0.0000000000
     14175      4725  TIP3      H2             -3.8901103985      -27.6455857466        7.9911953365  WZ3       380             0.0000000000
     14176      4726  TIP3      OH2            -5.5159103985      -25.7109557466       10.4171253365  WZ3       381             0.0000000000
     14177      4726  TIP3      H1             -6.1633803985      -25.3858057466       11.0426453365  WZ3       381             0.0000000000
     14178      4726  TIP3      H2             -6.0335103985      -26.1511857466        9.7429553365  WZ3       381             0.0000000000
     14179      4727  TIP3      OH2            -3.4929503985      -31.4726057466       -0.4463446635  WZ3       382             0.0000000000
     14180      4727  TIP3      H1             -4.0148403985      -31.1161957466       -1.1652546635  WZ3       382             0.0000000000
     14181      4727  TIP3      H2             -3.5260303985      -30.7978257466        0.2317453365  WZ3       382             0.0000000000
     14182      4728  TIP3      OH2            -5.1440503985      -34.2330457466       -1.8956346635  WZ3       383             0.0000000000
     14183      4728  TIP3      H1             -5.0476103985      -33.5663457466       -2.5756646635  WZ3       383             0.0000000000
     14184      4728  TIP3      H2             -5.2840903985      -35.0484157466       -2.3770846635  WZ3       383             0.0000000000
     14185      4729  TIP3      OH2            -5.9745803985      -32.8528057466        3.7253953365  WZ3       384             0.0000000000
     14186      4729  TIP3      H1             -6.1247003985      -33.7979457466        3.7051753365  WZ3       384             0.0000000000
     14187      4729  TIP3      H2             -6.3281303985      -32.5716657466        4.5693053365  WZ3       384             0.0000000000
     14188      4730  TIP3      OH2           -20.9393403985      -30.7745857466        7.7357753365  WZ3       385             0.0000000000
     14189      4730  TIP3      H1            -20.7550503985      -30.8564157466        6.8000653365  WZ3       385             0.0000000000
     14190      4730  TIP3      H2            -20.0900503985      -30.8988857466        8.1594153365  WZ3       385             0.0000000000
     14191      4731  TIP3      OH2            -5.1182903985      -30.8824757466       13.3642253365  WZ3       386             0.0000000000
     14192      4731  TIP3      H1             -4.5355603985      -31.6172457466       13.5559453365  WZ3       386             0.0000000000
     14193      4731  TIP3      H2             -4.5543603985      -30.1104457466       13.4108053365  WZ3       386             0.0000000000
     14194      4732  TIP3      OH2            -3.6215803985      -32.9798957466       14.0487653365  WZ3       387             0.0000000000
     14195      4732  TIP3      H1             -4.4849103985      -33.3586857466       13.8832353365  WZ3       387             0.0000000000
     14196      4732  TIP3      H2             -3.0172103985      -33.7184157466       13.9743453365  WZ3       387             0.0000000000
     14197      4733  TIP3      OH2            -6.2641003985      -35.2702257466        2.1879053365  WZ3       389             0.0000000000
     14198      4733  TIP3      H1             -5.9843903985      -36.1771857466        2.3120753365  WZ3       389             0.0000000000
     14199      4733  TIP3      H2             -5.5049303985      -34.8360757466        1.7988253365  WZ3       389             0.0000000000
     14200      4734  TIP3      OH2            -5.6522703985      -34.6884857466        7.6237953365  WZ3       390             0.0000000000
     14201      4734  TIP3      H1             -4.7194703985      -34.4764957466        7.5893953365  WZ3       390             0.0000000000
     14202      4734  TIP3      H2             -5.8875203985      -34.5872757466        8.5460953365  WZ3       390             0.0000000000
     14203      4735  TIP3      OH2            -5.6230803985      -33.9519557466       10.3997353365  WZ3       391             0.0000000000
     14204      4735  TIP3      H1             -6.4659503985      -33.6839157466       10.7657153365  WZ3       391             0.0000000000
     14205      4735  TIP3      H2             -5.1806503985      -33.1297657466       10.1888453365  WZ3       391             0.0000000000
     14206      4736  TIP3      OH2           -21.3418603985      -35.5040857466       13.8766553365  WZ3       392             0.0000000000
     14207      4736  TIP3      H1            -20.4223703985      -35.6262557466       14.1129653365  WZ3       392             0.0000000000
     14208      4736  TIP3      H2            -21.7914103985      -36.2541157466       14.2660053365  WZ3       392             0.0000000000
     14209      4737  TIP3      OH2           -21.8165803985      -34.1926257466        7.8369653365  WZ3       396             0.0000000000
     14210      4737  TIP3      H1            -21.3246003985      -34.4135757466        7.0461653365  WZ3       396             0.0000000000
     14211      4737  TIP3      H2            -21.4544903985      -33.3522857466        8.1179153365  WZ3       396             0.0000000000
     14212      4738  TIP3      OH2            -6.7322103985      -22.9505457466        3.8369453365  WZ3       400             0.0000000000
     14213      4738  TIP3      H1             -6.0799203985      -23.2983357466        3.2288553365  WZ3       400             0.0000000000
     14214      4738  TIP3      H2             -6.2218303985      -22.4622257466        4.4829153365  WZ3       400             0.0000000000
     14215      4739  TIP3      OH2           -19.3474603985      -26.0214057466       14.3800353365  WZ3       402             0.0000000000
     14216      4739  TIP3      H1            -20.1682103985      -25.8467557466       13.9195053365  WZ3       402             0.0000000000
     14217      4739  TIP3      H2            -19.5996803985      -26.0949357466       15.3004753365  WZ3       402             0.0000000000
     14218      4740  TIP3      OH2           -16.3931703985      -25.0472857466       10.6384353365  WZ3       403             0.0000000000
     14219      4740  TIP3      H1            -16.8180603985      -24.2374357466       10.3558953365  WZ3       403             0.0000000000
     14220      4740  TIP3      H2            -15.4888903985      -24.9618757466       10.3364153365  WZ3       403             0.0000000000
     14221      4741  TIP3      OH2           -12.0820303985      -23.6482857466       13.5978053365  WZ3       404             0.0000000000
     14222      4741  TIP3      H1            -11.8972803985      -23.9816757466       14.4758353365  WZ3       404             0.0000000000
     14223      4741  TIP3      H2            -11.2355803985      -23.3384257466       13.2757253365  WZ3       404             0.0000000000
     14224      4742  TIP3      OH2            -9.7369903985      -22.3623957466       12.8419453365  WZ3       405             0.0000000000
     14225      4742  TIP3      H1             -9.0601003985      -22.9951657466       12.6018653365  WZ3       405             0.0000000000
     14226      4742  TIP3      H2             -9.4151103985      -21.9613457466       13.6492753365  WZ3       405             0.0000000000
     14227      4743  TIP3      OH2           -18.9915003985      -21.7908957466       10.6859653365  WZ3       407             0.0000000000
     14228      4743  TIP3      H1            -19.7118603985      -21.3507957466       10.2347353365  WZ3       407             0.0000000000
     14229      4743  TIP3      H2            -19.3571003985      -22.0414257466       11.5343653365  WZ3       407             0.0000000000
     14230      4744  TIP3      OH2           -16.5242403985      -22.1905057466        9.7156853365  WZ3       408             0.0000000000
     14231      4744  TIP3      H1            -17.3890203985      -22.1186557466       10.1196953365  WZ3       408             0.0000000000
     14232      4744  TIP3      H2            -16.5793403985      -21.6437757466        8.9319353365  WZ3       408             0.0000000000
     14233      4745  TIP3      OH2           -11.8136803985      -22.3026157466        8.8912853365  WZ3       409             0.0000000000
     14234      4745  TIP3      H1            -12.2702803985      -21.7736457466        8.2371253365  WZ3       409             0.0000000000
     14235      4745  TIP3      H2            -11.6508803985      -21.6994757466        9.6165153365  WZ3       409             0.0000000000
     14236      4746  TIP3      OH2            -9.4860503985      -23.4246557466        9.8363153365  WZ3       410             0.0000000000
     14237      4746  TIP3      H1            -10.3906803985      -23.2596357466        9.5705253365  WZ3       410             0.0000000000
     14238      4746  TIP3      H2             -9.0571903985      -22.5714357466        9.7706553365  WZ3       410             0.0000000000
     14239      4747  TIP3      OH2            -6.8818603985      -21.8547457466       10.1310953365  WZ3       411             0.0000000000
     14240      4747  TIP3      H1             -7.0636603985      -20.9388557466        9.9205853365  WZ3       411             0.0000000000
     14241      4747  TIP3      H2             -6.7050803985      -22.2650357466        9.2845553365  WZ3       411             0.0000000000
     14242      4748  TIP3      OH2           -19.5766903985      -23.1676457466        7.5961453365  WZ3       412             0.0000000000
     14243      4748  TIP3      H1            -19.5950903985      -23.5931357466        8.4533753365  WZ3       412             0.0000000000
     14244      4748  TIP3      H2            -18.7719003985      -23.4861457466        7.1873653365  WZ3       412             0.0000000000
     14245      4749  TIP3      OH2           -17.4353803985      -24.4577757466        6.2511353365  WZ3       413             0.0000000000
     14246      4749  TIP3      H1            -17.6543103985      -25.3740357466        6.4207353365  WZ3       413             0.0000000000
     14247      4749  TIP3      H2            -16.6111603985      -24.3177357466        6.7172753365  WZ3       413             0.0000000000
     14248      4750  TIP3      OH2           -14.8981303985      -23.9878457466        7.0999353365  WZ3       414             0.0000000000
     14249      4750  TIP3      H1            -14.6855603985      -24.8759457466        6.8130253365  WZ3       414             0.0000000000
     14250      4750  TIP3      H2            -14.8336203985      -24.0220757466        8.0543353365  WZ3       414             0.0000000000
     14251      4751  TIP3      OH2           -20.3257203985      -23.9437257466        0.7673753365  WZ3       423             0.0000000000
     14252      4751  TIP3      H1            -21.0107303985      -23.9818357466        0.0998853365  WZ3       423             0.0000000000
     14253      4751  TIP3      H2            -20.3220003985      -23.0309657466        1.0555853365  WZ3       423             0.0000000000
     14254      4752  TIP3      OH2           -11.4613703985      -22.7342357466       -0.8350046635  WZ3       426             0.0000000000
     14255      4752  TIP3      H1            -10.5953503985      -22.3674957466       -1.0131846635  WZ3       426             0.0000000000
     14256      4752  TIP3      H2            -11.7080903985      -23.1734357466       -1.6489246635  WZ3       426             0.0000000000
     14257      4753  TIP3      OH2            -4.7524103985      -23.1712057466        1.8441053365  WZ3       427             0.0000000000
     14258      4753  TIP3      H1             -4.9467003985      -23.9189957466        1.2790653365  WZ3       427             0.0000000000
     14259      4753  TIP3      H2             -4.7914003985      -22.4131957466        1.2608953365  WZ3       427             0.0000000000
     14260      4754  TIP3      OH2           -18.5076003985      -23.0236457466       -2.2074146635  WZ3       430             0.0000000000
     14261      4754  TIP3      H1            -18.7751403985      -22.7373557466       -1.3341046635  WZ3       430             0.0000000000
     14262      4754  TIP3      H2            -17.7363403985      -23.5697257466       -2.0551646635  WZ3       430             0.0000000000
     14263      4755  TIP3      OH2            -5.5347903985      -24.4199657466       13.9942853365  WZ3       432             0.0000000000
     14264      4755  TIP3      H1             -6.3166003985      -24.6061657466       13.4743453365  WZ3       432             0.0000000000
     14265      4755  TIP3      H2             -5.6068003985      -23.4905357466       14.2115353365  WZ3       432             0.0000000000
     14266      4756  TIP3      OH2             8.8712496015      -30.5335257466        4.0250053365  WZ3       433             0.0000000000
     14267      4756  TIP3      H1              8.9603596015      -29.5897057466        3.8927153365  WZ3       433             0.0000000000
     14268      4756  TIP3      H2              8.2330096015      -30.8088857466        3.3669453365  WZ3       433             0.0000000000
     14269      4757  TIP3      OH2             7.8043796015      -31.2784557466        7.4438253365  WZ3       434             0.0000000000
     14270      4757  TIP3      H1              7.7661296015      -31.9248257466        8.1487853365  WZ3       434             0.0000000000
     14271      4757  TIP3      H2              7.4820296015      -31.7450157466        6.6726953365  WZ3       434             0.0000000000
     14272      4758  TIP3      OH2             0.1728796015      -31.6642457466        9.0368153365  WZ3       435             0.0000000000
     14273      4758  TIP3      H1              0.2140896015      -32.2899157466        9.7600553365  WZ3       435             0.0000000000
     14274      4758  TIP3      H2              0.8756496015      -31.0403857466        9.2188553365  WZ3       435             0.0000000000
     14275      4759  TIP3      OH2            11.5103996015      -28.3394157466        5.7453353365  WZ3       436             0.0000000000
     14276      4759  TIP3      H1             11.0696696015      -29.0598157466        6.1958953365  WZ3       436             0.0000000000
     14277      4759  TIP3      H2             11.4973696015      -27.6186957466        6.3751053365  WZ3       436             0.0000000000
     14278      4760  TIP3      OH2             1.0961896015      -27.2143557466        7.5717253365  WZ3       437             0.0000000000
     14279      4760  TIP3      H1              0.7267096015      -28.0163057466        7.2021553365  WZ3       437             0.0000000000
     14280      4760  TIP3      H2              2.0372996015      -27.3828657466        7.6180653365  WZ3       437             0.0000000000
     14281      4761  TIP3      OH2            -2.2937603985      -33.5540957466        2.9646053365  WZ3       438             0.0000000000
     14282      4761  TIP3      H1             -2.7414203985      -32.7082257466        2.9462553365  WZ3       438             0.0000000000
     14283      4761  TIP3      H2             -2.8546403985      -34.1336757466        2.4491153365  WZ3       438             0.0000000000
     14284      4762  TIP3      OH2            -1.5831503985      -31.3921357466        5.0904053365  WZ3       439             0.0000000000
     14285      4762  TIP3      H1             -1.3698003985      -32.1619757466        5.6177053365  WZ3       439             0.0000000000
     14286      4762  TIP3      H2             -0.8453903985      -31.3024657466        4.4871653365  WZ3       439             0.0000000000
     14287      4763  TIP3      OH2             8.6219496015      -23.2352457466        5.9573753365  WZ3       440             0.0000000000
     14288      4763  TIP3      H1              9.2415896015      -23.9117757466        5.6842953365  WZ3       440             0.0000000000
     14289      4763  TIP3      H2              8.4136896015      -23.4531657466        6.8658653365  WZ3       440             0.0000000000
     14290      4764  TIP3      OH2             6.1938196015      -28.8463157466        7.8499253365  WZ3       441             0.0000000000
     14291      4764  TIP3      H1              6.4976096015      -29.5321757466        7.2553353365  WZ3       441             0.0000000000
     14292      4764  TIP3      H2              6.9152196015      -28.7274457466        8.4677253365  WZ3       441             0.0000000000
     14293      4765  TIP3      OH2            14.8567996015      -37.2447857466        8.7105453365  WZ3       442             0.0000000000
     14294      4765  TIP3      H1             14.9060196015      -36.6346657466        9.4464553365  WZ3       442             0.0000000000
     14295      4765  TIP3      H2             15.2823096015      -36.7836957466        7.9876553365  WZ3       442             0.0000000000
     14296      4766  TIP3      OH2             9.3345196015      -34.4520757466        8.1774053365  WZ3       443             0.0000000000
     14297      4766  TIP3      H1              9.4771096015      -35.3983757466        8.1975653365  WZ3       443             0.0000000000
     14298      4766  TIP3      H2              9.2284196015      -34.2450957466        7.2488953365  WZ3       443             0.0000000000
     14299      4767  TIP3      OH2             2.4893496015      -36.3504357466        5.4498853365  WZ3       444             0.0000000000
     14300      4767  TIP3      H1              2.5324596015      -35.4905857466        5.0315153365  WZ3       444             0.0000000000
     14301      4767  TIP3      H2              2.0317596015      -36.9029657466        4.8162053365  WZ3       444             0.0000000000
     14302      4768  TIP3      OH2            10.2116196015      -36.2198757466        3.8507153365  WZ3       445             0.0000000000
     14303      4768  TIP3      H1             10.8580496015      -36.5485557466        4.4754753365  WZ3       445             0.0000000000
     14304      4768  TIP3      H2             10.7215596015      -35.7019757466        3.2278553365  WZ3       445             0.0000000000
     14305      4769  TIP3      OH2            -0.8905003985      -33.9538557466        6.2120253365  WZ3       446             0.0000000000
     14306      4769  TIP3      H1             -0.2368403985      -34.5036857466        6.6440353365  WZ3       446             0.0000000000
     14307      4769  TIP3      H2             -0.8665703985      -34.2279557466        5.2952253365  WZ3       446             0.0000000000
     14308      4770  TIP3      OH2             4.2659496015      -32.4037257466        5.4271753365  WZ3       447             0.0000000000
     14309      4770  TIP3      H1              4.8820496015      -32.9301857466        5.9365753365  WZ3       447             0.0000000000
     14310      4770  TIP3      H2              3.6798296015      -33.0438557466        5.0235353365  WZ3       447             0.0000000000
     14311      4771  TIP3      OH2            15.2482596015      -35.7668657466       10.9465253365  WZ3       448             0.0000000000
     14312      4771  TIP3      H1             14.5597196015      -35.1087957466       10.8511853365  WZ3       448             0.0000000000
     14313      4771  TIP3      H2             15.2637196015      -35.9640757466       11.8830653365  WZ3       448             0.0000000000
     14314      4772  TIP3      OH2             8.6685196015      -27.9324857466        3.0678753365  WZ3       450             0.0000000000
     14315      4772  TIP3      H1              8.3730296015      -28.2552557466        2.2165653365  WZ3       450             0.0000000000
     14316      4772  TIP3      H2              8.3442996015      -27.0328157466        3.1091353365  WZ3       450             0.0000000000
     14317      4773  TIP3      OH2             3.8686796015      -29.7570257466        9.8113353365  WZ3       451             0.0000000000
     14318      4773  TIP3      H1              3.1285896015      -29.1588757466        9.9148553365  WZ3       451             0.0000000000
     14319      4773  TIP3      H2              4.5826296015      -29.2030657466        9.4956953365  WZ3       451             0.0000000000
     14320      4774  TIP3      OH2             0.8932696015      -35.5404157466        7.4761853365  WZ3       453             0.0000000000
     14321      4774  TIP3      H1              1.5068996015      -34.9076557466        7.8494253365  WZ3       453             0.0000000000
     14322      4774  TIP3      H2              1.4053396015      -36.0129157466        6.8198753365  WZ3       453             0.0000000000
     14323      4775  TIP3      OH2             2.2761096015      -27.7927257466       10.5984853365  WZ3       454             0.0000000000
     14324      4775  TIP3      H1              2.2708696015      -26.9133757466       10.2204153365  WZ3       454             0.0000000000
     14325      4775  TIP3      H2              1.4225196015      -27.8763157466       11.0234753365  WZ3       454             0.0000000000
     14326      4776  TIP3      OH2            -1.6028003985      -28.1219357466        1.3804153365  WZ3       455             0.0000000000
     14327      4776  TIP3      H1             -1.8747103985      -27.8928357466        0.4917053365  WZ3       455             0.0000000000
     14328      4776  TIP3      H2             -1.5572303985      -27.2840557466        1.8409453365  WZ3       455             0.0000000000
     14329      4777  TIP3      OH2            12.0221696015      -26.5003457466        8.0932653365  WZ3       456             0.0000000000
     14330      4777  TIP3      H1             11.0805396015      -26.4419557466        8.2549553365  WZ3       456             0.0000000000
     14331      4777  TIP3      H2             12.2987796015      -25.5942957466        7.9562353365  WZ3       456             0.0000000000
     14332      4778  TIP3      OH2            10.2742896015      -24.7189957466        4.7184253365  WZ3       459             0.0000000000
     14333      4778  TIP3      H1             10.6995196015      -25.4262057466        4.2333853365  WZ3       459             0.0000000000
     14334      4778  TIP3      H2             10.5912896015      -23.9177257466        4.3016453365  WZ3       459             0.0000000000
     14335      4779  TIP3      OH2            11.4339396015      -26.8181457466        3.2270853365  WZ3       460             0.0000000000
     14336      4779  TIP3      H1             11.1764196015      -27.5081357466        2.6156753365  WZ3       460             0.0000000000
     14337      4779  TIP3      H2             11.5050196015      -27.2610257466        4.0726753365  WZ3       460             0.0000000000
     14338      4780  TIP3      OH2            13.1199596015      -28.2514757466       11.7044353365  WZ3       461             0.0000000000
     14339      4780  TIP3      H1             13.2595896015      -28.8432257466       10.9651353365  WZ3       461             0.0000000000
     14340      4780  TIP3      H2             13.2872396015      -27.3788857466       11.3483153365  WZ3       461             0.0000000000
     14341      4781  TIP3      OH2             7.5924996015      -31.2895257466        1.4770353365  WZ3       462             0.0000000000
     14342      4781  TIP3      H1              6.8810496015      -30.7545557466        1.1250853365  WZ3       462             0.0000000000
     14343      4781  TIP3      H2              8.2834596015      -31.2343157466        0.8169253365  WZ3       462             0.0000000000
     14344      4782  TIP3      OH2             7.6464196015      -32.8320957466       -1.4844646635  WZ3       463             0.0000000000
     14345      4782  TIP3      H1              8.3474096015      -32.8094057466       -0.8330646635  WZ3       463             0.0000000000
     14346      4782  TIP3      H2              7.9487096015      -33.4601257466       -2.1405346635  WZ3       463             0.0000000000
     14347      4783  TIP3      OH2            14.9618896015      -31.9116757466        9.7704753365  WZ3       464             0.0000000000
     14348      4783  TIP3      H1             14.3092996015      -31.2171157466        9.8595653365  WZ3       464             0.0000000000
     14349      4783  TIP3      H2             15.4269196015      -31.7015857466        8.9606353365  WZ3       464             0.0000000000
     14350      4784  TIP3      OH2            10.9982696015      -31.0801957466        2.4286253365  WZ3       465             0.0000000000
     14351      4784  TIP3      H1             10.2663696015      -30.8518257466        3.0016853365  WZ3       465             0.0000000000
     14352      4784  TIP3      H2             11.4454896015      -31.7939257466        2.8833753365  WZ3       465             0.0000000000
     14353      4785  TIP3      OH2            10.8956196015      -32.9059357466       11.4963253365  WZ3       466             0.0000000000
     14354      4785  TIP3      H1             10.9755296015      -32.1424957466       12.0681753365  WZ3       466             0.0000000000
     14355      4785  TIP3      H2             10.2943896015      -32.6266957466       10.8058353365  WZ3       466             0.0000000000
     14356      4786  TIP3      OH2             2.6436396015      -30.4495757466        4.3111253365  WZ3       467             0.0000000000
     14357      4786  TIP3      H1              2.3131596015      -30.8202357466        3.4928253365  WZ3       467             0.0000000000
     14358      4786  TIP3      H2              3.2320496015      -31.1201757466        4.6579553365  WZ3       467             0.0000000000
     14359      4787  TIP3      OH2             4.0103896015      -27.0215157466        6.9923453365  WZ3       468             0.0000000000
     14360      4787  TIP3      H1              3.9155196015      -27.6002057466        6.2358053365  WZ3       468             0.0000000000
     14361      4787  TIP3      H2              4.7397496015      -27.3929457466        7.4886253365  WZ3       468             0.0000000000
     14362      4788  TIP3      OH2             3.0101896015      -31.6810157466        7.9446253365  WZ3       469             0.0000000000
     14363      4788  TIP3      H1              3.5754396015      -31.5595957466        7.1817453365  WZ3       469             0.0000000000
     14364      4788  TIP3      H2              3.3290796015      -31.0435157466        8.5834753365  WZ3       469             0.0000000000
     14365      4789  TIP3      OH2             9.3194096015      -26.1778257466        8.6786753365  WZ3       470             0.0000000000
     14366      4789  TIP3      H1              9.0790696015      -25.5155157466        9.3265953365  WZ3       470             0.0000000000
     14367      4789  TIP3      H2              9.1212296015      -27.0123057466        9.1036353365  WZ3       470             0.0000000000
     14368      4790  TIP3      OH2             3.8902596015      -27.2817457466       12.6618153365  WZ3       471             0.0000000000
     14369      4790  TIP3      H1              3.5790096015      -26.4994257466       13.1171353365  WZ3       471             0.0000000000
     14370      4790  TIP3      H2              3.2402796015      -27.4348357466       11.9760153365  WZ3       471             0.0000000000
     14371      4791  TIP3      OH2             9.8692196015      -31.9179057466        0.1137453365  WZ3       472             0.0000000000
     14372      4791  TIP3      H1             10.4487696015      -31.7678757466        0.8606353365  WZ3       472             0.0000000000
     14373      4791  TIP3      H2             10.2832196015      -31.4471657466       -0.6096146635  WZ3       472             0.0000000000
     14374      4792  TIP3      OH2             0.8102496015      -31.0836357466       11.8903853365  WZ3       473             0.0000000000
     14375      4792  TIP3      H1              0.8805696015      -30.4329557466       12.5888853365  WZ3       473             0.0000000000
     14376      4792  TIP3      H2             -0.0805303985      -30.9808857466       11.5554753365  WZ3       473             0.0000000000
     14377      4793  TIP3      OH2             7.5957096015      -25.1810557466        3.5490553365  WZ3       474             0.0000000000
     14378      4793  TIP3      H1              8.0694696015      -24.8854257466        4.3264753365  WZ3       474             0.0000000000
     14379      4793  TIP3      H2              7.0326396015      -24.4428957466        3.3160153365  WZ3       474             0.0000000000
     14380      4794  TIP3      OH2             2.1298496015      -25.2102457466       13.4251953365  WZ3       475             0.0000000000
     14381      4794  TIP3      H1              2.1373796015      -25.3462757466       12.4777453365  WZ3       475             0.0000000000
     14382      4794  TIP3      H2              1.2138896015      -25.3274357466       13.6771953365  WZ3       475             0.0000000000
     14383      4795  TIP3      OH2             1.6339096015      -31.3801457466        1.9004053365  WZ3       477             0.0000000000
     14384      4795  TIP3      H1              1.3420396015      -30.6119757466        1.4095353365  WZ3       477             0.0000000000
     14385      4795  TIP3      H2              0.9594296015      -32.0395257466        1.7375453365  WZ3       477             0.0000000000
     14386      4796  TIP3      OH2            14.7571996015      -25.8016257466       -1.6968946635  WZ3       478             0.0000000000
     14387      4796  TIP3      H1             14.8305496015      -24.8626057466       -1.5263646635  WZ3       478             0.0000000000
     14388      4796  TIP3      H2             15.6627096015      -26.1067657466       -1.7531646635  WZ3       478             0.0000000000
     14389      4797  TIP3      OH2            -2.2730803985      -29.0172257466       10.7153853365  WZ3       479             0.0000000000
     14390      4797  TIP3      H1             -2.7742403985      -29.0452857466        9.9003553365  WZ3       479             0.0000000000
     14391      4797  TIP3      H2             -2.2677103985      -29.9229057466       11.0251153365  WZ3       479             0.0000000000
     14392      4798  TIP3      OH2            -2.5228103985      -26.2368457466        7.5994053365  WZ3       480             0.0000000000
     14393      4798  TIP3      H1             -1.5767503985      -26.3811457466        7.5803553365  WZ3       480             0.0000000000
     14394      4798  TIP3      H2             -2.6351803985      -25.4525657466        8.1365253365  WZ3       480             0.0000000000
     14395      4799  TIP3      OH2            15.6750396015      -25.5708757466       13.2817753365  WZ3       481             0.0000000000
     14396      4799  TIP3      H1             15.6257196015      -26.5260657466       13.2445353365  WZ3       481             0.0000000000
     14397      4799  TIP3      H2             14.8482696015      -25.3033457466       13.6831553365  WZ3       481             0.0000000000
     14398      4800  TIP3      OH2             6.6534396015      -25.9969557466       12.1579153365  WZ3       482             0.0000000000
     14399      4800  TIP3      H1              6.7408996015      -25.1704957466       12.6328253365  WZ3       482             0.0000000000
     14400      4800  TIP3      H2              5.7899496015      -26.3265757466       12.4068453365  WZ3       482             0.0000000000
     14401      4801  TIP3      OH2             7.0680196015      -22.2245857466        1.9639753365  WZ3       483             0.0000000000
     14402      4801  TIP3      H1              6.9926196015      -22.3458657466        1.0174953365  WZ3       483             0.0000000000
     14403      4801  TIP3      H2              7.1008896015      -21.2753157466        2.0824353365  WZ3       483             0.0000000000
     14404      4802  TIP3      OH2             0.7213996015      -23.4358857466        3.7448753365  WZ3       484             0.0000000000
     14405      4802  TIP3      H1              0.8734396015      -23.7838457466        4.6235253365  WZ3       484             0.0000000000
     14406      4802  TIP3      H2             -0.1295603985      -23.7921557466        3.4895953365  WZ3       484             0.0000000000
     14407      4803  TIP3      OH2            10.1696196015      -23.0705657466       -1.0337846635  WZ3       485             0.0000000000
     14408      4803  TIP3      H1             10.5444596015      -23.8149557466       -1.5045246635  WZ3       485             0.0000000000
     14409      4803  TIP3      H2             10.1739896015      -23.3405057466       -0.1154546635  WZ3       485             0.0000000000
     14410      4804  TIP3      OH2             9.8384296015      -23.1448557466        1.7154353365  WZ3       486             0.0000000000
     14411      4804  TIP3      H1              8.9034096015      -23.0446657466        1.8941353365  WZ3       486             0.0000000000
     14412      4804  TIP3      H2             10.1186196015      -23.8542557466        2.2937553365  WZ3       486             0.0000000000
     14413      4805  TIP3      OH2            12.8270196015      -34.0776257466       13.7619953365  WZ3       487             0.0000000000
     14414      4805  TIP3      H1             12.4196996015      -33.5970657466       13.0413253365  WZ3       487             0.0000000000
     14415      4805  TIP3      H2             12.8675896015      -34.9830257466       13.4540753365  WZ3       487             0.0000000000
     14416      4806  TIP3      OH2            -0.0240303985      -27.6936857466       11.7586653365  WZ3       488             0.0000000000
     14417      4806  TIP3      H1              0.1920996015      -28.0551257466       12.6182453365  WZ3       488             0.0000000000
     14418      4806  TIP3      H2             -0.8795603985      -28.0683057466       11.5490153365  WZ3       488             0.0000000000
     14419      4807  TIP3      OH2            10.5840396015      -35.7460757466       11.9822353365  WZ3       491             0.0000000000
     14420      4807  TIP3      H1             10.0699896015      -35.8718557466       12.7798353365  WZ3       491             0.0000000000
     14421      4807  TIP3      H2             10.4285096015      -34.8337657466       11.7378553365  WZ3       491             0.0000000000
     14422      4808  TIP3      OH2            11.3465296015      -30.8850757466       -2.2564646635  WZ3       492             0.0000000000
     14423      4808  TIP3      H1             11.3886096015      -31.1076857466       -3.1864646635  WZ3       492             0.0000000000
     14424      4808  TIP3      H2             12.1957396015      -30.4863657466       -2.0664746635  WZ3       492             0.0000000000
     14425      4809  TIP3      OH2             2.6857796015      -34.2581857466        8.8491053365  WZ3       494             0.0000000000
     14426      4809  TIP3      H1              2.0439896015      -34.2984557466        9.5581153365  WZ3       494             0.0000000000
     14427      4809  TIP3      H2              2.7229796015      -33.3317157466        8.6114053365  WZ3       494             0.0000000000
     14428      4810  TIP3      OH2             2.6826896015      -34.0371757466        3.7611053365  WZ3       495             0.0000000000
     14429      4810  TIP3      H1              1.7899796015      -34.3775657466        3.7024853365  WZ3       495             0.0000000000
     14430      4810  TIP3      H2              3.1333496015      -34.4140857466        3.0054253365  WZ3       495             0.0000000000
     14431      4811  TIP3      OH2             8.2182396015      -33.6211457466        2.5781853365  WZ3       496             0.0000000000
     14432      4811  TIP3      H1              7.8092696015      -32.8062857466        2.2866653365  WZ3       496             0.0000000000
     14433      4811  TIP3      H2              8.9388596015      -33.7611357466        1.9638953365  WZ3       496             0.0000000000
     14434      4812  TIP3      OH2             7.3203996015      -33.4455057466       14.0662553365  WZ3       497             0.0000000000
     14435      4812  TIP3      H1              6.7577796015      -34.1503457466       14.3870353365  WZ3       497             0.0000000000
     14436      4812  TIP3      H2              8.1467396015      -33.5663157466       14.5340153365  WZ3       497             0.0000000000
     14437      4813  TIP3      OH2             9.2230096015      -34.1751057466        5.3921553365  WZ3       498             0.0000000000
     14438      4813  TIP3      H1              9.0274596015      -33.5694257466        4.6772153365  WZ3       498             0.0000000000
     14439      4813  TIP3      H2              9.4042696015      -35.0085857466        4.9577853365  WZ3       498             0.0000000000
     14440      4814  TIP3      OH2             0.4358296015      -33.9378357466       10.7163053365  WZ3       499             0.0000000000
     14441      4814  TIP3      H1              0.3977696015      -33.5376757466       11.5850153365  WZ3       499             0.0000000000
     14442      4814  TIP3      H2             -0.0550603985      -34.7545957466       10.8065953365  WZ3       499             0.0000000000
     14443      4815  TIP3      OH2             3.8015696015      -36.5636057466       -2.4850946635  WZ3       500             0.0000000000
     14444      4815  TIP3      H1              3.3706396015      -37.0085957466       -1.7553546635  WZ3       500             0.0000000000
     14445      4815  TIP3      H2              3.0834396015      -36.1919757466       -2.9973446635  WZ3       500             0.0000000000
     14446      4816  TIP3      OH2            -1.6818803985      -36.0754557466       -0.0091846635  WZ3       502             0.0000000000
     14447      4816  TIP3      H1             -1.2077103985      -35.4844657466       -0.5940946635  WZ3       502             0.0000000000
     14448      4816  TIP3      H2             -2.3992403985      -35.5451657466        0.3378253365  WZ3       502             0.0000000000
     14449      4817  TIP3      OH2             8.4869296015      -32.5369757466       10.0633953365  WZ3       503             0.0000000000
     14450      4817  TIP3      H1              8.8104096015      -33.1680057466        9.4204453365  WZ3       503             0.0000000000
     14451      4817  TIP3      H2              8.0468596015      -33.0717557466       10.7241353365  WZ3       503             0.0000000000
     14452      4818  TIP3      OH2             5.2642196015      -36.6094257466        4.8475153365  WZ3       504             0.0000000000
     14453      4818  TIP3      H1              4.3533296015      -36.5527457466        5.1361153365  WZ3       504             0.0000000000
     14454      4818  TIP3      H2              5.7695096015      -36.6698757466        5.6582353365  WZ3       504             0.0000000000
     14455      4819  TIP3      OH2             0.0925596015      -34.9807957466        3.6742753365  WZ3       505             0.0000000000
     14456      4819  TIP3      H1             -0.7966403985      -34.8812457466        3.3342353365  WZ3       505             0.0000000000
     14457      4819  TIP3      H2              0.3890496015      -35.8224957466        3.3280653365  WZ3       505             0.0000000000
     14458      4820  TIP3      OH2             3.7457396015      -34.9805357466        1.3307353365  WZ3       506             0.0000000000
     14459      4820  TIP3      H1              4.6772896015      -34.8515357466        1.5090453365  WZ3       506             0.0000000000
     14460      4820  TIP3      H2              3.5307696015      -34.3111057466        0.6812053365  WZ3       506             0.0000000000
     14461      4821  TIP3      OH2             2.4197596015      -33.7863157466       -1.1026546635  WZ3       508             0.0000000000
     14462      4821  TIP3      H1              1.8772696015      -34.1659357466       -1.7938946635  WZ3       508             0.0000000000
     14463      4821  TIP3      H2              3.2532496015      -33.5918457466       -1.5312446635  WZ3       508             0.0000000000
     14464      4822  TIP3      OH2            12.9569196015      -21.7032557466       14.3884553365  WZ3       509             0.0000000000
     14465      4822  TIP3      H1             13.1567896015      -21.2790657466       13.5539853365  WZ3       509             0.0000000000
     14466      4822  TIP3      H2             13.6122896015      -21.3594357466       14.9954953365  WZ3       509             0.0000000000
     14467      4823  TIP3      OH2             0.5548996015      -29.2291257466       13.9965053365  WZ3       510             0.0000000000
     14468      4823  TIP3      H1              1.2871396015      -28.9745357466       14.5579553365  WZ3       510             0.0000000000
     14469      4823  TIP3      H2             -0.2252303985      -29.0245857466       14.5120453365  WZ3       510             0.0000000000
     14470      4824  TIP3      OH2             6.5841896015      -33.8221257466        6.7344753365  WZ3       511             0.0000000000
     14471      4824  TIP3      H1              7.1485296015      -34.3684657466        6.1874353365  WZ3       511             0.0000000000
     14472      4824  TIP3      H2              6.4365296015      -34.3439357466        7.5232353365  WZ3       511             0.0000000000
     14473      4825  TIP3      OH2             5.2107796015      -35.4335157466        9.1485153365  WZ3       513             0.0000000000
     14474      4825  TIP3      H1              4.3753096015      -34.9795657466        9.2587553365  WZ3       513             0.0000000000
     14475      4825  TIP3      H2              5.7348396015      -35.1576657466        9.9005053365  WZ3       513             0.0000000000
     14476      4826  TIP3      OH2             5.7550396015      -29.2207457466        0.8331553365  WZ3       514             0.0000000000
     14477      4826  TIP3      H1              5.0101396015      -29.7282157466        0.5109453365  WZ3       514             0.0000000000
     14478      4826  TIP3      H2              5.6207596015      -29.1719457466        1.7796353365  WZ3       514             0.0000000000
     14479      4827  TIP3      OH2            12.9049296015      -30.0879257466        9.6199153365  WZ3       515             0.0000000000
     14480      4827  TIP3      H1             13.5468096015      -29.6312957466        9.0761353365  WZ3       515             0.0000000000
     14481      4827  TIP3      H2             12.0746196015      -29.9746857466        9.1573253365  WZ3       515             0.0000000000
     14482      4828  TIP3      OH2             9.6527196015      -36.4067557466       -0.9675846635  WZ3       516             0.0000000000
     14483      4828  TIP3      H1              8.7141396015      -36.2951957466       -1.1187046635  WZ3       516             0.0000000000
     14484      4828  TIP3      H2              9.9499296015      -35.5500657466       -0.6610146635  WZ3       516             0.0000000000
     14485      4829  TIP3      OH2             7.2742496015      -29.0364157466       12.0700653365  WZ3       517             0.0000000000
     14486      4829  TIP3      H1              6.9288596015      -29.4181757466       12.8770253365  WZ3       517             0.0000000000
     14487      4829  TIP3      H2              7.0742596015      -28.1030557466       12.1413553365  WZ3       517             0.0000000000
     14488      4830  TIP3      OH2            10.3710696015      -34.5394857466        0.6931553365  WZ3       518             0.0000000000
     14489      4830  TIP3      H1             11.2629696015      -34.6769857466        1.0122753365  WZ3       518             0.0000000000
     14490      4830  TIP3      H2             10.4274296015      -33.7488757466        0.1565053365  WZ3       518             0.0000000000
     14491      4831  TIP3      OH2             0.8798696015      -29.9257457466        6.6029453365  WZ3       519             0.0000000000
     14492      4831  TIP3      H1              1.6245896015      -29.9281757466        6.0015953365  WZ3       519             0.0000000000
     14493      4831  TIP3      H2              0.9575296015      -30.7493657466        7.0844553365  WZ3       519             0.0000000000
     14494      4832  TIP3      OH2             7.8804496015      -27.7623157466       -0.1413846635  WZ3       520             0.0000000000
     14495      4832  TIP3      H1              7.5852896015      -26.9355257466        0.2400953365  WZ3       520             0.0000000000
     14496      4832  TIP3      H2              7.1774496015      -28.3816257466        0.0547553365  WZ3       520             0.0000000000
     14497      4833  TIP3      OH2            -2.1121603985      -31.4650557466       11.9177953365  WZ3       521             0.0000000000
     14498      4833  TIP3      H1             -1.8893003985      -31.8830957466       12.7495453365  WZ3       521             0.0000000000
     14499      4833  TIP3      H2             -2.7141503985      -32.0775557466       11.4950753365  WZ3       521             0.0000000000
     14500      4834  TIP3      OH2             4.9043296015      -31.9480657466       14.1307653365  WZ3       522             0.0000000000
     14501      4834  TIP3      H1              4.6084096015      -32.1137657466       13.2356753365  WZ3       522             0.0000000000
     14502      4834  TIP3      H2              5.8358496015      -32.1680357466       14.1201553365  WZ3       522             0.0000000000
     14503      4835  TIP3      OH2             9.5246096015      -26.5748657466       12.0205653365  WZ3       523             0.0000000000
     14504      4835  TIP3      H1              8.6240396015      -26.3916057466       11.7529553365  WZ3       523             0.0000000000
     14505      4835  TIP3      H2              9.5587196015      -26.3159357466       12.9414453365  WZ3       523             0.0000000000
     14506      4836  TIP3      OH2            15.2559396015      -34.3300757466        0.3878253365  WZ3       524             0.0000000000
     14507      4836  TIP3      H1             14.7015696015      -34.7262757466       -0.2844246635  WZ3       524             0.0000000000
     14508      4836  TIP3      H2             15.3562996015      -33.4195557466        0.1101553365  WZ3       524             0.0000000000
     14509      4837  TIP3      OH2            15.2191396015      -28.5299057466       13.2249753365  WZ3       525             0.0000000000
     14510      4837  TIP3      H1             14.3679896015      -28.2915257466       12.8576153365  WZ3       525             0.0000000000
     14511      4837  TIP3      H2             15.8094796015      -28.5465857466       12.4716853365  WZ3       525             0.0000000000
     14512      4838  TIP3      OH2            13.5511096015      -25.5440357466        0.8530353365  WZ3       526             0.0000000000
     14513      4838  TIP3      H1             13.1782196015      -26.3696557466        1.1620953365  WZ3       526             0.0000000000
     14514      4838  TIP3      H2             13.8284596015      -25.7270957466       -0.0446246635  WZ3       526             0.0000000000
     14515      4839  TIP3      OH2            10.7114996015      -30.7360857466        7.8742253365  WZ3       527             0.0000000000
     14516      4839  TIP3      H1              9.7831896015      -30.9678957466        7.8471553365  WZ3       527             0.0000000000
     14517      4839  TIP3      H2             11.1626096015      -31.5131057466        7.5441053365  WZ3       527             0.0000000000
     14518      4840  TIP3      OH2             3.2548096015      -26.4079257466        4.0070953365  WZ3       528             0.0000000000
     14519      4840  TIP3      H1              3.7820296015      -25.6344857466        3.8069753365  WZ3       528             0.0000000000
     14520      4840  TIP3      H2              2.3746596015      -26.1830057466        3.7054953365  WZ3       528             0.0000000000
     14521      4841  TIP3      OH2            -0.9904203985      -31.5455157466       -1.4056646635  WZ3       529             0.0000000000
     14522      4841  TIP3      H1             -0.3744303985      -30.9187957466       -1.0261846635  WZ3       529             0.0000000000
     14523      4841  TIP3      H2             -1.8521603985      -31.2295357466       -1.1340146635  WZ3       529             0.0000000000
     14524      4842  TIP3      OH2             4.6820396015      -28.7449357466        3.5835253365  WZ3       530             0.0000000000
     14525      4842  TIP3      H1              4.4410396015      -27.8194957466        3.6250553365  WZ3       530             0.0000000000
     14526      4842  TIP3      H2              3.9413996015      -29.2038057466        3.9799153365  WZ3       530             0.0000000000
     14527      4843  TIP3      OH2             5.1966996015      -24.5955757466        9.8986353365  WZ3       531             0.0000000000
     14528      4843  TIP3      H1              5.5591696015      -23.7410157466        9.6650753365  WZ3       531             0.0000000000
     14529      4843  TIP3      H2              5.7282196015      -24.8874157466       10.6392653365  WZ3       531             0.0000000000
     14530      4844  TIP3      OH2             3.3651196015      -23.7231757466        3.1287453365  WZ3       532             0.0000000000
     14531      4844  TIP3      H1              2.4151696015      -23.6174357466        3.1800753365  WZ3       532             0.0000000000
     14532      4844  TIP3      H2              3.7169296015      -22.9024357466        3.4734953365  WZ3       532             0.0000000000
     14533      4845  TIP3      OH2             8.7407796015      -28.4965057466        9.5991953365  WZ3       533             0.0000000000
     14534      4845  TIP3      H1              8.3149096015      -28.7243357466       10.4255953365  WZ3       533             0.0000000000
     14535      4845  TIP3      H2              9.3213596015      -29.2353257466        9.4167253365  WZ3       533             0.0000000000
     14536      4846  TIP3      OH2            10.9436696015      -27.5674557466       -1.3269046635  WZ3       534             0.0000000000
     14537      4846  TIP3      H1             11.2969796015      -27.9474757466       -0.5225546635  WZ3       534             0.0000000000
     14538      4846  TIP3      H2              9.9950196015      -27.6609757466       -1.2399746635  WZ3       534             0.0000000000
     14539      4847  TIP3      OH2            11.3991996015      -23.9445557466       12.0686753365  WZ3       535             0.0000000000
     14540      4847  TIP3      H1             10.7975196015      -24.5002657466       11.5733053365  WZ3       535             0.0000000000
     14541      4847  TIP3      H2             11.6805696015      -23.2775757466       11.4424153365  WZ3       535             0.0000000000
     14542      4848  TIP3      OH2            15.4471096015      -23.0882057466       -1.1258846635  WZ3       536             0.0000000000
     14543      4848  TIP3      H1             16.1908996015      -22.5021557466       -1.2657246635  WZ3       536             0.0000000000
     14544      4848  TIP3      H2             14.7529196015      -22.5196257466       -0.7926446635  WZ3       536             0.0000000000
     14545      4849  TIP3      OH2            -0.4782103985      -36.7117857466       11.4759353365  WZ3       537             0.0000000000
     14546      4849  TIP3      H1             -1.3709803985      -36.3732457466       11.4083353365  WZ3       537             0.0000000000
     14547      4849  TIP3      H2             -0.5769303985      -37.5671757466       11.8940153365  WZ3       537             0.0000000000
     14548      4850  TIP3      OH2            11.8095996015      -28.8952557466        0.8998853365  WZ3       538             0.0000000000
     14549      4850  TIP3      H1             11.5323596015      -29.6233257466        1.4559953365  WZ3       538             0.0000000000
     14550      4850  TIP3      H2             12.7368996015      -28.7760557466        1.1051453365  WZ3       538             0.0000000000
     14551      4851  TIP3      OH2            -0.8270103985      -24.9073457466        9.9108753365  WZ3       539             0.0000000000
     14552      4851  TIP3      H1             -0.6099803985      -25.8391057466        9.8798453365  WZ3       539             0.0000000000
     14553      4851  TIP3      H2             -0.5806603985      -24.6328457466       10.7941553365  WZ3       539             0.0000000000
     14554      4852  TIP3      OH2             5.0344496015      -26.4558457466       -2.8799046635  WZ3       540             0.0000000000
     14555      4852  TIP3      H1              5.2734296015      -27.2040357466       -3.4270146635  WZ3       540             0.0000000000
     14556      4852  TIP3      H2              4.7655796015      -26.8436757466       -2.0471246635  WZ3       540             0.0000000000
     14557      4853  TIP3      OH2             3.9715096015      -26.8854657466       -0.4236446635  WZ3       541             0.0000000000
     14558      4853  TIP3      H1              4.1183096015      -27.4054857466        0.3664453365  WZ3       541             0.0000000000
     14559      4853  TIP3      H2              3.9686796015      -25.9787057466       -0.1170546635  WZ3       541             0.0000000000
     14560      4854  TIP3      OH2             0.4246196015      -29.6331357466        0.0868953365  WZ3       542             0.0000000000
     14561      4854  TIP3      H1             -0.2614503985      -29.2808857466        0.6538653365  WZ3       542             0.0000000000
     14562      4854  TIP3      H2              0.9474096015      -28.8701757466       -0.1596746635  WZ3       542             0.0000000000
     14563      4855  TIP3      OH2             6.7092296015      -25.1881057466        0.3257753365  WZ3       545             0.0000000000
     14564      4855  TIP3      H1              5.8928396015      -24.6911357466        0.3782053365  WZ3       545             0.0000000000
     14565      4855  TIP3      H2              7.2388596015      -24.7127557466       -0.3143446635  WZ3       545             0.0000000000
     14566      4856  TIP3      OH2             6.2406096015      -35.5907057466        2.2978653365  WZ3       546             0.0000000000
     14567      4856  TIP3      H1              7.0528696015      -35.0863857466        2.3440353365  WZ3       546             0.0000000000
     14568      4856  TIP3      H2              5.9959096015      -35.7357357466        3.2118253365  WZ3       546             0.0000000000
     14569      4857  TIP3      OH2             6.7762496015      -34.6044357466       11.4825253365  WZ3       547             0.0000000000
     14570      4857  TIP3      H1              6.8952796015      -34.0308957466       12.2395653365  WZ3       547             0.0000000000
     14571      4857  TIP3      H2              7.4317096015      -35.2924957466       11.5973053365  WZ3       547             0.0000000000
     14572      4858  TIP3      OH2             4.0475396015      -24.1443857466        0.3074653365  WZ3       549             0.0000000000
     14573      4858  TIP3      H1              4.2084096015      -23.3446357466       -0.1932746635  WZ3       549             0.0000000000
     14574      4858  TIP3      H2              3.8503196015      -23.8377857466        1.1925253365  WZ3       549             0.0000000000
     14575      4859  TIP3      OH2            12.9808296015      -36.6974057466       12.3174953365  WZ3       551             0.0000000000
     14576      4859  TIP3      H1             12.0644096015      -36.4352357466       12.2298653365  WZ3       551             0.0000000000
     14577      4859  TIP3      H2             13.3163296015      -36.7005057466       11.4210253365  WZ3       551             0.0000000000
     14578      4860  TIP3      OH2            11.5829296015      -32.9473057466        6.4132253365  WZ3       552             0.0000000000
     14579      4860  TIP3      H1             10.7853696015      -33.3622857466        6.0847253365  WZ3       552             0.0000000000
     14580      4860  TIP3      H2             12.0280396015      -33.6379357466        6.9042753365  WZ3       552             0.0000000000
     14581      4861  TIP3      OH2             1.0405096015      -27.0192457466       -1.0163246635  WZ3       553             0.0000000000
     14582      4861  TIP3      H1              1.6326596015      -26.3197657466       -0.7400846635  WZ3       553             0.0000000000
     14583      4861  TIP3      H2              1.4998096015      -27.4522957466       -1.7358646635  WZ3       553             0.0000000000
     14584      4862  TIP3      OH2            -0.6435703985      -34.3549457466       -1.9003846635  WZ3       554             0.0000000000
     14585      4862  TIP3      H1             -0.6883103985      -33.4156357466       -1.7216846635  WZ3       554             0.0000000000
     14586      4862  TIP3      H2             -1.5312503985      -34.5904557466       -2.1701746635  WZ3       554             0.0000000000
     14587      4863  TIP3      OH2            12.6693896015      -23.6910557466        8.0355753365  WZ3       555             0.0000000000
     14588      4863  TIP3      H1             12.5138196015      -23.0126157466        7.3785053365  WZ3       555             0.0000000000
     14589      4863  TIP3      H2             13.6020296015      -23.6191257466        8.2386353365  WZ3       555             0.0000000000
     14590      4864  TIP3      OH2            -0.9050403985      -25.6325757466        2.9332953365  WZ3       557             0.0000000000
     14591      4864  TIP3      H1             -1.7371803985      -25.1603057466        2.9604353365  WZ3       557             0.0000000000
     14592      4864  TIP3      H2             -0.3592103985      -25.1228157466        2.3346053365  WZ3       557             0.0000000000
     14593      4865  TIP3      OH2            -1.6166703985      -23.0202057466       14.2630953365  WZ3       558             0.0000000000
     14594      4865  TIP3      H1             -1.0764503985      -23.2368057466       15.0230153365  WZ3       558             0.0000000000
     14595      4865  TIP3      H2             -2.0978703985      -23.8256057466       14.0733453365  WZ3       558             0.0000000000
     14596      4866  TIP3      OH2             2.9806696015      -24.1007657466       15.8835153365  WZ3       559             0.0000000000
     14597      4866  TIP3      H1              3.7483896015      -24.5596857466       16.2244353365  WZ3       559             0.0000000000
     14598      4866  TIP3      H2              2.9592896015      -24.3267857466       14.9536353365  WZ3       559             0.0000000000
     14599      4867  TIP3      OH2             7.0726296015      -24.5927057466       -2.7413046635  WZ3       560             0.0000000000
     14600      4867  TIP3      H1              6.4287296015      -25.2238457466       -2.4199346635  WZ3       560             0.0000000000
     14601      4867  TIP3      H2              7.8344596015      -25.1239057466       -2.9729546635  WZ3       560             0.0000000000
     14602      4868  TIP3      OH2             9.5575396015      -25.7206557466       14.6126653365  WZ3       561             0.0000000000
     14603      4868  TIP3      H1              9.2064896015      -26.5773557466       14.8557053365  WZ3       561             0.0000000000
     14604      4868  TIP3      H2             10.2838596015      -25.5779857466       15.2195653365  WZ3       561             0.0000000000
     14605      4869  TIP3      OH2            11.6769196015      -24.7757157466       -2.5075046635  WZ3       562             0.0000000000
     14606      4869  TIP3      H1             11.9599596015      -25.5701957466       -2.0548146635  WZ3       562             0.0000000000
     14607      4869  TIP3      H2             12.4167096015      -24.5426157466       -3.0683946635  WZ3       562             0.0000000000
     14608      4870  TIP3      OH2            -1.7097203985      -29.2097957466       15.2175253365  WZ3       563             0.0000000000
     14609      4870  TIP3      H1             -1.5656703985      -30.1117257466       14.9311953365  WZ3       563             0.0000000000
     14610      4870  TIP3      H2             -2.4819803985      -28.9235857466       14.7297553365  WZ3       563             0.0000000000
     14611      4871  TIP3      OH2             2.6316496015      -28.8662257466       -2.6500146635  WZ3       564             0.0000000000
     14612      4871  TIP3      H1              2.6960596015      -29.6602657466       -2.1193746635  WZ3       564             0.0000000000
     14613      4871  TIP3      H2              3.2845696015      -28.9849457466       -3.3398146635  WZ3       564             0.0000000000
     14614      4872  TIP3      OH2             4.9458896015      -29.2399857466       14.6501653365  WZ3       565             0.0000000000
     14615      4872  TIP3      H1              4.6172696015      -28.9691757466       13.7929053365  WZ3       565             0.0000000000
     14616      4872  TIP3      H2              5.0977096015      -30.1810057466       14.5626653365  WZ3       565             0.0000000000
     14617      4873  TIP3      OH2             7.9839896015      -27.8190557466       -2.9142146635  WZ3       566             0.0000000000
     14618      4873  TIP3      H1              7.7153996015      -27.6388457466       -2.0133246635  WZ3       566             0.0000000000
     14619      4873  TIP3      H2              7.7775496015      -28.7444357466       -3.0456346635  WZ3       566             0.0000000000
     14620      4874  TIP3      OH2            10.6804096015      -29.3242557466       12.0333953365  WZ3       567             0.0000000000
     14621      4874  TIP3      H1             11.4258896015      -28.7358857466       11.9137953365  WZ3       567             0.0000000000
     14622      4874  TIP3      H2              9.9230896015      -28.7422857466       12.0967053365  WZ3       567             0.0000000000
     14623      4875  TIP3      OH2            -0.8770703985      -32.0094657466       14.6374553365  WZ3       568             0.0000000000
     14624      4875  TIP3      H1             -0.4689503985      -32.8668057466       14.5165153365  WZ3       568             0.0000000000
     14625      4875  TIP3      H2             -1.1373103985      -31.9953357466       15.5584853365  WZ3       568             0.0000000000
     14626      4876  TIP3      OH2             3.7810296015      -30.8936057466       -0.3442146635  WZ3       569             0.0000000000
     14627      4876  TIP3      H1              3.3212296015      -31.3777757466        0.3416353365  WZ3       569             0.0000000000
     14628      4876  TIP3      H2              4.0358996015      -31.5620657466       -0.9801646635  WZ3       569             0.0000000000
     14629      4877  TIP3      OH2             3.0699596015      -33.0008957466       12.0117453365  WZ3       570             0.0000000000
     14630      4877  TIP3      H1              2.4515696015      -32.3262357466       12.2922153365  WZ3       570             0.0000000000
     14631      4877  TIP3      H2              3.4140796015      -32.6795057466       11.1783653365  WZ3       570             0.0000000000
     14632      4878  TIP3      OH2             4.8520696015      -32.6504257466       -2.0818946635  WZ3       571             0.0000000000
     14633      4878  TIP3      H1              4.6715696015      -32.8053057466       -3.0090646635  WZ3       571             0.0000000000
     14634      4878  TIP3      H2              5.8021196015      -32.5425557466       -2.0371046635  WZ3       571             0.0000000000
     14635      4879  TIP3      OH2             8.0897796015      -30.5293657466       15.2892253365  WZ3       572             0.0000000000
     14636      4879  TIP3      H1              9.0428996015      -30.4454557466       15.2618253365  WZ3       572             0.0000000000
     14637      4879  TIP3      H2              7.9292396015      -31.2411857466       15.9087153365  WZ3       572             0.0000000000
     14638      4880  TIP3      OH2            14.2418996015      -30.2960057466       -2.6360846635  WZ3       573             0.0000000000
     14639      4880  TIP3      H1             13.9683796015      -30.7204557466       -3.4492546635  WZ3       573             0.0000000000
     14640      4880  TIP3      H2             14.2813096015      -29.3645557466       -2.8530446635  WZ3       573             0.0000000000
     14641      4881  TIP3      OH2             3.4093296015      -35.6458157466       13.0940553365  WZ3       574             0.0000000000
     14642      4881  TIP3      H1              3.5594196015      -36.3746857466       12.4920253365  WZ3       574             0.0000000000
     14643      4881  TIP3      H2              3.4115696015      -34.8686457466       12.5352753365  WZ3       574             0.0000000000
     14644      4882  TIP3      OH2             5.4037396015      -31.8366157466       10.8263153365  WZ3       576             0.0000000000
     14645      4882  TIP3      H1              6.1542196015      -31.9928657466       10.2530953365  WZ3       576             0.0000000000
     14646      4882  TIP3      H2              5.0645696015      -30.9849557466       10.5508653365  WZ3       576             0.0000000000
     14647      4883  TIP3      OH2             9.8193596015      -34.0214357466       15.8548453365  WZ3       577             0.0000000000
     14648      4883  TIP3      H1             10.0114896015      -34.9524957466       15.7432953365  WZ3       577             0.0000000000
     14649      4883  TIP3      H2             10.6769896015      -33.5964857466       15.8443853365  WZ3       577             0.0000000000
     14650      4884  TIP3      OH2            11.1360796015      -31.2329157466       13.9321153365  WZ3       578             0.0000000000
     14651      4884  TIP3      H1             10.8545796015      -30.5234557466       13.3544953365  WZ3       578             0.0000000000
     14652      4884  TIP3      H2             12.0785096015      -31.3056157466       13.7812353365  WZ3       578             0.0000000000
     14653      4885  TIP3      OH2             1.8879596015      -34.4474657466       15.0056153365  WZ3       579             0.0000000000
     14654      4885  TIP3      H1              1.1208596015      -34.9799857466       14.7953753365  WZ3       579             0.0000000000
     14655      4885  TIP3      H2              2.5668596015      -34.7574257466       14.4062453365  WZ3       579             0.0000000000
     14656      4886  TIP3      OH2             5.8914996015      -35.4981257466       14.5819953365  WZ3       581             0.0000000000
     14657      4886  TIP3      H1              5.6560396015      -35.7174557466       15.4834853365  WZ3       581             0.0000000000
     14658      4886  TIP3      H2              5.1081896015      -35.7050057466       14.0722453365  WZ3       581             0.0000000000
     14659      4887  TIP3      OH2             8.6071596015      -36.3707757466       13.6573453365  WZ3       582             0.0000000000
     14660      4887  TIP3      H1              7.6596996015      -36.3388057466       13.7896753365  WZ3       582             0.0000000000
     14661      4887  TIP3      H2              8.9198296015      -36.9960657466       14.3111653365  WZ3       582             0.0000000000
     14662      4888  TIP3      OH2             0.0682396015      -36.5270857466       14.7100853365  WZ3       584             0.0000000000
     14663      4888  TIP3      H1              0.2799796015      -37.2334757466       14.0998353365  WZ3       584             0.0000000000
     14664      4888  TIP3      H2             -0.0430103985      -36.9644857466       15.5542053365  WZ3       584             0.0000000000
     14665      4889  TIP3      OH2             4.7492396015      -21.9600557466       -1.0805346635  WZ3       587             0.0000000000
     14666      4889  TIP3      H1              5.6823096015      -21.8021857466       -0.9366946635  WZ3       587             0.0000000000
     14667      4889  TIP3      H2              4.4851196015      -21.2847557466       -1.7053846635  WZ3       587             0.0000000000
     14668      4890  TIP3      OH2            -1.6822703985      -27.3236757466       -1.5977246635  WZ3       588             0.0000000000
     14669      4890  TIP3      H1             -0.7683503985      -27.2447857466       -1.3243346635  WZ3       588             0.0000000000
     14670      4890  TIP3      H2             -1.6749603985      -28.0107157466       -2.2641646635  WZ3       588             0.0000000000
     14671      4891  TIP3      OH2            -3.0332103985      -21.9308257466        3.4796653365  WZ3       589             0.0000000000
     14672      4891  TIP3      H1             -3.6805003985      -22.3926557466        2.9467853365  WZ3       589             0.0000000000
     14673      4891  TIP3      H2             -2.6787503985      -22.6024957466        4.0622853365  WZ3       589             0.0000000000
     14674      4892  TIP3      OH2            -2.1632903985      -23.8501257466        5.2842853365  WZ3       590             0.0000000000
     14675      4892  TIP3      H1             -2.4976103985      -24.7303957466        5.4563053365  WZ3       590             0.0000000000
     14676      4892  TIP3      H2             -1.9410503985      -23.5046257466        6.1488453365  WZ3       590             0.0000000000
     14677      4893  TIP3      OH2            15.3851896015      -23.0404857466        8.2647653365  WZ3       591             0.0000000000
     14678      4893  TIP3      H1             15.3638596015      -22.8556457466        9.2037053365  WZ3       591             0.0000000000
     14679      4893  TIP3      H2             16.0758096015      -22.4720857466        7.9239053365  WZ3       591             0.0000000000
     14680      4894  TIP3      OH2            14.9484796015      -23.4733757466       11.1866753365  WZ3       592             0.0000000000
     14681      4894  TIP3      H1             14.4613496015      -24.2089657466       10.8154153365  WZ3       592             0.0000000000
     14682      4894  TIP3      H2             15.4977496015      -23.8669857466       11.8646153365  WZ3       592             0.0000000000
     14683      4895  TIP3      OH2            13.3992096015      -27.6835657466       15.8247053365  WZ3       593             0.0000000000
     14684      4895  TIP3      H1             12.5333196015      -27.7885957466       16.2189353365  WZ3       593             0.0000000000
     14685      4895  TIP3      H2             13.7757996015      -26.9252357466       16.2711753365  WZ3       593             0.0000000000
     14686      4896  TIP3      OH2            14.7001796015      -29.4271957466        1.3389553365  WZ3       594             0.0000000000
     14687      4896  TIP3      H1             15.5503196015      -29.0061057466        1.4661153365  WZ3       594             0.0000000000
     14688      4896  TIP3      H2             14.7056896015      -30.1671857466        1.9460953365  WZ3       594             0.0000000000
     14689      4897  TIP3      OH2            15.0947396015      -31.3734557466        3.1625253365  WZ3       595             0.0000000000
     14690      4897  TIP3      H1             14.3681996015      -31.8531957466        3.5602853365  WZ3       595             0.0000000000
     14691      4897  TIP3      H2             15.6760696015      -31.1679857466        3.8946853365  WZ3       595             0.0000000000
     14692      4898  TIP3      OH2            14.8538596015      -28.5887057466        8.1102853365  WZ3       596             0.0000000000
     14693      4898  TIP3      H1             15.6872796015      -28.9667057466        7.8296453365  WZ3       596             0.0000000000
     14694      4898  TIP3      H2             14.9658896015      -27.6455857466        7.9911953365  WZ3       596             0.0000000000
     14695      4899  TIP3      OH2            13.3400896015      -25.7109557466       10.4171253365  WZ3       597             0.0000000000
     14696      4899  TIP3      H1             12.6926196015      -25.3858057466       11.0426453365  WZ3       597             0.0000000000
     14697      4899  TIP3      H2             12.8224896015      -26.1511857466        9.7429553365  WZ3       597             0.0000000000
     14698      4900  TIP3      OH2            15.3630496015      -31.4726057466       -0.4463446635  WZ3       598             0.0000000000
     14699      4900  TIP3      H1             14.8411596015      -31.1161957466       -1.1652546635  WZ3       598             0.0000000000
     14700      4900  TIP3      H2             15.3299696015      -30.7978257466        0.2317453365  WZ3       598             0.0000000000
     14701      4901  TIP3      OH2            13.7119496015      -34.2330457466       -1.8956346635  WZ3       599             0.0000000000
     14702      4901  TIP3      H1             13.8083896015      -33.5663457466       -2.5756646635  WZ3       599             0.0000000000
     14703      4901  TIP3      H2             13.5719096015      -35.0484157466       -2.3770846635  WZ3       599             0.0000000000
     14704      4902  TIP3      OH2            12.8814196015      -32.8528057466        3.7253953365  WZ3       600             0.0000000000
     14705      4902  TIP3      H1             12.7312996015      -33.7979457466        3.7051753365  WZ3       600             0.0000000000
     14706      4902  TIP3      H2             12.5278696015      -32.5716657466        4.5693053365  WZ3       600             0.0000000000
     14707      4903  TIP3      OH2            -2.0833403985      -30.7745857466        7.7357753365  WZ3       601             0.0000000000
     14708      4903  TIP3      H1             -1.8990503985      -30.8564157466        6.8000653365  WZ3       601             0.0000000000
     14709      4903  TIP3      H2             -1.2340503985      -30.8988857466        8.1594153365  WZ3       601             0.0000000000
     14710      4904  TIP3      OH2            13.7377096015      -30.8824757466       13.3642253365  WZ3       602             0.0000000000
     14711      4904  TIP3      H1             14.3204396015      -31.6172457466       13.5559453365  WZ3       602             0.0000000000
     14712      4904  TIP3      H2             14.3016396015      -30.1104457466       13.4108053365  WZ3       602             0.0000000000
     14713      4905  TIP3      OH2            15.2344196015      -32.9798957466       14.0487653365  WZ3       603             0.0000000000
     14714      4905  TIP3      H1             14.3710896015      -33.3586857466       13.8832353365  WZ3       603             0.0000000000
     14715      4905  TIP3      H2             15.8387896015      -33.7184157466       13.9743453365  WZ3       603             0.0000000000
     14716      4906  TIP3      OH2            12.5918996015      -35.2702257466        2.1879053365  WZ3       605             0.0000000000
     14717      4906  TIP3      H1             12.8716096015      -36.1771857466        2.3120753365  WZ3       605             0.0000000000
     14718      4906  TIP3      H2             13.3510696015      -34.8360757466        1.7988253365  WZ3       605             0.0000000000
     14719      4907  TIP3      OH2            13.2037296015      -34.6884857466        7.6237953365  WZ3       606             0.0000000000
     14720      4907  TIP3      H1             14.1365296015      -34.4764957466        7.5893953365  WZ3       606             0.0000000000
     14721      4907  TIP3      H2             12.9684796015      -34.5872757466        8.5460953365  WZ3       606             0.0000000000
     14722      4908  TIP3      OH2            13.2329196015      -33.9519557466       10.3997353365  WZ3       607             0.0000000000
     14723      4908  TIP3      H1             12.3900496015      -33.6839157466       10.7657153365  WZ3       607             0.0000000000
     14724      4908  TIP3      H2             13.6753496015      -33.1297657466       10.1888453365  WZ3       607             0.0000000000
     14725      4909  TIP3      OH2            -2.4858603985      -35.5040857466       13.8766553365  WZ3       608             0.0000000000
     14726      4909  TIP3      H1             -1.5663703985      -35.6262557466       14.1129653365  WZ3       608             0.0000000000
     14727      4909  TIP3      H2             -2.9354103985      -36.2541157466       14.2660053365  WZ3       608             0.0000000000
     14728      4910  TIP3      OH2            -2.9605803985      -34.1926257466        7.8369653365  WZ3       612             0.0000000000
     14729      4910  TIP3      H1             -2.4686003985      -34.4135757466        7.0461653365  WZ3       612             0.0000000000
     14730      4910  TIP3      H2             -2.5984903985      -33.3522857466        8.1179153365  WZ3       612             0.0000000000
     14731      4911  TIP3      OH2            12.1237896015      -22.9505457466        3.8369453365  WZ3       616             0.0000000000
     14732      4911  TIP3      H1             12.7760796015      -23.2983357466        3.2288553365  WZ3       616             0.0000000000
     14733      4911  TIP3      H2             12.6341696015      -22.4622257466        4.4829153365  WZ3       616             0.0000000000
     14734      4912  TIP3      OH2            -0.4914603985      -26.0214057466       14.3800353365  WZ3       618             0.0000000000
     14735      4912  TIP3      H1             -1.3122103985      -25.8467557466       13.9195053365  WZ3       618             0.0000000000
     14736      4912  TIP3      H2             -0.7436803985      -26.0949357466       15.3004753365  WZ3       618             0.0000000000
     14737      4913  TIP3      OH2             2.4628296015      -25.0472857466       10.6384353365  WZ3       619             0.0000000000
     14738      4913  TIP3      H1              2.0379396015      -24.2374357466       10.3558953365  WZ3       619             0.0000000000
     14739      4913  TIP3      H2              3.3671096015      -24.9618757466       10.3364153365  WZ3       619             0.0000000000
     14740      4914  TIP3      OH2             6.7739696015      -23.6482857466       13.5978053365  WZ3       620             0.0000000000
     14741      4914  TIP3      H1              6.9587196015      -23.9816757466       14.4758353365  WZ3       620             0.0000000000
     14742      4914  TIP3      H2              7.6204196015      -23.3384257466       13.2757253365  WZ3       620             0.0000000000
     14743      4915  TIP3      OH2             9.1190096015      -22.3623957466       12.8419453365  WZ3       621             0.0000000000
     14744      4915  TIP3      H1              9.7958996015      -22.9951657466       12.6018653365  WZ3       621             0.0000000000
     14745      4915  TIP3      H2              9.4408896015      -21.9613457466       13.6492753365  WZ3       621             0.0000000000
     14746      4916  TIP3      OH2            -0.1355003985      -21.7908957466       10.6859653365  WZ3       623             0.0000000000
     14747      4916  TIP3      H1             -0.8558603985      -21.3507957466       10.2347353365  WZ3       623             0.0000000000
     14748      4916  TIP3      H2             -0.5011003985      -22.0414257466       11.5343653365  WZ3       623             0.0000000000
     14749      4917  TIP3      OH2             2.3317596015      -22.1905057466        9.7156853365  WZ3       624             0.0000000000
     14750      4917  TIP3      H1              1.4669796015      -22.1186557466       10.1196953365  WZ3       624             0.0000000000
     14751      4917  TIP3      H2              2.2766596015      -21.6437757466        8.9319353365  WZ3       624             0.0000000000
     14752      4918  TIP3      OH2             7.0423196015      -22.3026157466        8.8912853365  WZ3       625             0.0000000000
     14753      4918  TIP3      H1              6.5857196015      -21.7736457466        8.2371253365  WZ3       625             0.0000000000
     14754      4918  TIP3      H2              7.2051196015      -21.6994757466        9.6165153365  WZ3       625             0.0000000000
     14755      4919  TIP3      OH2             9.3699496015      -23.4246557466        9.8363153365  WZ3       626             0.0000000000
     14756      4919  TIP3      H1              8.4653196015      -23.2596357466        9.5705253365  WZ3       626             0.0000000000
     14757      4919  TIP3      H2              9.7988096015      -22.5714357466        9.7706553365  WZ3       626             0.0000000000
     14758      4920  TIP3      OH2            11.9741396015      -21.8547457466       10.1310953365  WZ3       627             0.0000000000
     14759      4920  TIP3      H1             11.7923396015      -20.9388557466        9.9205853365  WZ3       627             0.0000000000
     14760      4920  TIP3      H2             12.1509196015      -22.2650357466        9.2845553365  WZ3       627             0.0000000000
     14761      4921  TIP3      OH2            -0.7206903985      -23.1676457466        7.5961453365  WZ3       628             0.0000000000
     14762      4921  TIP3      H1             -0.7390903985      -23.5931357466        8.4533753365  WZ3       628             0.0000000000
     14763      4921  TIP3      H2              0.0840996015      -23.4861457466        7.1873653365  WZ3       628             0.0000000000
     14764      4922  TIP3      OH2             1.4206196015      -24.4577757466        6.2511353365  WZ3       629             0.0000000000
     14765      4922  TIP3      H1              1.2016896015      -25.3740357466        6.4207353365  WZ3       629             0.0000000000
     14766      4922  TIP3      H2              2.2448396015      -24.3177357466        6.7172753365  WZ3       629             0.0000000000
     14767      4923  TIP3      OH2             3.9578696015      -23.9878457466        7.0999353365  WZ3       630             0.0000000000
     14768      4923  TIP3      H1              4.1704396015      -24.8759457466        6.8130253365  WZ3       630             0.0000000000
     14769      4923  TIP3      H2              4.0223796015      -24.0220757466        8.0543353365  WZ3       630             0.0000000000
     14770      4924  TIP3      OH2            -1.4697203985      -23.9437257466        0.7673753365  WZ3       639             0.0000000000
     14771      4924  TIP3      H1             -2.1547303985      -23.9818357466        0.0998853365  WZ3       639             0.0000000000
     14772      4924  TIP3      H2             -1.4660003985      -23.0309657466        1.0555853365  WZ3       639             0.0000000000
     14773      4925  TIP3      OH2             7.3946296015      -22.7342357466       -0.8350046635  WZ3       642             0.0000000000
     14774      4925  TIP3      H1              8.2606496015      -22.3674957466       -1.0131846635  WZ3       642             0.0000000000
     14775      4925  TIP3      H2              7.1479096015      -23.1734357466       -1.6489246635  WZ3       642             0.0000000000
     14776      4926  TIP3      OH2            14.1035896015      -23.1712057466        1.8441053365  WZ3       643             0.0000000000
     14777      4926  TIP3      H1             13.9092996015      -23.9189957466        1.2790653365  WZ3       643             0.0000000000
     14778      4926  TIP3      H2             14.0645996015      -22.4131957466        1.2608953365  WZ3       643             0.0000000000
     14779      4927  TIP3      OH2             0.3483996015      -23.0236457466       -2.2074146635  WZ3       646             0.0000000000
     14780      4927  TIP3      H1              0.0808596015      -22.7373557466       -1.3341046635  WZ3       646             0.0000000000
     14781      4927  TIP3      H2              1.1196596015      -23.5697257466       -2.0551646635  WZ3       646             0.0000000000
     14782      4928  TIP3      OH2            13.3212096015      -24.4199657466       13.9942853365  WZ3       648             0.0000000000
     14783      4928  TIP3      H1             12.5393996015      -24.6061657466       13.4743453365  WZ3       648             0.0000000000
     14784      4928  TIP3      H2             13.2491996015      -23.4905357466       14.2115353365  WZ3       648             0.0000000000
     14785      4929  TIP3      OH2            27.7272496015      -30.5335257466        4.0250053365  WZ3       649             0.0000000000
     14786      4929  TIP3      H1             27.8163596015      -29.5897057466        3.8927153365  WZ3       649             0.0000000000
     14787      4929  TIP3      H2             27.0890096015      -30.8088857466        3.3669453365  WZ3       649             0.0000000000
     14788      4930  TIP3      OH2            26.6603796015      -31.2784557466        7.4438253365  WZ3       650             0.0000000000
     14789      4930  TIP3      H1             26.6221296015      -31.9248257466        8.1487853365  WZ3       650             0.0000000000
     14790      4930  TIP3      H2             26.3380296015      -31.7450157466        6.6726953365  WZ3       650             0.0000000000
     14791      4931  TIP3      OH2            19.0288796015      -31.6642457466        9.0368153365  WZ3       651             0.0000000000
     14792      4931  TIP3      H1             19.0700896015      -32.2899157466        9.7600553365  WZ3       651             0.0000000000
     14793      4931  TIP3      H2             19.7316496015      -31.0403857466        9.2188553365  WZ3       651             0.0000000000
     14794      4932  TIP3      OH2            19.9521896015      -27.2143557466        7.5717253365  WZ3       653             0.0000000000
     14795      4932  TIP3      H1             19.5827096015      -28.0163057466        7.2021553365  WZ3       653             0.0000000000
     14796      4932  TIP3      H2             20.8932996015      -27.3828657466        7.6180653365  WZ3       653             0.0000000000
     14797      4933  TIP3      OH2            16.5622396015      -33.5540957466        2.9646053365  WZ3       654             0.0000000000
     14798      4933  TIP3      H1             16.1145796015      -32.7082257466        2.9462553365  WZ3       654             0.0000000000
     14799      4933  TIP3      H2             16.0013596015      -34.1336757466        2.4491153365  WZ3       654             0.0000000000
     14800      4934  TIP3      OH2            17.2728496015      -31.3921357466        5.0904053365  WZ3       655             0.0000000000
     14801      4934  TIP3      H1             17.4861996015      -32.1619757466        5.6177053365  WZ3       655             0.0000000000
     14802      4934  TIP3      H2             18.0106096015      -31.3024657466        4.4871653365  WZ3       655             0.0000000000
     14803      4935  TIP3      OH2            27.4779496015      -23.2352457466        5.9573753365  WZ3       656             0.0000000000
     14804      4935  TIP3      H1             28.0975896015      -23.9117757466        5.6842953365  WZ3       656             0.0000000000
     14805      4935  TIP3      H2             27.2696896015      -23.4531657466        6.8658653365  WZ3       656             0.0000000000
     14806      4936  TIP3      OH2            25.0498196015      -28.8463157466        7.8499253365  WZ3       657             0.0000000000
     14807      4936  TIP3      H1             25.3536096015      -29.5321757466        7.2553353365  WZ3       657             0.0000000000
     14808      4936  TIP3      H2             25.7712196015      -28.7274457466        8.4677253365  WZ3       657             0.0000000000
     14809      4937  TIP3      OH2            21.3453496015      -36.3504357466        5.4498853365  WZ3       660             0.0000000000
     14810      4937  TIP3      H1             21.3884596015      -35.4905857466        5.0315153365  WZ3       660             0.0000000000
     14811      4937  TIP3      H2             20.8877596015      -36.9029657466        4.8162053365  WZ3       660             0.0000000000
     14812      4938  TIP3      OH2            17.9654996015      -33.9538557466        6.2120253365  WZ3       662             0.0000000000
     14813      4938  TIP3      H1             18.6191596015      -34.5036857466        6.6440353365  WZ3       662             0.0000000000
     14814      4938  TIP3      H2             17.9894296015      -34.2279557466        5.2952253365  WZ3       662             0.0000000000
     14815      4939  TIP3      OH2            23.1219496015      -32.4037257466        5.4271753365  WZ3       663             0.0000000000
     14816      4939  TIP3      H1             23.7380496015      -32.9301857466        5.9365753365  WZ3       663             0.0000000000
     14817      4939  TIP3      H2             22.5358296015      -33.0438557466        5.0235353365  WZ3       663             0.0000000000
     14818      4940  TIP3      OH2            27.5245196015      -27.9324857466        3.0678753365  WZ3       666             0.0000000000
     14819      4940  TIP3      H1             27.2290296015      -28.2552557466        2.2165653365  WZ3       666             0.0000000000
     14820      4940  TIP3      H2             27.2002996015      -27.0328157466        3.1091353365  WZ3       666             0.0000000000
     14821      4941  TIP3      OH2            22.7246796015      -29.7570257466        9.8113353365  WZ3       667             0.0000000000
     14822      4941  TIP3      H1             21.9845896015      -29.1588757466        9.9148553365  WZ3       667             0.0000000000
     14823      4941  TIP3      H2             23.4386296015      -29.2030657466        9.4956953365  WZ3       667             0.0000000000
     14824      4942  TIP3      OH2            19.7492696015      -35.5404157466        7.4761853365  WZ3       669             0.0000000000
     14825      4942  TIP3      H1             20.3628996015      -34.9076557466        7.8494253365  WZ3       669             0.0000000000
     14826      4942  TIP3      H2             20.2613396015      -36.0129157466        6.8198753365  WZ3       669             0.0000000000
     14827      4943  TIP3      OH2            21.1321096015      -27.7927257466       10.5984853365  WZ3       670             0.0000000000
     14828      4943  TIP3      H1             21.1268696015      -26.9133757466       10.2204153365  WZ3       670             0.0000000000
     14829      4943  TIP3      H2             20.2785196015      -27.8763157466       11.0234753365  WZ3       670             0.0000000000
     14830      4944  TIP3      OH2            17.2531996015      -28.1219357466        1.3804153365  WZ3       671             0.0000000000
     14831      4944  TIP3      H1             16.9812896015      -27.8928357466        0.4917053365  WZ3       671             0.0000000000
     14832      4944  TIP3      H2             17.2987696015      -27.2840557466        1.8409453365  WZ3       671             0.0000000000
     14833      4945  TIP3      OH2            29.1302896015      -24.7189957466        4.7184253365  WZ3       675             0.0000000000
     14834      4945  TIP3      H1             29.5555196015      -25.4262057466        4.2333853365  WZ3       675             0.0000000000
     14835      4945  TIP3      H2             29.4472896015      -23.9177257466        4.3016453365  WZ3       675             0.0000000000
     14836      4946  TIP3      OH2            26.4484996015      -31.2895257466        1.4770353365  WZ3       678             0.0000000000
     14837      4946  TIP3      H1             25.7370496015      -30.7545557466        1.1250853365  WZ3       678             0.0000000000
     14838      4946  TIP3      H2             27.1394596015      -31.2343157466        0.8169253365  WZ3       678             0.0000000000
     14839      4947  TIP3      OH2            26.5024196015      -32.8320957466       -1.4844646635  WZ3       679             0.0000000000
     14840      4947  TIP3      H1             27.2034096015      -32.8094057466       -0.8330646635  WZ3       679             0.0000000000
     14841      4947  TIP3      H2             26.8047096015      -33.4601257466       -2.1405346635  WZ3       679             0.0000000000
     14842      4948  TIP3      OH2            21.4996396015      -30.4495757466        4.3111253365  WZ3       683             0.0000000000
     14843      4948  TIP3      H1             21.1691596015      -30.8202357466        3.4928253365  WZ3       683             0.0000000000
     14844      4948  TIP3      H2             22.0880496015      -31.1201757466        4.6579553365  WZ3       683             0.0000000000
     14845      4949  TIP3      OH2            22.8663896015      -27.0215157466        6.9923453365  WZ3       684             0.0000000000
     14846      4949  TIP3      H1             22.7715196015      -27.6002057466        6.2358053365  WZ3       684             0.0000000000
     14847      4949  TIP3      H2             23.5957496015      -27.3929457466        7.4886253365  WZ3       684             0.0000000000
     14848      4950  TIP3      OH2            21.8661896015      -31.6810157466        7.9446253365  WZ3       685             0.0000000000
     14849      4950  TIP3      H1             22.4314396015      -31.5595957466        7.1817453365  WZ3       685             0.0000000000
     14850      4950  TIP3      H2             22.1850796015      -31.0435157466        8.5834753365  WZ3       685             0.0000000000
     14851      4951  TIP3      OH2            28.1754096015      -26.1778257466        8.6786753365  WZ3       686             0.0000000000
     14852      4951  TIP3      H1             27.9350696015      -25.5155157466        9.3265953365  WZ3       686             0.0000000000
     14853      4951  TIP3      H2             27.9772296015      -27.0123057466        9.1036353365  WZ3       686             0.0000000000
     14854      4952  TIP3      OH2            22.7462596015      -27.2817457466       12.6618153365  WZ3       687             0.0000000000
     14855      4952  TIP3      H1             22.4350096015      -26.4994257466       13.1171353365  WZ3       687             0.0000000000
     14856      4952  TIP3      H2             22.0962796015      -27.4348357466       11.9760153365  WZ3       687             0.0000000000
     14857      4953  TIP3      OH2            19.6662496015      -31.0836357466       11.8903853365  WZ3       689             0.0000000000
     14858      4953  TIP3      H1             19.7365696015      -30.4329557466       12.5888853365  WZ3       689             0.0000000000
     14859      4953  TIP3      H2             18.7754696015      -30.9808857466       11.5554753365  WZ3       689             0.0000000000
     14860      4954  TIP3      OH2            26.4517096015      -25.1810557466        3.5490553365  WZ3       690             0.0000000000
     14861      4954  TIP3      H1             26.9254696015      -24.8854257466        4.3264753365  WZ3       690             0.0000000000
     14862      4954  TIP3      H2             25.8886396015      -24.4428957466        3.3160153365  WZ3       690             0.0000000000
     14863      4955  TIP3      OH2            20.9858496015      -25.2102457466       13.4251953365  WZ3       691             0.0000000000
     14864      4955  TIP3      H1             20.9933796015      -25.3462757466       12.4777453365  WZ3       691             0.0000000000
     14865      4955  TIP3      H2             20.0698896015      -25.3274357466       13.6771953365  WZ3       691             0.0000000000
     14866      4956  TIP3      OH2            20.4899096015      -31.3801457466        1.9004053365  WZ3       693             0.0000000000
     14867      4956  TIP3      H1             20.1980396015      -30.6119757466        1.4095353365  WZ3       693             0.0000000000
     14868      4956  TIP3      H2             19.8154296015      -32.0395257466        1.7375453365  WZ3       693             0.0000000000
     14869      4957  TIP3      OH2            16.5829196015      -29.0172257466       10.7153853365  WZ3       695             0.0000000000
     14870      4957  TIP3      H1             16.0817596015      -29.0452857466        9.9003553365  WZ3       695             0.0000000000
     14871      4957  TIP3      H2             16.5882896015      -29.9229057466       11.0251153365  WZ3       695             0.0000000000
     14872      4958  TIP3      OH2            16.3331896015      -26.2368457466        7.5994053365  WZ3       696             0.0000000000
     14873      4958  TIP3      H1             17.2792496015      -26.3811457466        7.5803553365  WZ3       696             0.0000000000
     14874      4958  TIP3      H2             16.2208196015      -25.4525657466        8.1365253365  WZ3       696             0.0000000000
     14875      4959  TIP3      OH2            25.5094396015      -25.9969557466       12.1579153365  WZ3       698             0.0000000000
     14876      4959  TIP3      H1             25.5968996015      -25.1704957466       12.6328253365  WZ3       698             0.0000000000
     14877      4959  TIP3      H2             24.6459496015      -26.3265757466       12.4068453365  WZ3       698             0.0000000000
     14878      4960  TIP3      OH2            25.9240196015      -22.2245857466        1.9639753365  WZ3       699             0.0000000000
     14879      4960  TIP3      H1             25.8486196015      -22.3458657466        1.0174953365  WZ3       699             0.0000000000
     14880      4960  TIP3      H2             25.9568896015      -21.2753157466        2.0824353365  WZ3       699             0.0000000000
     14881      4961  TIP3      OH2            19.5773996015      -23.4358857466        3.7448753365  WZ3       700             0.0000000000
     14882      4961  TIP3      H1             19.7294396015      -23.7838457466        4.6235253365  WZ3       700             0.0000000000
     14883      4961  TIP3      H2             18.7264396015      -23.7921557466        3.4895953365  WZ3       700             0.0000000000
     14884      4962  TIP3      OH2            29.0256196015      -23.0705657466       -1.0337846635  WZ3       701             0.0000000000
     14885      4962  TIP3      H1             29.4004596015      -23.8149557466       -1.5045246635  WZ3       701             0.0000000000
     14886      4962  TIP3      H2             29.0299896015      -23.3405057466       -0.1154546635  WZ3       701             0.0000000000
     14887      4963  TIP3      OH2            28.6944296015      -23.1448557466        1.7154353365  WZ3       702             0.0000000000
     14888      4963  TIP3      H1             27.7594096015      -23.0446657466        1.8941353365  WZ3       702             0.0000000000
     14889      4963  TIP3      H2             28.9746196015      -23.8542557466        2.2937553365  WZ3       702             0.0000000000
     14890      4964  TIP3      OH2            18.8319696015      -27.6936857466       11.7586653365  WZ3       704             0.0000000000
     14891      4964  TIP3      H1             19.0480996015      -28.0551257466       12.6182453365  WZ3       704             0.0000000000
     14892      4964  TIP3      H2             17.9764396015      -28.0683057466       11.5490153365  WZ3       704             0.0000000000
     14893      4965  TIP3      OH2            21.5417796015      -34.2581857466        8.8491053365  WZ3       710             0.0000000000
     14894      4965  TIP3      H1             20.8999896015      -34.2984557466        9.5581153365  WZ3       710             0.0000000000
     14895      4965  TIP3      H2             21.5789796015      -33.3317157466        8.6114053365  WZ3       710             0.0000000000
     14896      4966  TIP3      OH2            21.5386896015      -34.0371757466        3.7611053365  WZ3       711             0.0000000000
     14897      4966  TIP3      H1             20.6459796015      -34.3775657466        3.7024853365  WZ3       711             0.0000000000
     14898      4966  TIP3      H2             21.9893496015      -34.4140857466        3.0054253365  WZ3       711             0.0000000000
     14899      4967  TIP3      OH2            27.0742396015      -33.6211457466        2.5781853365  WZ3       712             0.0000000000
     14900      4967  TIP3      H1             26.6652696015      -32.8062857466        2.2866653365  WZ3       712             0.0000000000
     14901      4967  TIP3      H2             27.7948596015      -33.7611357466        1.9638953365  WZ3       712             0.0000000000
     14902      4968  TIP3      OH2            26.1763996015      -33.4455057466       14.0662553365  WZ3       713             0.0000000000
     14903      4968  TIP3      H1             25.6137796015      -34.1503457466       14.3870353365  WZ3       713             0.0000000000
     14904      4968  TIP3      H2             27.0027396015      -33.5663157466       14.5340153365  WZ3       713             0.0000000000
     14905      4969  TIP3      OH2            19.2918296015      -33.9378357466       10.7163053365  WZ3       715             0.0000000000
     14906      4969  TIP3      H1             19.2537696015      -33.5376757466       11.5850153365  WZ3       715             0.0000000000
     14907      4969  TIP3      H2             18.8009396015      -34.7545957466       10.8065953365  WZ3       715             0.0000000000
     14908      4970  TIP3      OH2            22.6575696015      -36.5636057466       -2.4850946635  WZ3       716             0.0000000000
     14909      4970  TIP3      H1             22.2266396015      -37.0085957466       -1.7553546635  WZ3       716             0.0000000000
     14910      4970  TIP3      H2             21.9394396015      -36.1919757466       -2.9973446635  WZ3       716             0.0000000000
     14911      4971  TIP3      OH2            17.1741196015      -36.0754557466       -0.0091846635  WZ3       718             0.0000000000
     14912      4971  TIP3      H1             17.6482896015      -35.4844657466       -0.5940946635  WZ3       718             0.0000000000
     14913      4971  TIP3      H2             16.4567596015      -35.5451657466        0.3378253365  WZ3       718             0.0000000000
     14914      4972  TIP3      OH2            27.3429296015      -32.5369757466       10.0633953365  WZ3       719             0.0000000000
     14915      4972  TIP3      H1             27.6664096015      -33.1680057466        9.4204453365  WZ3       719             0.0000000000
     14916      4972  TIP3      H2             26.9028596015      -33.0717557466       10.7241353365  WZ3       719             0.0000000000
     14917      4973  TIP3      OH2            24.1202196015      -36.6094257466        4.8475153365  WZ3       720             0.0000000000
     14918      4973  TIP3      H1             23.2093296015      -36.5527457466        5.1361153365  WZ3       720             0.0000000000
     14919      4973  TIP3      H2             24.6255096015      -36.6698757466        5.6582353365  WZ3       720             0.0000000000
     14920      4974  TIP3      OH2            18.9485596015      -34.9807957466        3.6742753365  WZ3       721             0.0000000000
     14921      4974  TIP3      H1             18.0593596015      -34.8812457466        3.3342353365  WZ3       721             0.0000000000
     14922      4974  TIP3      H2             19.2450496015      -35.8224957466        3.3280653365  WZ3       721             0.0000000000
     14923      4975  TIP3      OH2            22.6017396015      -34.9805357466        1.3307353365  WZ3       722             0.0000000000
     14924      4975  TIP3      H1             23.5332896015      -34.8515357466        1.5090453365  WZ3       722             0.0000000000
     14925      4975  TIP3      H2             22.3867696015      -34.3111057466        0.6812053365  WZ3       722             0.0000000000
     14926      4976  TIP3      OH2            21.2757596015      -33.7863157466       -1.1026546635  WZ3       724             0.0000000000
     14927      4976  TIP3      H1             20.7332696015      -34.1659357466       -1.7938946635  WZ3       724             0.0000000000
     14928      4976  TIP3      H2             22.1092496015      -33.5918457466       -1.5312446635  WZ3       724             0.0000000000
     14929      4977  TIP3      OH2            19.4108996015      -29.2291257466       13.9965053365  WZ3       726             0.0000000000
     14930      4977  TIP3      H1             20.1431396015      -28.9745357466       14.5579553365  WZ3       726             0.0000000000
     14931      4977  TIP3      H2             18.6307696015      -29.0245857466       14.5120453365  WZ3       726             0.0000000000
     14932      4978  TIP3      OH2            25.4401896015      -33.8221257466        6.7344753365  WZ3       727             0.0000000000
     14933      4978  TIP3      H1             26.0045296015      -34.3684657466        6.1874353365  WZ3       727             0.0000000000
     14934      4978  TIP3      H2             25.2925296015      -34.3439357466        7.5232353365  WZ3       727             0.0000000000
     14935      4979  TIP3      OH2            24.0667796015      -35.4335157466        9.1485153365  WZ3       729             0.0000000000
     14936      4979  TIP3      H1             23.2313096015      -34.9795657466        9.2587553365  WZ3       729             0.0000000000
     14937      4979  TIP3      H2             24.5908396015      -35.1576657466        9.9005053365  WZ3       729             0.0000000000
     14938      4980  TIP3      OH2            24.6110396015      -29.2207457466        0.8331553365  WZ3       730             0.0000000000
     14939      4980  TIP3      H1             23.8661396015      -29.7282157466        0.5109453365  WZ3       730             0.0000000000
     14940      4980  TIP3      H2             24.4767596015      -29.1719457466        1.7796353365  WZ3       730             0.0000000000
     14941      4981  TIP3      OH2            26.1302496015      -29.0364157466       12.0700653365  WZ3       733             0.0000000000
     14942      4981  TIP3      H1             25.7848596015      -29.4181757466       12.8770253365  WZ3       733             0.0000000000
     14943      4981  TIP3      H2             25.9302596015      -28.1030557466       12.1413553365  WZ3       733             0.0000000000
     14944      4982  TIP3      OH2            19.7358696015      -29.9257457466        6.6029453365  WZ3       735             0.0000000000
     14945      4982  TIP3      H1             20.4805896015      -29.9281757466        6.0015953365  WZ3       735             0.0000000000
     14946      4982  TIP3      H2             19.8135296015      -30.7493657466        7.0844553365  WZ3       735             0.0000000000
     14947      4983  TIP3      OH2            26.7364496015      -27.7623157466       -0.1413846635  WZ3       736             0.0000000000
     14948      4983  TIP3      H1             26.4412896015      -26.9355257466        0.2400953365  WZ3       736             0.0000000000
     14949      4983  TIP3      H2             26.0334496015      -28.3816257466        0.0547553365  WZ3       736             0.0000000000
     14950      4984  TIP3      OH2            16.7438396015      -31.4650557466       11.9177953365  WZ3       737             0.0000000000
     14951      4984  TIP3      H1             16.9666996015      -31.8830957466       12.7495453365  WZ3       737             0.0000000000
     14952      4984  TIP3      H2             16.1418496015      -32.0775557466       11.4950753365  WZ3       737             0.0000000000
     14953      4985  TIP3      OH2            23.7603296015      -31.9480657466       14.1307653365  WZ3       738             0.0000000000
     14954      4985  TIP3      H1             23.4644096015      -32.1137657466       13.2356753365  WZ3       738             0.0000000000
     14955      4985  TIP3      H2             24.6918496015      -32.1680357466       14.1201553365  WZ3       738             0.0000000000
     14956      4986  TIP3      OH2            28.3806096015      -26.5748657466       12.0205653365  WZ3       739             0.0000000000
     14957      4986  TIP3      H1             27.4800396015      -26.3916057466       11.7529553365  WZ3       739             0.0000000000
     14958      4986  TIP3      H2             28.4147196015      -26.3159357466       12.9414453365  WZ3       739             0.0000000000
     14959      4987  TIP3      OH2            22.1108096015      -26.4079257466        4.0070953365  WZ3       744             0.0000000000
     14960      4987  TIP3      H1             22.6380296015      -25.6344857466        3.8069753365  WZ3       744             0.0000000000
     14961      4987  TIP3      H2             21.2306596015      -26.1830057466        3.7054953365  WZ3       744             0.0000000000
     14962      4988  TIP3      OH2            17.8655796015      -31.5455157466       -1.4056646635  WZ3       745             0.0000000000
     14963      4988  TIP3      H1             18.4815696015      -30.9187957466       -1.0261846635  WZ3       745             0.0000000000
     14964      4988  TIP3      H2             17.0038396015      -31.2295357466       -1.1340146635  WZ3       745             0.0000000000
     14965      4989  TIP3      OH2            23.5380396015      -28.7449357466        3.5835253365  WZ3       746             0.0000000000
     14966      4989  TIP3      H1             23.2970396015      -27.8194957466        3.6250553365  WZ3       746             0.0000000000
     14967      4989  TIP3      H2             22.7973996015      -29.2038057466        3.9799153365  WZ3       746             0.0000000000
     14968      4990  TIP3      OH2            24.0526996015      -24.5955757466        9.8986353365  WZ3       747             0.0000000000
     14969      4990  TIP3      H1             24.4151696015      -23.7410157466        9.6650753365  WZ3       747             0.0000000000
     14970      4990  TIP3      H2             24.5842196015      -24.8874157466       10.6392653365  WZ3       747             0.0000000000
     14971      4991  TIP3      OH2            22.2211196015      -23.7231757466        3.1287453365  WZ3       748             0.0000000000
     14972      4991  TIP3      H1             21.2711696015      -23.6174357466        3.1800753365  WZ3       748             0.0000000000
     14973      4991  TIP3      H2             22.5729296015      -22.9024357466        3.4734953365  WZ3       748             0.0000000000
     14974      4992  TIP3      OH2            27.5967796015      -28.4965057466        9.5991953365  WZ3       749             0.0000000000
     14975      4992  TIP3      H1             27.1709096015      -28.7243357466       10.4255953365  WZ3       749             0.0000000000
     14976      4992  TIP3      H2             28.1773596015      -29.2353257466        9.4167253365  WZ3       749             0.0000000000
     14977      4993  TIP3      OH2            30.2551996015      -23.9445557466       12.0686753365  WZ3       751             0.0000000000
     14978      4993  TIP3      H1             29.6535196015      -24.5002657466       11.5733053365  WZ3       751             0.0000000000
     14979      4993  TIP3      H2             30.5365696015      -23.2775757466       11.4424153365  WZ3       751             0.0000000000
     14980      4994  TIP3      OH2            18.3777896015      -36.7117857466       11.4759353365  WZ3       753             0.0000000000
     14981      4994  TIP3      H1             17.4850196015      -36.3732457466       11.4083353365  WZ3       753             0.0000000000
     14982      4994  TIP3      H2             18.2790696015      -37.5671757466       11.8940153365  WZ3       753             0.0000000000
     14983      4995  TIP3      OH2            18.0289896015      -24.9073457466        9.9108753365  WZ3       755             0.0000000000
     14984      4995  TIP3      H1             18.2460196015      -25.8391057466        9.8798453365  WZ3       755             0.0000000000
     14985      4995  TIP3      H2             18.2753396015      -24.6328457466       10.7941553365  WZ3       755             0.0000000000
     14986      4996  TIP3      OH2            23.8904496015      -26.4558457466       -2.8799046635  WZ3       756             0.0000000000
     14987      4996  TIP3      H1             24.1294296015      -27.2040357466       -3.4270146635  WZ3       756             0.0000000000
     14988      4996  TIP3      H2             23.6215796015      -26.8436757466       -2.0471246635  WZ3       756             0.0000000000
     14989      4997  TIP3      OH2            22.8275096015      -26.8854657466       -0.4236446635  WZ3       757             0.0000000000
     14990      4997  TIP3      H1             22.9743096015      -27.4054857466        0.3664453365  WZ3       757             0.0000000000
     14991      4997  TIP3      H2             22.8246796015      -25.9787057466       -0.1170546635  WZ3       757             0.0000000000
     14992      4998  TIP3      OH2            19.2806196015      -29.6331357466        0.0868953365  WZ3       758             0.0000000000
     14993      4998  TIP3      H1             18.5945496015      -29.2808857466        0.6538653365  WZ3       758             0.0000000000
     14994      4998  TIP3      H2             19.8034096015      -28.8701757466       -0.1596746635  WZ3       758             0.0000000000
     14995      4999  TIP3      OH2            25.5652296015      -25.1881057466        0.3257753365  WZ3       761             0.0000000000
     14996      4999  TIP3      H1             24.7488396015      -24.6911357466        0.3782053365  WZ3       761             0.0000000000
     14997      4999  TIP3      H2             26.0948596015      -24.7127557466       -0.3143446635  WZ3       761             0.0000000000
     14998      5000  TIP3      OH2            25.0966096015      -35.5907057466        2.2978653365  WZ3       762             0.0000000000
     14999      5000  TIP3      H1             25.9088696015      -35.0863857466        2.3440353365  WZ3       762             0.0000000000
     15000      5000  TIP3      H2             24.8519096015      -35.7357357466        3.2118253365  WZ3       762             0.0000000000
     15001      5001  TIP3      OH2            25.6322496015      -34.6044357466       11.4825253365  WZ3       763             0.0000000000
     15002      5001  TIP3      H1             25.7512796015      -34.0308957466       12.2395653365  WZ3       763             0.0000000000
     15003      5001  TIP3      H2             26.2877096015      -35.2924957466       11.5973053365  WZ3       763             0.0000000000
     15004      5002  TIP3      OH2            22.9035396015      -24.1443857466        0.3074653365  WZ3       765             0.0000000000
     15005      5002  TIP3      H1             23.0644096015      -23.3446357466       -0.1932746635  WZ3       765             0.0000000000
     15006      5002  TIP3      H2             22.7063196015      -23.8377857466        1.1925253365  WZ3       765             0.0000000000
     15007      5003  TIP3      OH2            19.8965096015      -27.0192457466       -1.0163246635  WZ3       769             0.0000000000
     15008      5003  TIP3      H1             20.4886596015      -26.3197657466       -0.7400846635  WZ3       769             0.0000000000
     15009      5003  TIP3      H2             20.3558096015      -27.4522957466       -1.7358646635  WZ3       769             0.0000000000
     15010      5004  TIP3      OH2            18.2124296015      -34.3549457466       -1.9003846635  WZ3       770             0.0000000000
     15011      5004  TIP3      H1             18.1676896015      -33.4156357466       -1.7216846635  WZ3       770             0.0000000000
     15012      5004  TIP3      H2             17.3247496015      -34.5904557466       -2.1701746635  WZ3       770             0.0000000000
     15013      5005  TIP3      OH2            17.9509596015      -25.6325757466        2.9332953365  WZ3       773             0.0000000000
     15014      5005  TIP3      H1             17.1188196015      -25.1603057466        2.9604353365  WZ3       773             0.0000000000
     15015      5005  TIP3      H2             18.4967896015      -25.1228157466        2.3346053365  WZ3       773             0.0000000000
     15016      5006  TIP3      OH2            17.2393296015      -23.0202057466       14.2630953365  WZ3       774             0.0000000000
     15017      5006  TIP3      H1             17.7795496015      -23.2368057466       15.0230153365  WZ3       774             0.0000000000
     15018      5006  TIP3      H2             16.7581296015      -23.8256057466       14.0733453365  WZ3       774             0.0000000000
     15019      5007  TIP3      OH2            21.8366696015      -24.1007657466       15.8835153365  WZ3       775             0.0000000000
     15020      5007  TIP3      H1             22.6043896015      -24.5596857466       16.2244353365  WZ3       775             0.0000000000
     15021      5007  TIP3      H2             21.8152896015      -24.3267857466       14.9536353365  WZ3       775             0.0000000000
     15022      5008  TIP3      OH2            25.9286296015      -24.5927057466       -2.7413046635  WZ3       776             0.0000000000
     15023      5008  TIP3      H1             25.2847296015      -25.2238457466       -2.4199346635  WZ3       776             0.0000000000
     15024      5008  TIP3      H2             26.6904596015      -25.1239057466       -2.9729546635  WZ3       776             0.0000000000
     15025      5009  TIP3      OH2            28.4135396015      -25.7206557466       14.6126653365  WZ3       777             0.0000000000
     15026      5009  TIP3      H1             28.0624896015      -26.5773557466       14.8557053365  WZ3       777             0.0000000000
     15027      5009  TIP3      H2             29.1398596015      -25.5779857466       15.2195653365  WZ3       777             0.0000000000
     15028      5010  TIP3      OH2            17.1462796015      -29.2097957466       15.2175253365  WZ3       779             0.0000000000
     15029      5010  TIP3      H1             17.2903296015      -30.1117257466       14.9311953365  WZ3       779             0.0000000000
     15030      5010  TIP3      H2             16.3740196015      -28.9235857466       14.7297553365  WZ3       779             0.0000000000
     15031      5011  TIP3      OH2            21.4876496015      -28.8662257466       -2.6500146635  WZ3       780             0.0000000000
     15032      5011  TIP3      H1             21.5520596015      -29.6602657466       -2.1193746635  WZ3       780             0.0000000000
     15033      5011  TIP3      H2             22.1405696015      -28.9849457466       -3.3398146635  WZ3       780             0.0000000000
     15034      5012  TIP3      OH2            23.8018896015      -29.2399857466       14.6501653365  WZ3       781             0.0000000000
     15035      5012  TIP3      H1             23.4732696015      -28.9691757466       13.7929053365  WZ3       781             0.0000000000
     15036      5012  TIP3      H2             23.9537096015      -30.1810057466       14.5626653365  WZ3       781             0.0000000000
     15037      5013  TIP3      OH2            26.8399896015      -27.8190557466       -2.9142146635  WZ3       782             0.0000000000
     15038      5013  TIP3      H1             26.5713996015      -27.6388457466       -2.0133246635  WZ3       782             0.0000000000
     15039      5013  TIP3      H2             26.6335496015      -28.7444357466       -3.0456346635  WZ3       782             0.0000000000
     15040      5014  TIP3      OH2            17.9789296015      -32.0094657466       14.6374553365  WZ3       784             0.0000000000
     15041      5014  TIP3      H1             18.3870496015      -32.8668057466       14.5165153365  WZ3       784             0.0000000000
     15042      5014  TIP3      H2             17.7186896015      -31.9953357466       15.5584853365  WZ3       784             0.0000000000
     15043      5015  TIP3      OH2            22.6370296015      -30.8936057466       -0.3442146635  WZ3       785             0.0000000000
     15044      5015  TIP3      H1             22.1772296015      -31.3777757466        0.3416353365  WZ3       785             0.0000000000
     15045      5015  TIP3      H2             22.8918996015      -31.5620657466       -0.9801646635  WZ3       785             0.0000000000
     15046      5016  TIP3      OH2            21.9259596015      -33.0008957466       12.0117453365  WZ3       786             0.0000000000
     15047      5016  TIP3      H1             21.3075696015      -32.3262357466       12.2922153365  WZ3       786             0.0000000000
     15048      5016  TIP3      H2             22.2700796015      -32.6795057466       11.1783653365  WZ3       786             0.0000000000
     15049      5017  TIP3      OH2            23.7080696015      -32.6504257466       -2.0818946635  WZ3       787             0.0000000000
     15050      5017  TIP3      H1             23.5275696015      -32.8053057466       -3.0090646635  WZ3       787             0.0000000000
     15051      5017  TIP3      H2             24.6581196015      -32.5425557466       -2.0371046635  WZ3       787             0.0000000000
     15052      5018  TIP3      OH2            26.9457796015      -30.5293657466       15.2892253365  WZ3       788             0.0000000000
     15053      5018  TIP3      H1             27.8988996015      -30.4454557466       15.2618253365  WZ3       788             0.0000000000
     15054      5018  TIP3      H2             26.7852396015      -31.2411857466       15.9087153365  WZ3       788             0.0000000000
     15055      5019  TIP3      OH2            22.2653296015      -35.6458157466       13.0940553365  WZ3       790             0.0000000000
     15056      5019  TIP3      H1             22.4154196015      -36.3746857466       12.4920253365  WZ3       790             0.0000000000
     15057      5019  TIP3      H2             22.2675696015      -34.8686457466       12.5352753365  WZ3       790             0.0000000000
     15058      5020  TIP3      OH2            24.2597396015      -31.8366157466       10.8263153365  WZ3       792             0.0000000000
     15059      5020  TIP3      H1             25.0102196015      -31.9928657466       10.2530953365  WZ3       792             0.0000000000
     15060      5020  TIP3      H2             23.9205696015      -30.9849557466       10.5508653365  WZ3       792             0.0000000000
     15061      5021  TIP3      OH2            20.7439596015      -34.4474657466       15.0056153365  WZ3       795             0.0000000000
     15062      5021  TIP3      H1             19.9768596015      -34.9799857466       14.7953753365  WZ3       795             0.0000000000
     15063      5021  TIP3      H2             21.4228596015      -34.7574257466       14.4062453365  WZ3       795             0.0000000000
     15064      5022  TIP3      OH2            24.7474996015      -35.4981257466       14.5819953365  WZ3       797             0.0000000000
     15065      5022  TIP3      H1             24.5120396015      -35.7174557466       15.4834853365  WZ3       797             0.0000000000
     15066      5022  TIP3      H2             23.9641896015      -35.7050057466       14.0722453365  WZ3       797             0.0000000000
     15067      5023  TIP3      OH2            18.9242396015      -36.5270857466       14.7100853365  WZ3       800             0.0000000000
     15068      5023  TIP3      H1             19.1359796015      -37.2334757466       14.0998353365  WZ3       800             0.0000000000
     15069      5023  TIP3      H2             18.8129896015      -36.9644857466       15.5542053365  WZ3       800             0.0000000000
     15070      5024  TIP3      OH2            23.6052396015      -21.9600557466       -1.0805346635  WZ3       803             0.0000000000
     15071      5024  TIP3      H1             24.5383096015      -21.8021857466       -0.9366946635  WZ3       803             0.0000000000
     15072      5024  TIP3      H2             23.3411196015      -21.2847557466       -1.7053846635  WZ3       803             0.0000000000
     15073      5025  TIP3      OH2            17.1737296015      -27.3236757466       -1.5977246635  WZ3       804             0.0000000000
     15074      5025  TIP3      H1             18.0876496015      -27.2447857466       -1.3243346635  WZ3       804             0.0000000000
     15075      5025  TIP3      H2             17.1810396015      -28.0107157466       -2.2641646635  WZ3       804             0.0000000000
     15076      5026  TIP3      OH2            15.8227896015      -21.9308257466        3.4796653365  WZ3       805             0.0000000000
     15077      5026  TIP3      H1             15.1754996015      -22.3926557466        2.9467853365  WZ3       805             0.0000000000
     15078      5026  TIP3      H2             16.1772496015      -22.6024957466        4.0622853365  WZ3       805             0.0000000000
     15079      5027  TIP3      OH2            16.6927096015      -23.8501257466        5.2842853365  WZ3       806             0.0000000000
     15080      5027  TIP3      H1             16.3583896015      -24.7303957466        5.4563053365  WZ3       806             0.0000000000
     15081      5027  TIP3      H2             16.9149496015      -23.5046257466        6.1488453365  WZ3       806             0.0000000000
     15082      5028  TIP3      OH2            16.7726596015      -30.7745857466        7.7357753365  WZ3       817             0.0000000000
     15083      5028  TIP3      H1             16.9569496015      -30.8564157466        6.8000653365  WZ3       817             0.0000000000
     15084      5028  TIP3      H2             17.6219496015      -30.8988857466        8.1594153365  WZ3       817             0.0000000000
     15085      5029  TIP3      OH2            16.3701396015      -35.5040857466       13.8766553365  WZ3       824             0.0000000000
     15086      5029  TIP3      H1             17.2896296015      -35.6262557466       14.1129653365  WZ3       824             0.0000000000
     15087      5029  TIP3      H2             15.9205896015      -36.2541157466       14.2660053365  WZ3       824             0.0000000000
     15088      5030  TIP3      OH2            15.8954196015      -34.1926257466        7.8369653365  WZ3       828             0.0000000000
     15089      5030  TIP3      H1             16.3873996015      -34.4135757466        7.0461653365  WZ3       828             0.0000000000
     15090      5030  TIP3      H2             16.2575096015      -33.3522857466        8.1179153365  WZ3       828             0.0000000000
     15091      5031  TIP3      OH2            18.3645396015      -26.0214057466       14.3800353365  WZ3       834             0.0000000000
     15092      5031  TIP3      H1             17.5437896015      -25.8467557466       13.9195053365  WZ3       834             0.0000000000
     15093      5031  TIP3      H2             18.1123196015      -26.0949357466       15.3004753365  WZ3       834             0.0000000000
     15094      5032  TIP3      OH2            21.3188296015      -25.0472857466       10.6384353365  WZ3       835             0.0000000000
     15095      5032  TIP3      H1             20.8939396015      -24.2374357466       10.3558953365  WZ3       835             0.0000000000
     15096      5032  TIP3      H2             22.2231096015      -24.9618757466       10.3364153365  WZ3       835             0.0000000000
     15097      5033  TIP3      OH2            25.6299696015      -23.6482857466       13.5978053365  WZ3       836             0.0000000000
     15098      5033  TIP3      H1             25.8147196015      -23.9816757466       14.4758353365  WZ3       836             0.0000000000
     15099      5033  TIP3      H2             26.4764196015      -23.3384257466       13.2757253365  WZ3       836             0.0000000000
     15100      5034  TIP3      OH2            27.9750096015      -22.3623957466       12.8419453365  WZ3       837             0.0000000000
     15101      5034  TIP3      H1             28.6518996015      -22.9951657466       12.6018653365  WZ3       837             0.0000000000
     15102      5034  TIP3      H2             28.2968896015      -21.9613457466       13.6492753365  WZ3       837             0.0000000000
     15103      5035  TIP3      OH2            18.7204996015      -21.7908957466       10.6859653365  WZ3       839             0.0000000000
     15104      5035  TIP3      H1             18.0001396015      -21.3507957466       10.2347353365  WZ3       839             0.0000000000
     15105      5035  TIP3      H2             18.3548996015      -22.0414257466       11.5343653365  WZ3       839             0.0000000000
     15106      5036  TIP3      OH2            21.1877596015      -22.1905057466        9.7156853365  WZ3       840             0.0000000000
     15107      5036  TIP3      H1             20.3229796015      -22.1186557466       10.1196953365  WZ3       840             0.0000000000
     15108      5036  TIP3      H2             21.1326596015      -21.6437757466        8.9319353365  WZ3       840             0.0000000000
     15109      5037  TIP3      OH2            25.8983196015      -22.3026157466        8.8912853365  WZ3       841             0.0000000000
     15110      5037  TIP3      H1             25.4417196015      -21.7736457466        8.2371253365  WZ3       841             0.0000000000
     15111      5037  TIP3      H2             26.0611196015      -21.6994757466        9.6165153365  WZ3       841             0.0000000000
     15112      5038  TIP3      OH2            28.2259496015      -23.4246557466        9.8363153365  WZ3       842             0.0000000000
     15113      5038  TIP3      H1             27.3213196015      -23.2596357466        9.5705253365  WZ3       842             0.0000000000
     15114      5038  TIP3      H2             28.6548096015      -22.5714357466        9.7706553365  WZ3       842             0.0000000000
     15115      5039  TIP3      OH2            30.8301396015      -21.8547457466       10.1310953365  WZ3       843             0.0000000000
     15116      5039  TIP3      H1             30.6483396015      -20.9388557466        9.9205853365  WZ3       843             0.0000000000
     15117      5039  TIP3      H2             31.0069196015      -22.2650357466        9.2845553365  WZ3       843             0.0000000000
     15118      5040  TIP3      OH2            18.1353096015      -23.1676457466        7.5961453365  WZ3       844             0.0000000000
     15119      5040  TIP3      H1             18.1169096015      -23.5931357466        8.4533753365  WZ3       844             0.0000000000
     15120      5040  TIP3      H2             18.9400996015      -23.4861457466        7.1873653365  WZ3       844             0.0000000000
     15121      5041  TIP3      OH2            20.2766196015      -24.4577757466        6.2511353365  WZ3       845             0.0000000000
     15122      5041  TIP3      H1             20.0576896015      -25.3740357466        6.4207353365  WZ3       845             0.0000000000
     15123      5041  TIP3      H2             21.1008396015      -24.3177357466        6.7172753365  WZ3       845             0.0000000000
     15124      5042  TIP3      OH2            22.8138696015      -23.9878457466        7.0999353365  WZ3       846             0.0000000000
     15125      5042  TIP3      H1             23.0264396015      -24.8759457466        6.8130253365  WZ3       846             0.0000000000
     15126      5042  TIP3      H2             22.8783796015      -24.0220757466        8.0543353365  WZ3       846             0.0000000000
     15127      5043  TIP3      OH2            17.3862796015      -23.9437257466        0.7673753365  WZ3       855             0.0000000000
     15128      5043  TIP3      H1             16.7012696015      -23.9818357466        0.0998853365  WZ3       855             0.0000000000
     15129      5043  TIP3      H2             17.3899996015      -23.0309657466        1.0555853365  WZ3       855             0.0000000000
     15130      5044  TIP3      OH2            26.2506296015      -22.7342357466       -0.8350046635  WZ3       858             0.0000000000
     15131      5044  TIP3      H1             27.1166496015      -22.3674957466       -1.0131846635  WZ3       858             0.0000000000
     15132      5044  TIP3      H2             26.0039096015      -23.1734357466       -1.6489246635  WZ3       858             0.0000000000
     15133      5045  TIP3      OH2            19.2043996015      -23.0236457466       -2.2074146635  WZ3       862             0.0000000000
     15134      5045  TIP3      H1             18.9368596015      -22.7373557466       -1.3341046635  WZ3       862             0.0000000000
     15135      5045  TIP3      H2             19.9756596015      -23.5697257466       -2.0551646635  WZ3       862             0.0000000000
     15136      5046  TIP3      OH2           -28.8407503985      -11.6775257466        4.0250053365  WZ3       932             0.0000000000
     15137      5046  TIP3      H1            -28.7516403985      -10.7337057466        3.8927153365  WZ3       932             0.0000000000
     15138      5046  TIP3      H2            -29.4789903985      -11.9528857466        3.3669453365  WZ3       932             0.0000000000
     15139      5047  TIP3      OH2           -29.9076203985      -12.4224557466        7.4438253365  WZ3       933             0.0000000000
     15140      5047  TIP3      H1            -29.9458703985      -13.0688257466        8.1487853365  WZ3       933             0.0000000000
     15141      5047  TIP3      H2            -30.2299703985      -12.8890157466        6.6726953365  WZ3       933             0.0000000000
     15142      5048  TIP3      OH2           -37.5391203985      -12.8082457466        9.0368153365  WZ3       934             0.0000000000
     15143      5048  TIP3      H1            -37.4979103985      -13.4339157466        9.7600553365  WZ3       934             0.0000000000
     15144      5048  TIP3      H2            -36.8363503985      -12.1843857466        9.2188553365  WZ3       934             0.0000000000
     15145      5049  TIP3      OH2           -26.2016003985       -9.4834157466        5.7453353365  WZ3       935             0.0000000000
     15146      5049  TIP3      H1            -26.6423303985      -10.2038157466        6.1958953365  WZ3       935             0.0000000000
     15147      5049  TIP3      H2            -26.2146303985       -8.7626957466        6.3751053365  WZ3       935             0.0000000000
     15148      5050  TIP3      OH2           -36.6158103985       -8.3583557466        7.5717253365  WZ3       936             0.0000000000
     15149      5050  TIP3      H1            -36.9852903985       -9.1603057466        7.2021553365  WZ3       936             0.0000000000
     15150      5050  TIP3      H2            -35.6747003985       -8.5268657466        7.6180653365  WZ3       936             0.0000000000
     15151      5051  TIP3      OH2           -40.0057603985      -14.6980957466        2.9646053365  WZ3       937             0.0000000000
     15152      5051  TIP3      H1            -40.4534203985      -13.8522257466        2.9462553365  WZ3       937             0.0000000000
     15153      5051  TIP3      H2            -40.5666403985      -15.2776757466        2.4491153365  WZ3       937             0.0000000000
     15154      5052  TIP3      OH2           -39.2951503985      -12.5361357466        5.0904053365  WZ3       938             0.0000000000
     15155      5052  TIP3      H1            -39.0818003985      -13.3059757466        5.6177053365  WZ3       938             0.0000000000
     15156      5052  TIP3      H2            -38.5573903985      -12.4464657466        4.4871653365  WZ3       938             0.0000000000
     15157      5053  TIP3      OH2           -29.0900503985       -4.3792457466        5.9573753365  WZ3       939             0.0000000000
     15158      5053  TIP3      H1            -28.4704103985       -5.0557757466        5.6842953365  WZ3       939             0.0000000000
     15159      5053  TIP3      H2            -29.2983103985       -4.5971657466        6.8658653365  WZ3       939             0.0000000000
     15160      5054  TIP3      OH2           -31.5181803985       -9.9903157466        7.8499253365  WZ3       940             0.0000000000
     15161      5054  TIP3      H1            -31.2143903985      -10.6761757466        7.2553353365  WZ3       940             0.0000000000
     15162      5054  TIP3      H2            -30.7967803985       -9.8714457466        8.4677253365  WZ3       940             0.0000000000
     15163      5055  TIP3      OH2           -22.8552003985      -18.3887857466        8.7105453365  WZ3       941             0.0000000000
     15164      5055  TIP3      H1            -22.8059803985      -17.7786657466        9.4464553365  WZ3       941             0.0000000000
     15165      5055  TIP3      H2            -22.4296903985      -17.9276957466        7.9876553365  WZ3       941             0.0000000000
     15166      5056  TIP3      OH2           -28.3774803985      -15.5960757466        8.1774053365  WZ3       942             0.0000000000
     15167      5056  TIP3      H1            -28.2348903985      -16.5423757466        8.1975653365  WZ3       942             0.0000000000
     15168      5056  TIP3      H2            -28.4835803985      -15.3890957466        7.2488953365  WZ3       942             0.0000000000
     15169      5057  TIP3      OH2           -35.2226503985      -17.4944357466        5.4498853365  WZ3       943             0.0000000000
     15170      5057  TIP3      H1            -35.1795403985      -16.6345857466        5.0315153365  WZ3       943             0.0000000000
     15171      5057  TIP3      H2            -35.6802403985      -18.0469657466        4.8162053365  WZ3       943             0.0000000000
     15172      5058  TIP3      OH2           -27.5003803985      -17.3638757466        3.8507153365  WZ3       944             0.0000000000
     15173      5058  TIP3      H1            -26.8539503985      -17.6925557466        4.4754753365  WZ3       944             0.0000000000
     15174      5058  TIP3      H2            -26.9904403985      -16.8459757466        3.2278553365  WZ3       944             0.0000000000
     15175      5059  TIP3      OH2           -38.6025003985      -15.0978557466        6.2120253365  WZ3       945             0.0000000000
     15176      5059  TIP3      H1            -37.9488403985      -15.6476857466        6.6440353365  WZ3       945             0.0000000000
     15177      5059  TIP3      H2            -38.5785703985      -15.3719557466        5.2952253365  WZ3       945             0.0000000000
     15178      5060  TIP3      OH2           -33.4460503985      -13.5477257466        5.4271753365  WZ3       946             0.0000000000
     15179      5060  TIP3      H1            -32.8299503985      -14.0741857466        5.9365753365  WZ3       946             0.0000000000
     15180      5060  TIP3      H2            -34.0321703985      -14.1878557466        5.0235353365  WZ3       946             0.0000000000
     15181      5061  TIP3      OH2           -22.4637403985      -16.9108657466       10.9465253365  WZ3       947             0.0000000000
     15182      5061  TIP3      H1            -23.1522803985      -16.2527957466       10.8511853365  WZ3       947             0.0000000000
     15183      5061  TIP3      H2            -22.4482803985      -17.1080757466       11.8830653365  WZ3       947             0.0000000000
     15184      5062  TIP3      OH2           -36.4124603985      -18.5765957466        9.5239653365  WZ3       948             0.0000000000
     15185      5062  TIP3      H1            -36.6312903985      -18.0465357466        8.7575653365  WZ3       948             0.0000000000
     15186      5062  TIP3      H2            -37.0803703985      -18.3500457466       10.1711053365  WZ3       948             0.0000000000
     15187      5063  TIP3      OH2           -29.0434803985       -9.0764857466        3.0678753365  WZ3       949             0.0000000000
     15188      5063  TIP3      H1            -29.3389703985       -9.3992557466        2.2165653365  WZ3       949             0.0000000000
     15189      5063  TIP3      H2            -29.3677003985       -8.1768157466        3.1091353365  WZ3       949             0.0000000000
     15190      5064  TIP3      OH2           -33.8433203985      -10.9010257466        9.8113353365  WZ3       950             0.0000000000
     15191      5064  TIP3      H1            -34.5834103985      -10.3028757466        9.9148553365  WZ3       950             0.0000000000
     15192      5064  TIP3      H2            -33.1293703985      -10.3470657466        9.4956953365  WZ3       950             0.0000000000
     15193      5065  TIP3      OH2           -25.7365403985      -18.0729457466        5.8313053365  WZ3       951             0.0000000000
     15194      5065  TIP3      H1            -25.9517403985      -18.8386057466        6.3639053365  WZ3       951             0.0000000000
     15195      5065  TIP3      H2            -25.0808003985      -17.6004857466        6.3441553365  WZ3       951             0.0000000000
     15196      5066  TIP3      OH2           -36.8187303985      -16.6844157466        7.4761853365  WZ3       952             0.0000000000
     15197      5066  TIP3      H1            -36.2051003985      -16.0516557466        7.8494253365  WZ3       952             0.0000000000
     15198      5066  TIP3      H2            -36.3066603985      -17.1569157466        6.8198753365  WZ3       952             0.0000000000
     15199      5067  TIP3      OH2           -35.4358903985       -8.9367257466       10.5984853365  WZ3       953             0.0000000000
     15200      5067  TIP3      H1            -35.4411303985       -8.0573757466       10.2204153365  WZ3       953             0.0000000000
     15201      5067  TIP3      H2            -36.2894803985       -9.0203157466       11.0234753365  WZ3       953             0.0000000000
     15202      5068  TIP3      OH2           -39.3148003985       -9.2659357466        1.3804153365  WZ3       954             0.0000000000
     15203      5068  TIP3      H1            -39.5867103985       -9.0368357466        0.4917053365  WZ3       954             0.0000000000
     15204      5068  TIP3      H2            -39.2692303985       -8.4280557466        1.8409453365  WZ3       954             0.0000000000
     15205      5069  TIP3      OH2           -25.6898303985       -7.6443457466        8.0932653365  WZ3       955             0.0000000000
     15206      5069  TIP3      H1            -26.6314603985       -7.5859557466        8.2549553365  WZ3       955             0.0000000000
     15207      5069  TIP3      H2            -25.4132203985       -6.7382957466        7.9562353365  WZ3       955             0.0000000000
     15208      5070  TIP3      OH2           -25.3891303985      -19.3578157466        9.5106553365  WZ3       956             0.0000000000
     15209      5070  TIP3      H1            -26.1252103985      -18.7471057466        9.4727853365  WZ3       956             0.0000000000
     15210      5070  TIP3      H2            -24.7057303985      -18.9429157466        8.9842953365  WZ3       956             0.0000000000
     15211      5071  TIP3      OH2           -32.3859903985      -21.2710857466        6.9764553365  WZ3       957             0.0000000000
     15212      5071  TIP3      H1            -32.5035703985      -22.2194857466        6.9222853365  WZ3       957             0.0000000000
     15213      5071  TIP3      H2            -33.2409803985      -20.9384757466        7.2495653365  WZ3       957             0.0000000000
     15214      5072  TIP3      OH2           -27.4377103985       -5.8629957466        4.7184253365  WZ3       958             0.0000000000
     15215      5072  TIP3      H1            -27.0124803985       -6.5702057466        4.2333853365  WZ3       958             0.0000000000
     15216      5072  TIP3      H2            -27.1207103985       -5.0617257466        4.3016453365  WZ3       958             0.0000000000
     15217      5073  TIP3      OH2           -26.2780603985       -7.9621457466        3.2270853365  WZ3       959             0.0000000000
     15218      5073  TIP3      H1            -26.5355803985       -8.6521357466        2.6156753365  WZ3       959             0.0000000000
     15219      5073  TIP3      H2            -26.2069803985       -8.4050257466        4.0726753365  WZ3       959             0.0000000000
     15220      5074  TIP3      OH2           -24.5920403985       -9.3954757466       11.7044353365  WZ3       960             0.0000000000
     15221      5074  TIP3      H1            -24.4524103985       -9.9872257466       10.9651353365  WZ3       960             0.0000000000
     15222      5074  TIP3      H2            -24.4247603985       -8.5228857466       11.3483153365  WZ3       960             0.0000000000
     15223      5075  TIP3      OH2           -30.1195003985      -12.4335257466        1.4770353365  WZ3       961             0.0000000000
     15224      5075  TIP3      H1            -30.8309503985      -11.8985557466        1.1250853365  WZ3       961             0.0000000000
     15225      5075  TIP3      H2            -29.4285403985      -12.3783157466        0.8169253365  WZ3       961             0.0000000000
     15226      5076  TIP3      OH2           -30.0655803985      -13.9760957466       -1.4844646635  WZ3       962             0.0000000000
     15227      5076  TIP3      H1            -29.3645903985      -13.9534057466       -0.8330646635  WZ3       962             0.0000000000
     15228      5076  TIP3      H2            -29.7632903985      -14.6041257466       -2.1405346635  WZ3       962             0.0000000000
     15229      5077  TIP3      OH2           -22.7501103985      -13.0556757466        9.7704753365  WZ3       963             0.0000000000
     15230      5077  TIP3      H1            -23.4027003985      -12.3611157466        9.8595653365  WZ3       963             0.0000000000
     15231      5077  TIP3      H2            -22.2850803985      -12.8455857466        8.9606353365  WZ3       963             0.0000000000
     15232      5078  TIP3      OH2           -26.7137303985      -12.2241957466        2.4286253365  WZ3       964             0.0000000000
     15233      5078  TIP3      H1            -27.4456303985      -11.9958257466        3.0016853365  WZ3       964             0.0000000000
     15234      5078  TIP3      H2            -26.2665103985      -12.9379257466        2.8833753365  WZ3       964             0.0000000000
     15235      5079  TIP3      OH2           -26.8163803985      -14.0499357466       11.4963253365  WZ3       965             0.0000000000
     15236      5079  TIP3      H1            -26.7364703985      -13.2864957466       12.0681753365  WZ3       965             0.0000000000
     15237      5079  TIP3      H2            -27.4176103985      -13.7706957466       10.8058353365  WZ3       965             0.0000000000
     15238      5080  TIP3      OH2           -35.0683603985      -11.5935757466        4.3111253365  WZ3       966             0.0000000000
     15239      5080  TIP3      H1            -35.3988403985      -11.9642357466        3.4928253365  WZ3       966             0.0000000000
     15240      5080  TIP3      H2            -34.4799503985      -12.2641757466        4.6579553365  WZ3       966             0.0000000000
     15241      5081  TIP3      OH2           -33.7016103985       -8.1655157466        6.9923453365  WZ3       967             0.0000000000
     15242      5081  TIP3      H1            -33.7964803985       -8.7442057466        6.2358053365  WZ3       967             0.0000000000
     15243      5081  TIP3      H2            -32.9722503985       -8.5369457466        7.4886253365  WZ3       967             0.0000000000
     15244      5082  TIP3      OH2           -34.7018103985      -12.8250157466        7.9446253365  WZ3       968             0.0000000000
     15245      5082  TIP3      H1            -34.1365603985      -12.7035957466        7.1817453365  WZ3       968             0.0000000000
     15246      5082  TIP3      H2            -34.3829203985      -12.1875157466        8.5834753365  WZ3       968             0.0000000000
     15247      5083  TIP3      OH2           -28.3925903985       -7.3218257466        8.6786753365  WZ3       969             0.0000000000
     15248      5083  TIP3      H1            -28.6329303985       -6.6595157466        9.3265953365  WZ3       969             0.0000000000
     15249      5083  TIP3      H2            -28.5907703985       -8.1563057466        9.1036353365  WZ3       969             0.0000000000
     15250      5084  TIP3      OH2           -33.8217403985       -8.4257457466       12.6618153365  WZ3       970             0.0000000000
     15251      5084  TIP3      H1            -34.1329903985       -7.6434257466       13.1171353365  WZ3       970             0.0000000000
     15252      5084  TIP3      H2            -34.4717203985       -8.5788357466       11.9760153365  WZ3       970             0.0000000000
     15253      5085  TIP3      OH2           -27.8427803985      -13.0619057466        0.1137453365  WZ3       971             0.0000000000
     15254      5085  TIP3      H1            -27.2632303985      -12.9118757466        0.8606353365  WZ3       971             0.0000000000
     15255      5085  TIP3      H2            -27.4287803985      -12.5911657466       -0.6096146635  WZ3       971             0.0000000000
     15256      5086  TIP3      OH2           -36.9017503985      -12.2276357466       11.8903853365  WZ3       972             0.0000000000
     15257      5086  TIP3      H1            -36.8314303985      -11.5769557466       12.5888853365  WZ3       972             0.0000000000
     15258      5086  TIP3      H2            -37.7925303985      -12.1248857466       11.5554753365  WZ3       972             0.0000000000
     15259      5087  TIP3      OH2           -30.1162903985       -6.3250557466        3.5490553365  WZ3       973             0.0000000000
     15260      5087  TIP3      H1            -29.6425303985       -6.0294257466        4.3264753365  WZ3       973             0.0000000000
     15261      5087  TIP3      H2            -30.6793603985       -5.5868957466        3.3160153365  WZ3       973             0.0000000000
     15262      5088  TIP3      OH2           -35.5821503985       -6.3542457466       13.4251953365  WZ3       974             0.0000000000
     15263      5088  TIP3      H1            -35.5746203985       -6.4902757466       12.4777453365  WZ3       974             0.0000000000
     15264      5088  TIP3      H2            -36.4981103985       -6.4714357466       13.6771953365  WZ3       974             0.0000000000
     15265      5089  TIP3      OH2           -24.1439403985      -21.3118657466       -0.0732846635  WZ3       975             0.0000000000
     15266      5089  TIP3      H1            -25.0438703985      -21.1729657466        0.2217753365  WZ3       975             0.0000000000
     15267      5089  TIP3      H2            -23.8921003985      -20.4804057466       -0.4751146635  WZ3       975             0.0000000000
     15268      5090  TIP3      OH2           -36.0780903985      -12.5241457466        1.9004053365  WZ3       976             0.0000000000
     15269      5090  TIP3      H1            -36.3699603985      -11.7559757466        1.4095353365  WZ3       976             0.0000000000
     15270      5090  TIP3      H2            -36.7525703985      -13.1835257466        1.7375453365  WZ3       976             0.0000000000
     15271      5091  TIP3      OH2           -22.9548003985       -6.9456257466       -1.6968946635  WZ3       977             0.0000000000
     15272      5091  TIP3      H1            -22.8814503985       -6.0066057466       -1.5263646635  WZ3       977             0.0000000000
     15273      5091  TIP3      H2            -22.0492903985       -7.2507657466       -1.7531646635  WZ3       977             0.0000000000
     15274      5092  TIP3      OH2           -39.9850803985      -10.1612257466       10.7153853365  WZ3       978             0.0000000000
     15275      5092  TIP3      H1            -40.4862403985      -10.1892857466        9.9003553365  WZ3       978             0.0000000000
     15276      5092  TIP3      H2            -39.9797103985      -11.0669057466       11.0251153365  WZ3       978             0.0000000000
     15277      5093  TIP3      OH2           -40.2348103985       -7.3808457466        7.5994053365  WZ3       979             0.0000000000
     15278      5093  TIP3      H1            -39.2887503985       -7.5251457466        7.5803553365  WZ3       979             0.0000000000
     15279      5093  TIP3      H2            -40.3471803985       -6.5965657466        8.1365253365  WZ3       979             0.0000000000
     15280      5094  TIP3      OH2           -22.0369603985       -6.7148757466       13.2817753365  WZ3       980             0.0000000000
     15281      5094  TIP3      H1            -22.0862803985       -7.6700657466       13.2445353365  WZ3       980             0.0000000000
     15282      5094  TIP3      H2            -22.8637303985       -6.4473457466       13.6831553365  WZ3       980             0.0000000000
     15283      5095  TIP3      OH2           -31.0585603985       -7.1409557466       12.1579153365  WZ3       981             0.0000000000
     15284      5095  TIP3      H1            -30.9711003985       -6.3144957466       12.6328253365  WZ3       981             0.0000000000
     15285      5095  TIP3      H2            -31.9220503985       -7.4705757466       12.4068453365  WZ3       981             0.0000000000
     15286      5096  TIP3      OH2           -30.6439803985       -3.3685857466        1.9639753365  WZ3       982             0.0000000000
     15287      5096  TIP3      H1            -30.7193803985       -3.4898657466        1.0174953365  WZ3       982             0.0000000000
     15288      5096  TIP3      H2            -30.6111103985       -2.4193157466        2.0824353365  WZ3       982             0.0000000000
     15289      5097  TIP3      OH2           -36.9906003985       -4.5798857466        3.7448753365  WZ3       983             0.0000000000
     15290      5097  TIP3      H1            -36.8385603985       -4.9278457466        4.6235253365  WZ3       983             0.0000000000
     15291      5097  TIP3      H2            -37.8415603985       -4.9361557466        3.4895953365  WZ3       983             0.0000000000
     15292      5098  TIP3      OH2           -27.5423803985       -4.2145657466       -1.0337846635  WZ3       984             0.0000000000
     15293      5098  TIP3      H1            -27.1675403985       -4.9589557466       -1.5045246635  WZ3       984             0.0000000000
     15294      5098  TIP3      H2            -27.5380103985       -4.4845057466       -0.1154546635  WZ3       984             0.0000000000
     15295      5099  TIP3      OH2           -27.8735703985       -4.2888557466        1.7154353365  WZ3       985             0.0000000000
     15296      5099  TIP3      H1            -28.8085903985       -4.1886657466        1.8941353365  WZ3       985             0.0000000000
     15297      5099  TIP3      H2            -27.5933803985       -4.9982557466        2.2937553365  WZ3       985             0.0000000000
     15298      5100  TIP3      OH2           -24.8849803985      -15.2216257466       13.7619953365  WZ3       986             0.0000000000
     15299      5100  TIP3      H1            -25.2923003985      -14.7410657466       13.0413253365  WZ3       986             0.0000000000
     15300      5100  TIP3      H2            -24.8444103985      -16.1270257466       13.4540753365  WZ3       986             0.0000000000
     15301      5101  TIP3      OH2           -37.7360303985       -8.8376857466       11.7586653365  WZ3       987             0.0000000000
     15302      5101  TIP3      H1            -37.5199003985       -9.1991257466       12.6182453365  WZ3       987             0.0000000000
     15303      5101  TIP3      H2            -38.5915603985       -9.2123057466       11.5490153365  WZ3       987             0.0000000000
     15304      5102  TIP3      OH2           -35.1172303985      -20.3676357466        7.7540853365  WZ3       988             0.0000000000
     15305      5102  TIP3      H1            -35.9788603985      -20.4548157466        7.3463753365  WZ3       988             0.0000000000
     15306      5102  TIP3      H2            -35.1396603985      -19.5116257466        8.1818453365  WZ3       988             0.0000000000
     15307      5103  TIP3      OH2           -30.4544503985      -20.6455957466       11.1287853365  WZ3       989             0.0000000000
     15308      5103  TIP3      H1            -30.0341403985      -21.0608857466       11.8818453365  WZ3       989             0.0000000000
     15309      5103  TIP3      H2            -31.3874903985      -20.8242657466       11.2459853365  WZ3       989             0.0000000000
     15310      5104  TIP3      OH2           -27.1279603985      -16.8900757466       11.9822353365  WZ3       990             0.0000000000
     15311      5104  TIP3      H1            -27.6420103985      -17.0158557466       12.7798353365  WZ3       990             0.0000000000
     15312      5104  TIP3      H2            -27.2834903985      -15.9777657466       11.7378553365  WZ3       990             0.0000000000
     15313      5105  TIP3      OH2           -26.3654703985      -12.0290757466       -2.2564646635  WZ3       991             0.0000000000
     15314      5105  TIP3      H1            -26.3233903985      -12.2516857466       -3.1864646635  WZ3       991             0.0000000000
     15315      5105  TIP3      H2            -25.5162603985      -11.6303657466       -2.0664746635  WZ3       991             0.0000000000
     15316      5106  TIP3      OH2           -30.7927203985      -18.1532557466       -1.5861346635  WZ3       992             0.0000000000
     15317      5106  TIP3      H1            -31.0462403985      -18.1340957466       -0.6633246635  WZ3       992             0.0000000000
     15318      5106  TIP3      H2            -31.0495103985      -19.0247157466       -1.8875146635  WZ3       992             0.0000000000
     15319      5107  TIP3      OH2           -35.0262203985      -15.4021857466        8.8491053365  WZ3       993             0.0000000000
     15320      5107  TIP3      H1            -35.6680103985      -15.4424557466        9.5581153365  WZ3       993             0.0000000000
     15321      5107  TIP3      H2            -34.9890203985      -14.4757157466        8.6114053365  WZ3       993             0.0000000000
     15322      5108  TIP3      OH2           -35.0293103985      -15.1811757466        3.7611053365  WZ3       994             0.0000000000
     15323      5108  TIP3      H1            -35.9220203985      -15.5215657466        3.7024853365  WZ3       994             0.0000000000
     15324      5108  TIP3      H2            -34.5786503985      -15.5580857466        3.0054253365  WZ3       994             0.0000000000
     15325      5109  TIP3      OH2           -29.4937603985      -14.7651457466        2.5781853365  WZ3       995             0.0000000000
     15326      5109  TIP3      H1            -29.9027303985      -13.9502857466        2.2866653365  WZ3       995             0.0000000000
     15327      5109  TIP3      H2            -28.7731403985      -14.9051357466        1.9638953365  WZ3       995             0.0000000000
     15328      5110  TIP3      OH2           -30.3916003985      -14.5895057466       14.0662553365  WZ3       996             0.0000000000
     15329      5110  TIP3      H1            -30.9542203985      -15.2943457466       14.3870353365  WZ3       996             0.0000000000
     15330      5110  TIP3      H2            -29.5652603985      -14.7103157466       14.5340153365  WZ3       996             0.0000000000
     15331      5111  TIP3      OH2           -28.4889903985      -15.3191057466        5.3921553365  WZ3       997             0.0000000000
     15332      5111  TIP3      H1            -28.6845403985      -14.7134257466        4.6772153365  WZ3       997             0.0000000000
     15333      5111  TIP3      H2            -28.3077303985      -16.1525857466        4.9577853365  WZ3       997             0.0000000000
     15334      5112  TIP3      OH2           -37.2761703985      -15.0818357466       10.7163053365  WZ3       998             0.0000000000
     15335      5112  TIP3      H1            -37.3142303985      -14.6816757466       11.5850153365  WZ3       998             0.0000000000
     15336      5112  TIP3      H2            -37.7670603985      -15.8985957466       10.8065953365  WZ3       998             0.0000000000
     15337      5113  TIP3      OH2           -33.9104303985      -17.7076057466       -2.4850946635  WZ3       999             0.0000000000
     15338      5113  TIP3      H1            -34.3413603985      -18.1525957466       -1.7553546635  WZ3       999             0.0000000000
     15339      5113  TIP3      H2            -34.6285603985      -17.3359757466       -2.9973446635  WZ3       999             0.0000000000
     15340      5114  TIP3      OH2           -39.3938803985      -17.2194557466       -0.0091846635  WZ3       1001            0.0000000000
     15341      5114  TIP3      H1            -38.9197103985      -16.6284657466       -0.5940946635  WZ3       1001            0.0000000000
     15342      5114  TIP3      H2            -40.1112403985      -16.6891657466        0.3378253365  WZ3       1001            0.0000000000
     15343      5115  TIP3      OH2           -29.2250703985      -13.6809757466       10.0633953365  WZ3       1002            0.0000000000
     15344      5115  TIP3      H1            -28.9015903985      -14.3120057466        9.4204453365  WZ3       1002            0.0000000000
     15345      5115  TIP3      H2            -29.6651403985      -14.2157557466       10.7241353365  WZ3       1002            0.0000000000
     15346      5116  TIP3      OH2           -32.4477803985      -17.7534257466        4.8475153365  WZ3       1003            0.0000000000
     15347      5116  TIP3      H1            -33.3586703985      -17.6967457466        5.1361153365  WZ3       1003            0.0000000000
     15348      5116  TIP3      H2            -31.9424903985      -17.8138757466        5.6582353365  WZ3       1003            0.0000000000
     15349      5117  TIP3      OH2           -37.6194403985      -16.1247957466        3.6742753365  WZ3       1004            0.0000000000
     15350      5117  TIP3      H1            -38.5086403985      -16.0252457466        3.3342353365  WZ3       1004            0.0000000000
     15351      5117  TIP3      H2            -37.3229503985      -16.9664957466        3.3280653365  WZ3       1004            0.0000000000
     15352      5118  TIP3      OH2           -33.9662603985      -16.1245357466        1.3307353365  WZ3       1005            0.0000000000
     15353      5118  TIP3      H1            -33.0347103985      -15.9955357466        1.5090453365  WZ3       1005            0.0000000000
     15354      5118  TIP3      H2            -34.1812303985      -15.4551057466        0.6812053365  WZ3       1005            0.0000000000
     15355      5119  TIP3      OH2           -28.0425903985      -18.5187957466        8.1116953365  WZ3       1006            0.0000000000
     15356      5119  TIP3      H1            -28.7194303985      -18.3874857466        8.7756653365  WZ3       1006            0.0000000000
     15357      5119  TIP3      H2            -28.5281003985      -18.6738457466        7.3014653365  WZ3       1006            0.0000000000
     15358      5120  TIP3      OH2           -35.2922403985      -14.9303157466       -1.1026546635  WZ3       1007            0.0000000000
     15359      5120  TIP3      H1            -35.8347303985      -15.3099357466       -1.7938946635  WZ3       1007            0.0000000000
     15360      5120  TIP3      H2            -34.4587503985      -14.7358457466       -1.5312446635  WZ3       1007            0.0000000000
     15361      5121  TIP3      OH2           -24.7550803985       -2.8472557466       14.3884553365  WZ3       1008            0.0000000000
     15362      5121  TIP3      H1            -24.5552103985       -2.4230657466       13.5539853365  WZ3       1008            0.0000000000
     15363      5121  TIP3      H2            -24.0997103985       -2.5034357466       14.9954953365  WZ3       1008            0.0000000000
     15364      5122  TIP3      OH2           -37.1571003985      -10.3731257466       13.9965053365  WZ3       1009            0.0000000000
     15365      5122  TIP3      H1            -36.4248603985      -10.1185357466       14.5579553365  WZ3       1009            0.0000000000
     15366      5122  TIP3      H2            -37.9372303985      -10.1685857466       14.5120453365  WZ3       1009            0.0000000000
     15367      5123  TIP3      OH2           -31.1278103985      -14.9661257466        6.7344753365  WZ3       1010            0.0000000000
     15368      5123  TIP3      H1            -30.5634703985      -15.5124657466        6.1874353365  WZ3       1010            0.0000000000
     15369      5123  TIP3      H2            -31.2754703985      -15.4879357466        7.5232353365  WZ3       1010            0.0000000000
     15370      5124  TIP3      OH2           -36.1258403985      -18.8295157466        3.1529553365  WZ3       1011            0.0000000000
     15371      5124  TIP3      H1            -36.4428903985      -19.7319857466        3.1174953365  WZ3       1011            0.0000000000
     15372      5124  TIP3      H2            -35.3444303985      -18.8277757466        2.6001153365  WZ3       1011            0.0000000000
     15373      5125  TIP3      OH2           -32.5012203985      -16.5775157466        9.1485153365  WZ3       1012            0.0000000000
     15374      5125  TIP3      H1            -33.3366903985      -16.1235657466        9.2587553365  WZ3       1012            0.0000000000
     15375      5125  TIP3      H2            -31.9771603985      -16.3016657466        9.9005053365  WZ3       1012            0.0000000000
     15376      5126  TIP3      OH2           -31.9569603985      -10.3647457466        0.8331553365  WZ3       1013            0.0000000000
     15377      5126  TIP3      H1            -32.7018603985      -10.8722157466        0.5109453365  WZ3       1013            0.0000000000
     15378      5126  TIP3      H2            -32.0912403985      -10.3159457466        1.7796353365  WZ3       1013            0.0000000000
     15379      5127  TIP3      OH2           -24.8070703985      -11.2319257466        9.6199153365  WZ3       1014            0.0000000000
     15380      5127  TIP3      H1            -24.1651903985      -10.7752957466        9.0761353365  WZ3       1014            0.0000000000
     15381      5127  TIP3      H2            -25.6373803985      -11.1186857466        9.1573253365  WZ3       1014            0.0000000000
     15382      5128  TIP3      OH2           -28.0592803985      -17.5507557466       -0.9675846635  WZ3       1015            0.0000000000
     15383      5128  TIP3      H1            -28.9978603985      -17.4391957466       -1.1187046635  WZ3       1015            0.0000000000
     15384      5128  TIP3      H2            -27.7620703985      -16.6940657466       -0.6610146635  WZ3       1015            0.0000000000
     15385      5129  TIP3      OH2           -30.4377503985      -10.1804157466       12.0700653365  WZ3       1016            0.0000000000
     15386      5129  TIP3      H1            -30.7831403985      -10.5621757466       12.8770253365  WZ3       1016            0.0000000000
     15387      5129  TIP3      H2            -30.6377403985       -9.2470557466       12.1413553365  WZ3       1016            0.0000000000
     15388      5130  TIP3      OH2           -27.3409303985      -15.6834857466        0.6931553365  WZ3       1017            0.0000000000
     15389      5130  TIP3      H1            -26.4490303985      -15.8209857466        1.0122753365  WZ3       1017            0.0000000000
     15390      5130  TIP3      H2            -27.2845703985      -14.8928757466        0.1565053365  WZ3       1017            0.0000000000
     15391      5131  TIP3      OH2           -36.8321303985      -11.0697457466        6.6029453365  WZ3       1018            0.0000000000
     15392      5131  TIP3      H1            -36.0874103985      -11.0721757466        6.0015953365  WZ3       1018            0.0000000000
     15393      5131  TIP3      H2            -36.7544703985      -11.8933657466        7.0844553365  WZ3       1018            0.0000000000
     15394      5132  TIP3      OH2           -29.8315503985       -8.9063157466       -0.1413846635  WZ3       1019            0.0000000000
     15395      5132  TIP3      H1            -30.1267103985       -8.0795257466        0.2400953365  WZ3       1019            0.0000000000
     15396      5132  TIP3      H2            -30.5345503985       -9.5256257466        0.0547553365  WZ3       1019            0.0000000000
     15397      5133  TIP3      OH2           -39.8241603985      -12.6090557466       11.9177953365  WZ3       1020            0.0000000000
     15398      5133  TIP3      H1            -39.6013003985      -13.0270957466       12.7495453365  WZ3       1020            0.0000000000
     15399      5133  TIP3      H2            -40.4261503985      -13.2215557466       11.4950753365  WZ3       1020            0.0000000000
     15400      5134  TIP3      OH2           -32.8076703985      -13.0920657466       14.1307653365  WZ3       1021            0.0000000000
     15401      5134  TIP3      H1            -33.1035903985      -13.2577657466       13.2356753365  WZ3       1021            0.0000000000
     15402      5134  TIP3      H2            -31.8761503985      -13.3120357466       14.1201553365  WZ3       1021            0.0000000000
     15403      5135  TIP3      OH2           -28.1873903985       -7.7188657466       12.0205653365  WZ3       1022            0.0000000000
     15404      5135  TIP3      H1            -29.0879603985       -7.5356057466       11.7529553365  WZ3       1022            0.0000000000
     15405      5135  TIP3      H2            -28.1532803985       -7.4599357466       12.9414453365  WZ3       1022            0.0000000000
     15406      5136  TIP3      OH2           -22.4560603985      -15.4740757466        0.3878253365  WZ3       1023            0.0000000000
     15407      5136  TIP3      H1            -23.0104303985      -15.8702757466       -0.2844246635  WZ3       1023            0.0000000000
     15408      5136  TIP3      H2            -22.3557003985      -14.5635557466        0.1101553365  WZ3       1023            0.0000000000
     15409      5137  TIP3      OH2           -22.4928603985       -9.6739057466       13.2249753365  WZ3       1024            0.0000000000
     15410      5137  TIP3      H1            -23.3440103985       -9.4355257466       12.8576153365  WZ3       1024            0.0000000000
     15411      5137  TIP3      H2            -21.9025203985       -9.6905857466       12.4716853365  WZ3       1024            0.0000000000
     15412      5138  TIP3      OH2           -24.1608903985       -6.6880357466        0.8530353365  WZ3       1025            0.0000000000
     15413      5138  TIP3      H1            -24.5337803985       -7.5136557466        1.1620953365  WZ3       1025            0.0000000000
     15414      5138  TIP3      H2            -23.8835403985       -6.8710957466       -0.0446246635  WZ3       1025            0.0000000000
     15415      5139  TIP3      OH2           -27.0005003985      -11.8800857466        7.8742253365  WZ3       1026            0.0000000000
     15416      5139  TIP3      H1            -27.9288103985      -12.1118957466        7.8471553365  WZ3       1026            0.0000000000
     15417      5139  TIP3      H2            -26.5493903985      -12.6571057466        7.5441053365  WZ3       1026            0.0000000000
     15418      5140  TIP3      OH2           -34.4571903985       -7.5519257466        4.0070953365  WZ3       1027            0.0000000000
     15419      5140  TIP3      H1            -33.9299703985       -6.7784857466        3.8069753365  WZ3       1027            0.0000000000
     15420      5140  TIP3      H2            -35.3373403985       -7.3270057466        3.7054953365  WZ3       1027            0.0000000000
     15421      5141  TIP3      OH2           -38.7024203985      -12.6895157466       -1.4056646635  WZ3       1028            0.0000000000
     15422      5141  TIP3      H1            -38.0864303985      -12.0627957466       -1.0261846635  WZ3       1028            0.0000000000
     15423      5141  TIP3      H2            -39.5641603985      -12.3735357466       -1.1340146635  WZ3       1028            0.0000000000
     15424      5142  TIP3      OH2           -33.0299603985       -9.8889357466        3.5835253365  WZ3       1029            0.0000000000
     15425      5142  TIP3      H1            -33.2709603985       -8.9634957466        3.6250553365  WZ3       1029            0.0000000000
     15426      5142  TIP3      H2            -33.7706003985      -10.3478057466        3.9799153365  WZ3       1029            0.0000000000
     15427      5143  TIP3      OH2           -32.5153003985       -5.7395757466        9.8986353365  WZ3       1030            0.0000000000
     15428      5143  TIP3      H1            -32.1528303985       -4.8850157466        9.6650753365  WZ3       1030            0.0000000000
     15429      5143  TIP3      H2            -31.9837803985       -6.0314157466       10.6392653365  WZ3       1030            0.0000000000
     15430      5144  TIP3      OH2           -34.3468803985       -4.8671757466        3.1287453365  WZ3       1031            0.0000000000
     15431      5144  TIP3      H1            -35.2968303985       -4.7614357466        3.1800753365  WZ3       1031            0.0000000000
     15432      5144  TIP3      H2            -33.9950703985       -4.0464357466        3.4734953365  WZ3       1031            0.0000000000
     15433      5145  TIP3      OH2           -28.9712203985       -9.6405057466        9.5991953365  WZ3       1032            0.0000000000
     15434      5145  TIP3      H1            -29.3970903985       -9.8683357466       10.4255953365  WZ3       1032            0.0000000000
     15435      5145  TIP3      H2            -28.3906403985      -10.3793257466        9.4167253365  WZ3       1032            0.0000000000
     15436      5146  TIP3      OH2           -26.7683303985       -8.7114557466       -1.3269046635  WZ3       1033            0.0000000000
     15437      5146  TIP3      H1            -26.4150203985       -9.0914757466       -0.5225546635  WZ3       1033            0.0000000000
     15438      5146  TIP3      H2            -27.7169803985       -8.8049757466       -1.2399746635  WZ3       1033            0.0000000000
     15439      5147  TIP3      OH2           -26.3128003985       -5.0885557466       12.0686753365  WZ3       1034            0.0000000000
     15440      5147  TIP3      H1            -26.9144803985       -5.6442657466       11.5733053365  WZ3       1034            0.0000000000
     15441      5147  TIP3      H2            -26.0314303985       -4.4215757466       11.4424153365  WZ3       1034            0.0000000000
     15442      5148  TIP3      OH2           -22.2648903985       -4.2322057466       -1.1258846635  WZ3       1035            0.0000000000
     15443      5148  TIP3      H1            -21.5211003985       -3.6461557466       -1.2657246635  WZ3       1035            0.0000000000
     15444      5148  TIP3      H2            -22.9590803985       -3.6636257466       -0.7926446635  WZ3       1035            0.0000000000
     15445      5149  TIP3      OH2           -38.1902103985      -17.8557857466       11.4759353365  WZ3       1036            0.0000000000
     15446      5149  TIP3      H1            -39.0829803985      -17.5172457466       11.4083353365  WZ3       1036            0.0000000000
     15447      5149  TIP3      H2            -38.2889303985      -18.7111757466       11.8940153365  WZ3       1036            0.0000000000
     15448      5150  TIP3      OH2           -25.9024003985      -10.0392557466        0.8998853365  WZ3       1037            0.0000000000
     15449      5150  TIP3      H1            -26.1796403985      -10.7673257466        1.4559953365  WZ3       1037            0.0000000000
     15450      5150  TIP3      H2            -24.9751003985       -9.9200557466        1.1051453365  WZ3       1037            0.0000000000
     15451      5151  TIP3      OH2           -38.5390103985       -6.0513457466        9.9108753365  WZ3       1038            0.0000000000
     15452      5151  TIP3      H1            -38.3219803985       -6.9831057466        9.8798453365  WZ3       1038            0.0000000000
     15453      5151  TIP3      H2            -38.2926603985       -5.7768457466       10.7941553365  WZ3       1038            0.0000000000
     15454      5152  TIP3      OH2           -32.6775503985       -7.5998457466       -2.8799046635  WZ3       1039            0.0000000000
     15455      5152  TIP3      H1            -32.4385703985       -8.3480357466       -3.4270146635  WZ3       1039            0.0000000000
     15456      5152  TIP3      H2            -32.9464203985       -7.9876757466       -2.0471246635  WZ3       1039            0.0000000000
     15457      5153  TIP3      OH2           -33.7404903985       -8.0294657466       -0.4236446635  WZ3       1040            0.0000000000
     15458      5153  TIP3      H1            -33.5936903985       -8.5494857466        0.3664453365  WZ3       1040            0.0000000000
     15459      5153  TIP3      H2            -33.7433203985       -7.1227057466       -0.1170546635  WZ3       1040            0.0000000000
     15460      5154  TIP3      OH2           -37.2873803985      -10.7771357466        0.0868953365  WZ3       1041            0.0000000000
     15461      5154  TIP3      H1            -37.9734503985      -10.4248857466        0.6538653365  WZ3       1041            0.0000000000
     15462      5154  TIP3      H2            -36.7645903985      -10.0141757466       -0.1596746635  WZ3       1041            0.0000000000
     15463      5155  TIP3      OH2           -29.4558703985      -18.1147557466       10.3657953365  WZ3       1042            0.0000000000
     15464      5155  TIP3      H1            -28.7570803985      -18.0408857466       11.0157653365  WZ3       1042            0.0000000000
     15465      5155  TIP3      H2            -29.8367303985      -18.9792557466       10.5200853365  WZ3       1042            0.0000000000
     15466      5156  TIP3      OH2           -28.6713803985      -18.4625857466        1.4630253365  WZ3       1043            0.0000000000
     15467      5156  TIP3      H1            -28.4515503985      -17.9910457466        0.6595653365  WZ3       1043            0.0000000000
     15468      5156  TIP3      H2            -28.1129803985      -18.0683257466        2.1330853365  WZ3       1043            0.0000000000
     15469      5157  TIP3      OH2           -31.0027703985       -6.3321057466        0.3257753365  WZ3       1044            0.0000000000
     15470      5157  TIP3      H1            -31.8191603985       -5.8351357466        0.3782053365  WZ3       1044            0.0000000000
     15471      5157  TIP3      H2            -30.4731403985       -5.8567557466       -0.3143446635  WZ3       1044            0.0000000000
     15472      5158  TIP3      OH2           -31.4713903985      -16.7347057466        2.2978653365  WZ3       1045            0.0000000000
     15473      5158  TIP3      H1            -30.6591303985      -16.2303857466        2.3440353365  WZ3       1045            0.0000000000
     15474      5158  TIP3      H2            -31.7160903985      -16.8797357466        3.2118253365  WZ3       1045            0.0000000000
     15475      5159  TIP3      OH2           -30.9357503985      -15.7484357466       11.4825253365  WZ3       1046            0.0000000000
     15476      5159  TIP3      H1            -30.8167203985      -15.1748957466       12.2395653365  WZ3       1046            0.0000000000
     15477      5159  TIP3      H2            -30.2802903985      -16.4364957466       11.5973053365  WZ3       1046            0.0000000000
     15478      5160  TIP3      OH2           -30.5877203985      -19.6534057466        3.2359753365  WZ3       1047            0.0000000000
     15479      5160  TIP3      H1            -30.9343703985      -19.0363457466        3.8804053365  WZ3       1047            0.0000000000
     15480      5160  TIP3      H2            -29.9290303985      -19.1528357466        2.7545253365  WZ3       1047            0.0000000000
     15481      5161  TIP3      OH2           -33.6644603985       -5.2883857466        0.3074653365  WZ3       1048            0.0000000000
     15482      5161  TIP3      H1            -33.5035903985       -4.4886357466       -0.1932746635  WZ3       1048            0.0000000000
     15483      5161  TIP3      H2            -33.8616803985       -4.9817857466        1.1925253365  WZ3       1048            0.0000000000
     15484      5162  TIP3      OH2           -34.9300203985      -18.5904657466       -0.0767746635  WZ3       1049            0.0000000000
     15485      5162  TIP3      H1            -35.0135403985      -17.7021557466        0.2698653365  WZ3       1049            0.0000000000
     15486      5162  TIP3      H2            -34.0399903985      -18.8557957466        0.1549053365  WZ3       1049            0.0000000000
     15487      5163  TIP3      OH2           -24.7311703985      -17.8414057466       12.3174953365  WZ3       1050            0.0000000000
     15488      5163  TIP3      H1            -25.6475903985      -17.5792357466       12.2298653365  WZ3       1050            0.0000000000
     15489      5163  TIP3      H2            -24.3956703985      -17.8445057466       11.4210253365  WZ3       1050            0.0000000000
     15490      5164  TIP3      OH2           -26.1290703985      -14.0913057466        6.4132253365  WZ3       1051            0.0000000000
     15491      5164  TIP3      H1            -26.9266303985      -14.5062857466        6.0847253365  WZ3       1051            0.0000000000
     15492      5164  TIP3      H2            -25.6839603985      -14.7819357466        6.9042753365  WZ3       1051            0.0000000000
     15493      5165  TIP3      OH2           -36.6714903985       -8.1632457466       -1.0163246635  WZ3       1052            0.0000000000
     15494      5165  TIP3      H1            -36.0793403985       -7.4637657466       -0.7400846635  WZ3       1052            0.0000000000
     15495      5165  TIP3      H2            -36.2121903985       -8.5962957466       -1.7358646635  WZ3       1052            0.0000000000
     15496      5166  TIP3      OH2           -38.3555703985      -15.4989457466       -1.9003846635  WZ3       1053            0.0000000000
     15497      5166  TIP3      H1            -38.4003103985      -14.5596357466       -1.7216846635  WZ3       1053            0.0000000000
     15498      5166  TIP3      H2            -39.2432503985      -15.7344557466       -2.1701746635  WZ3       1053            0.0000000000
     15499      5167  TIP3      OH2           -25.0426103985       -4.8350557466        8.0355753365  WZ3       1054            0.0000000000
     15500      5167  TIP3      H1            -25.1981803985       -4.1566157466        7.3785053365  WZ3       1054            0.0000000000
     15501      5167  TIP3      H2            -24.1099703985       -4.7631257466        8.2386353365  WZ3       1054            0.0000000000
     15502      5168  TIP3      OH2           -38.6170403985       -6.7765757466        2.9332953365  WZ3       1056            0.0000000000
     15503      5168  TIP3      H1            -39.4491803985       -6.3043057466        2.9604353365  WZ3       1056            0.0000000000
     15504      5168  TIP3      H2            -38.0712103985       -6.2668157466        2.3346053365  WZ3       1056            0.0000000000
     15505      5169  TIP3      OH2           -39.3286703985       -4.1642057466       14.2630953365  WZ3       1057            0.0000000000
     15506      5169  TIP3      H1            -38.7884503985       -4.3808057466       15.0230153365  WZ3       1057            0.0000000000
     15507      5169  TIP3      H2            -39.8098703985       -4.9696057466       14.0733453365  WZ3       1057            0.0000000000
     15508      5170  TIP3      OH2           -34.7313303985       -5.2447657466       15.8835153365  WZ3       1058            0.0000000000
     15509      5170  TIP3      H1            -33.9636103985       -5.7036857466       16.2244353365  WZ3       1058            0.0000000000
     15510      5170  TIP3      H2            -34.7527103985       -5.4707857466       14.9536353365  WZ3       1058            0.0000000000
     15511      5171  TIP3      OH2           -30.6393703985       -5.7367057466       -2.7413046635  WZ3       1059            0.0000000000
     15512      5171  TIP3      H1            -31.2832703985       -6.3678457466       -2.4199346635  WZ3       1059            0.0000000000
     15513      5171  TIP3      H2            -29.8775403985       -6.2679057466       -2.9729546635  WZ3       1059            0.0000000000
     15514      5172  TIP3      OH2           -28.1544603985       -6.8646557466       14.6126653365  WZ3       1060            0.0000000000
     15515      5172  TIP3      H1            -28.5055103985       -7.7213557466       14.8557053365  WZ3       1060            0.0000000000
     15516      5172  TIP3      H2            -27.4281403985       -6.7219857466       15.2195653365  WZ3       1060            0.0000000000
     15517      5173  TIP3      OH2           -26.0350803985       -5.9197157466       -2.5075046635  WZ3       1061            0.0000000000
     15518      5173  TIP3      H1            -25.7520403985       -6.7141957466       -2.0548146635  WZ3       1061            0.0000000000
     15519      5173  TIP3      H2            -25.2952903985       -5.6866157466       -3.0683946635  WZ3       1061            0.0000000000
     15520      5174  TIP3      OH2           -39.4217203985      -10.3537957466       15.2175253365  WZ3       1062            0.0000000000
     15521      5174  TIP3      H1            -39.2776703985      -11.2557257466       14.9311953365  WZ3       1062            0.0000000000
     15522      5174  TIP3      H2            -40.1939803985      -10.0675857466       14.7297553365  WZ3       1062            0.0000000000
     15523      5175  TIP3      OH2           -35.0803503985      -10.0102257466       -2.6500146635  WZ3       1063            0.0000000000
     15524      5175  TIP3      H1            -35.0159403985      -10.8042657466       -2.1193746635  WZ3       1063            0.0000000000
     15525      5175  TIP3      H2            -34.4274303985      -10.1289457466       -3.3398146635  WZ3       1063            0.0000000000
     15526      5176  TIP3      OH2           -32.7661103985      -10.3839857466       14.6501653365  WZ3       1064            0.0000000000
     15527      5176  TIP3      H1            -33.0947303985      -10.1131757466       13.7929053365  WZ3       1064            0.0000000000
     15528      5176  TIP3      H2            -32.6142903985      -11.3250057466       14.5626653365  WZ3       1064            0.0000000000
     15529      5177  TIP3      OH2           -29.7280103985       -8.9630557466       -2.9142146635  WZ3       1065            0.0000000000
     15530      5177  TIP3      H1            -29.9966003985       -8.7828457466       -2.0133246635  WZ3       1065            0.0000000000
     15531      5177  TIP3      H2            -29.9344503985       -9.8884357466       -3.0456346635  WZ3       1065            0.0000000000
     15532      5178  TIP3      OH2           -27.0315903985      -10.4682557466       12.0333953365  WZ3       1066            0.0000000000
     15533      5178  TIP3      H1            -26.2861103985       -9.8798857466       11.9137953365  WZ3       1066            0.0000000000
     15534      5178  TIP3      H2            -27.7889103985       -9.8862857466       12.0967053365  WZ3       1066            0.0000000000
     15535      5179  TIP3      OH2           -38.5890703985      -13.1534657466       14.6374553365  WZ3       1067            0.0000000000
     15536      5179  TIP3      H1            -38.1809503985      -14.0108057466       14.5165153365  WZ3       1067            0.0000000000
     15537      5179  TIP3      H2            -38.8493103985      -13.1393357466       15.5584853365  WZ3       1067            0.0000000000
     15538      5180  TIP3      OH2           -33.9309703985      -12.0376057466       -0.3442146635  WZ3       1068            0.0000000000
     15539      5180  TIP3      H1            -34.3907703985      -12.5217757466        0.3416353365  WZ3       1068            0.0000000000
     15540      5180  TIP3      H2            -33.6761003985      -12.7060657466       -0.9801646635  WZ3       1068            0.0000000000
     15541      5181  TIP3      OH2           -34.6420403985      -14.1448957466       12.0117453365  WZ3       1069            0.0000000000
     15542      5181  TIP3      H1            -35.2604303985      -13.4702357466       12.2922153365  WZ3       1069            0.0000000000
     15543      5181  TIP3      H2            -34.2979203985      -13.8235057466       11.1783653365  WZ3       1069            0.0000000000
     15544      5182  TIP3      OH2           -32.8599303985      -13.7944257466       -2.0818946635  WZ3       1070            0.0000000000
     15545      5182  TIP3      H1            -33.0404303985      -13.9493057466       -3.0090646635  WZ3       1070            0.0000000000
     15546      5182  TIP3      H2            -31.9098803985      -13.6865557466       -2.0371046635  WZ3       1070            0.0000000000
     15547      5183  TIP3      OH2           -29.6222203985      -11.6733657466       15.2892253365  WZ3       1071            0.0000000000
     15548      5183  TIP3      H1            -28.6691003985      -11.5894557466       15.2618253365  WZ3       1071            0.0000000000
     15549      5183  TIP3      H2            -29.7827603985      -12.3851857466       15.9087153365  WZ3       1071            0.0000000000
     15550      5184  TIP3      OH2           -23.4701003985      -11.4400057466       -2.6360846635  WZ3       1072            0.0000000000
     15551      5184  TIP3      H1            -23.7436203985      -11.8644557466       -3.4492546635  WZ3       1072            0.0000000000
     15552      5184  TIP3      H2            -23.4306903985      -10.5085557466       -2.8530446635  WZ3       1072            0.0000000000
     15553      5185  TIP3      OH2           -34.3026703985      -16.7898157466       13.0940553365  WZ3       1073            0.0000000000
     15554      5185  TIP3      H1            -34.1525803985      -17.5186857466       12.4920253365  WZ3       1073            0.0000000000
     15555      5185  TIP3      H2            -34.3004303985      -16.0126457466       12.5352753365  WZ3       1073            0.0000000000
     15556      5186  TIP3      OH2           -33.8901003985      -18.4202357466       10.5867953365  WZ3       1074            0.0000000000
     15557      5186  TIP3      H1            -33.3543503985      -17.9685657466        9.9347253365  WZ3       1074            0.0000000000
     15558      5186  TIP3      H2            -34.7421403985      -18.5282557466       10.1642053365  WZ3       1074            0.0000000000
     15559      5187  TIP3      OH2           -32.3082603985      -12.9806157466       10.8263153365  WZ3       1075            0.0000000000
     15560      5187  TIP3      H1            -31.5577803985      -13.1368657466       10.2530953365  WZ3       1075            0.0000000000
     15561      5187  TIP3      H2            -32.6474303985      -12.1289557466       10.5508653365  WZ3       1075            0.0000000000
     15562      5188  TIP3      OH2           -27.8926403985      -15.1654357466       15.8548453365  WZ3       1076            0.0000000000
     15563      5188  TIP3      H1            -27.7005103985      -16.0964957466       15.7432953365  WZ3       1076            0.0000000000
     15564      5188  TIP3      H2            -27.0350103985      -14.7404857466       15.8443853365  WZ3       1076            0.0000000000
     15565      5189  TIP3      OH2           -26.5759203985      -12.3769157466       13.9321153365  WZ3       1077            0.0000000000
     15566      5189  TIP3      H1            -26.8574203985      -11.6674557466       13.3544953365  WZ3       1077            0.0000000000
     15567      5189  TIP3      H2            -25.6334903985      -12.4496157466       13.7812353365  WZ3       1077            0.0000000000
     15568      5190  TIP3      OH2           -35.8240403985      -15.5914657466       15.0056153365  WZ3       1078            0.0000000000
     15569      5190  TIP3      H1            -36.5911403985      -16.1239857466       14.7953753365  WZ3       1078            0.0000000000
     15570      5190  TIP3      H2            -35.1451403985      -15.9014257466       14.4062453365  WZ3       1078            0.0000000000
     15571      5191  TIP3      OH2           -33.0845503985      -20.9636657466       11.0181553365  WZ3       1079            0.0000000000
     15572      5191  TIP3      H1            -33.1825903985      -20.0173457466       10.9127753365  WZ3       1079            0.0000000000
     15573      5191  TIP3      H2            -33.8269303985      -21.3362857466       10.5425053365  WZ3       1079            0.0000000000
     15574      5192  TIP3      OH2           -31.8205003985      -16.6421257466       14.5819953365  WZ3       1080            0.0000000000
     15575      5192  TIP3      H1            -32.0559603985      -16.8614557466       15.4834853365  WZ3       1080            0.0000000000
     15576      5192  TIP3      H2            -32.6038103985      -16.8490057466       14.0722453365  WZ3       1080            0.0000000000
     15577      5193  TIP3      OH2           -29.1048403985      -17.5147757466       13.6573453365  WZ3       1081            0.0000000000
     15578      5193  TIP3      H1            -30.0523003985      -17.4828057466       13.7896753365  WZ3       1081            0.0000000000
     15579      5193  TIP3      H2            -28.7921703985      -18.1400657466       14.3111653365  WZ3       1081            0.0000000000
     15580      5194  TIP3      OH2           -27.4706903985      -18.8806657466       15.6625353365  WZ3       1082            0.0000000000
     15581      5194  TIP3      H1            -27.5675103985      -19.8329357466       15.6567253365  WZ3       1082            0.0000000000
     15582      5194  TIP3      H2            -27.7923803985      -18.6119857466       16.5230853365  WZ3       1082            0.0000000000
     15583      5195  TIP3      OH2           -37.6437603985      -17.6710857466       14.7100853365  WZ3       1083            0.0000000000
     15584      5195  TIP3      H1            -37.4320203985      -18.3774757466       14.0998353365  WZ3       1083            0.0000000000
     15585      5195  TIP3      H2            -37.7550103985      -18.1084857466       15.5542053365  WZ3       1083            0.0000000000
     15586      5196  TIP3      OH2           -32.8627403985      -21.6699257466       13.6894353365  WZ3       1084            0.0000000000
     15587      5196  TIP3      H1            -32.1509003985      -22.3097057466       13.6753453365  WZ3       1084            0.0000000000
     15588      5196  TIP3      H2            -32.9637003985      -21.4030957466       12.7757453365  WZ3       1084            0.0000000000
     15589      5197  TIP3      OH2           -32.5089903985      -19.9870857466       15.7430653365  WZ3       1085            0.0000000000
     15590      5197  TIP3      H1            -32.6407703985      -20.4627057466       14.9229153365  WZ3       1085            0.0000000000
     15591      5197  TIP3      H2            -33.1082503985      -19.2427257466       15.6877753365  WZ3       1085            0.0000000000
     15592      5198  TIP3      OH2           -32.9627603985       -3.1040557466       -1.0805346635  WZ3       1086            0.0000000000
     15593      5198  TIP3      H1            -32.0296903985       -2.9461857466       -0.9366946635  WZ3       1086            0.0000000000
     15594      5198  TIP3      H2            -33.2268803985       -2.4287557466       -1.7053846635  WZ3       1086            0.0000000000
     15595      5199  TIP3      OH2           -39.3942703985       -8.4676757466       -1.5977246635  WZ3       1087            0.0000000000
     15596      5199  TIP3      H1            -38.4803503985       -8.3887857466       -1.3243346635  WZ3       1087            0.0000000000
     15597      5199  TIP3      H2            -39.3869603985       -9.1547157466       -2.2641646635  WZ3       1087            0.0000000000
     15598      5200  TIP3      OH2           -39.8752903985       -4.9941257466        5.2842853365  WZ3       1089            0.0000000000
     15599      5200  TIP3      H1            -40.2096103985       -5.8743957466        5.4563053365  WZ3       1089            0.0000000000
     15600      5200  TIP3      H2            -39.6530503985       -4.6486257466        6.1488453365  WZ3       1089            0.0000000000
     15601      5201  TIP3      OH2           -22.3268103985       -4.1844857466        8.2647653365  WZ3       1090            0.0000000000
     15602      5201  TIP3      H1            -22.3481403985       -3.9996457466        9.2037053365  WZ3       1090            0.0000000000
     15603      5201  TIP3      H2            -21.6361903985       -3.6160857466        7.9239053365  WZ3       1090            0.0000000000
     15604      5202  TIP3      OH2           -22.7635203985       -4.6173757466       11.1866753365  WZ3       1091            0.0000000000
     15605      5202  TIP3      H1            -23.2506503985       -5.3529657466       10.8154153365  WZ3       1091            0.0000000000
     15606      5202  TIP3      H2            -22.2142503985       -5.0109857466       11.8646153365  WZ3       1091            0.0000000000
     15607      5203  TIP3      OH2           -24.3127903985       -8.8275657466       15.8247053365  WZ3       1092            0.0000000000
     15608      5203  TIP3      H1            -25.1786803985       -8.9325957466       16.2189353365  WZ3       1092            0.0000000000
     15609      5203  TIP3      H2            -23.9362003985       -8.0692357466       16.2711753365  WZ3       1092            0.0000000000
     15610      5204  TIP3      OH2           -23.0118203985      -10.5711957466        1.3389553365  WZ3       1093            0.0000000000
     15611      5204  TIP3      H1            -22.1616803985      -10.1501057466        1.4661153365  WZ3       1093            0.0000000000
     15612      5204  TIP3      H2            -23.0063103985      -11.3111857466        1.9460953365  WZ3       1093            0.0000000000
     15613      5205  TIP3      OH2           -22.6172603985      -12.5174557466        3.1625253365  WZ3       1094            0.0000000000
     15614      5205  TIP3      H1            -23.3438003985      -12.9971957466        3.5602853365  WZ3       1094            0.0000000000
     15615      5205  TIP3      H2            -22.0359303985      -12.3119857466        3.8946853365  WZ3       1094            0.0000000000
     15616      5206  TIP3      OH2           -22.8581403985       -9.7327057466        8.1102853365  WZ3       1095            0.0000000000
     15617      5206  TIP3      H1            -22.0247203985      -10.1107057466        7.8296453365  WZ3       1095            0.0000000000
     15618      5206  TIP3      H2            -22.7461103985       -8.7895857466        7.9911953365  WZ3       1095            0.0000000000
     15619      5207  TIP3      OH2           -24.3719103985       -6.8549557466       10.4171253365  WZ3       1096            0.0000000000
     15620      5207  TIP3      H1            -25.0193803985       -6.5298057466       11.0426453365  WZ3       1096            0.0000000000
     15621      5207  TIP3      H2            -24.8895103985       -7.2951857466        9.7429553365  WZ3       1096            0.0000000000
     15622      5208  TIP3      OH2           -22.3489503985      -12.6166057466       -0.4463446635  WZ3       1097            0.0000000000
     15623      5208  TIP3      H1            -22.8708403985      -12.2601957466       -1.1652546635  WZ3       1097            0.0000000000
     15624      5208  TIP3      H2            -22.3820303985      -11.9418257466        0.2317453365  WZ3       1097            0.0000000000
     15625      5209  TIP3      OH2           -24.0000503985      -15.3770457466       -1.8956346635  WZ3       1098            0.0000000000
     15626      5209  TIP3      H1            -23.9036103985      -14.7103457466       -2.5756646635  WZ3       1098            0.0000000000
     15627      5209  TIP3      H2            -24.1400903985      -16.1924157466       -2.3770846635  WZ3       1098            0.0000000000
     15628      5210  TIP3      OH2           -24.8305803985      -13.9968057466        3.7253953365  WZ3       1099            0.0000000000
     15629      5210  TIP3      H1            -24.9807003985      -14.9419457466        3.7051753365  WZ3       1099            0.0000000000
     15630      5210  TIP3      H2            -25.1841303985      -13.7156657466        4.5693053365  WZ3       1099            0.0000000000
     15631      5211  TIP3      OH2           -39.7953403985      -11.9185857466        7.7357753365  WZ3       1100            0.0000000000
     15632      5211  TIP3      H1            -39.6110503985      -12.0004157466        6.8000653365  WZ3       1100            0.0000000000
     15633      5211  TIP3      H2            -38.9460503985      -12.0428857466        8.1594153365  WZ3       1100            0.0000000000
     15634      5212  TIP3      OH2           -23.9742903985      -12.0264757466       13.3642253365  WZ3       1101            0.0000000000
     15635      5212  TIP3      H1            -23.3915603985      -12.7612457466       13.5559453365  WZ3       1101            0.0000000000
     15636      5212  TIP3      H2            -23.4103603985      -11.2544457466       13.4108053365  WZ3       1101            0.0000000000
     15637      5213  TIP3      OH2           -22.4775803985      -14.1238957466       14.0487653365  WZ3       1102            0.0000000000
     15638      5213  TIP3      H1            -23.3409103985      -14.5026857466       13.8832353365  WZ3       1102            0.0000000000
     15639      5213  TIP3      H2            -21.8732103985      -14.8624157466       13.9743453365  WZ3       1102            0.0000000000
     15640      5214  TIP3      OH2           -24.7526703985      -17.9690657466       -2.7780846635  WZ3       1103            0.0000000000
     15641      5214  TIP3      H1            -24.1420903985      -18.3403857466       -2.1412646635  WZ3       1103            0.0000000000
     15642      5214  TIP3      H2            -25.5895203985      -18.3903757466       -2.5820846635  WZ3       1103            0.0000000000
     15643      5215  TIP3      OH2           -25.1201003985      -16.4142257466        2.1879053365  WZ3       1104            0.0000000000
     15644      5215  TIP3      H1            -24.8403903985      -17.3211857466        2.3120753365  WZ3       1104            0.0000000000
     15645      5215  TIP3      H2            -24.3609303985      -15.9800757466        1.7988253365  WZ3       1104            0.0000000000
     15646      5216  TIP3      OH2           -24.5082703985      -15.8324857466        7.6237953365  WZ3       1105            0.0000000000
     15647      5216  TIP3      H1            -23.5754703985      -15.6204957466        7.5893953365  WZ3       1105            0.0000000000
     15648      5216  TIP3      H2            -24.7435203985      -15.7312757466        8.5460953365  WZ3       1105            0.0000000000
     15649      5217  TIP3      OH2           -24.4790803985      -15.0959557466       10.3997353365  WZ3       1106            0.0000000000
     15650      5217  TIP3      H1            -25.3219503985      -14.8279157466       10.7657153365  WZ3       1106            0.0000000000
     15651      5217  TIP3      H2            -24.0366503985      -14.2737657466       10.1888453365  WZ3       1106            0.0000000000
     15652      5218  TIP3      OH2           -40.1978603985      -16.6480857466       13.8766553365  WZ3       1107            0.0000000000
     15653      5218  TIP3      H1            -39.2783703985      -16.7702557466       14.1129653365  WZ3       1107            0.0000000000
     15654      5218  TIP3      H2            -40.6474103985      -17.3981157466       14.2660053365  WZ3       1107            0.0000000000
     15655      5219  TIP3      OH2           -22.1959203985      -21.1159357466       15.7532353365  WZ3       1108            0.0000000000
     15656      5219  TIP3      H1            -21.8462203985      -21.7695857466       15.1477053365  WZ3       1108            0.0000000000
     15657      5219  TIP3      H2            -22.0489703985      -20.2785257466       15.3134953365  WZ3       1108            0.0000000000
     15658      5220  TIP3      OH2           -24.5066203985      -19.1512957466        2.2361053365  WZ3       1109            0.0000000000
     15659      5220  TIP3      H1            -24.3241203985      -19.6001457466        3.0616053365  WZ3       1109            0.0000000000
     15660      5220  TIP3      H2            -25.1063303985      -19.7358557466        1.7725653365  WZ3       1109            0.0000000000
     15661      5221  TIP3      OH2           -38.9766103985      -18.3359257466        6.7679453365  WZ3       1110            0.0000000000
     15662      5221  TIP3      H1            -38.5314503985      -19.1276757466        7.0699153365  WZ3       1110            0.0000000000
     15663      5221  TIP3      H2            -38.5103103985      -17.6194057466        7.1985053365  WZ3       1110            0.0000000000
     15664      5222  TIP3      OH2           -40.6725803985      -15.3366257466        7.8369653365  WZ3       1111            0.0000000000
     15665      5222  TIP3      H1            -40.1806003985      -15.5575757466        7.0461653365  WZ3       1111            0.0000000000
     15666      5222  TIP3      H2            -40.3104903985      -14.4962857466        8.1179153365  WZ3       1111            0.0000000000
     15667      5223  TIP3      OH2           -22.6762003985      -19.0064757466       14.1023653365  WZ3       1112            0.0000000000
     15668      5223  TIP3      H1            -23.5936303985      -18.7357657466       14.0667153365  WZ3       1112            0.0000000000
     15669      5223  TIP3      H2            -22.5532603985      -19.5416357466       13.3183353365  WZ3       1112            0.0000000000
     15670      5224  TIP3      OH2           -22.6400003985      -19.0834857466       -1.2358646635  WZ3       1113            0.0000000000
     15671      5224  TIP3      H1            -22.2277403985      -19.8049157466       -1.7110646635  WZ3       1113            0.0000000000
     15672      5224  TIP3      H2            -21.9583503985      -18.4140257466       -1.1774346635  WZ3       1113            0.0000000000
     15673      5225  TIP3      OH2           -25.5882103985       -4.0945457466        3.8369453365  WZ3       1115            0.0000000000
     15674      5225  TIP3      H1            -24.9359203985       -4.4423357466        3.2288553365  WZ3       1115            0.0000000000
     15675      5225  TIP3      H2            -25.0778303985       -3.6062257466        4.4829153365  WZ3       1115            0.0000000000
     15676      5226  TIP3      OH2           -38.2034603985       -7.1654057466       14.3800353365  WZ3       1117            0.0000000000
     15677      5226  TIP3      H1            -39.0242103985       -6.9907557466       13.9195053365  WZ3       1117            0.0000000000
     15678      5226  TIP3      H2            -38.4556803985       -7.2389357466       15.3004753365  WZ3       1117            0.0000000000
     15679      5227  TIP3      OH2           -35.2491703985       -6.1912857466       10.6384353365  WZ3       1118            0.0000000000
     15680      5227  TIP3      H1            -35.6740603985       -5.3814357466       10.3558953365  WZ3       1118            0.0000000000
     15681      5227  TIP3      H2            -34.3448903985       -6.1058757466       10.3364153365  WZ3       1118            0.0000000000
     15682      5228  TIP3      OH2           -30.9380303985       -4.7922857466       13.5978053365  WZ3       1119            0.0000000000
     15683      5228  TIP3      H1            -30.7532803985       -5.1256757466       14.4758353365  WZ3       1119            0.0000000000
     15684      5228  TIP3      H2            -30.0915803985       -4.4824257466       13.2757253365  WZ3       1119            0.0000000000
     15685      5229  TIP3      OH2           -28.5929903985       -3.5063957466       12.8419453365  WZ3       1120            0.0000000000
     15686      5229  TIP3      H1            -27.9161003985       -4.1391657466       12.6018653365  WZ3       1120            0.0000000000
     15687      5229  TIP3      H2            -28.2711103985       -3.1053457466       13.6492753365  WZ3       1120            0.0000000000
     15688      5230  TIP3      OH2           -23.6756103985      -20.9168457466       11.9214453365  WZ3       1121            0.0000000000
     15689      5230  TIP3      H1            -24.4882603985      -20.5918157466       11.5339153365  WZ3       1121            0.0000000000
     15690      5230  TIP3      H2            -23.4427603985      -21.6769957466       11.3883553365  WZ3       1121            0.0000000000
     15691      5231  TIP3      OH2           -37.8475003985       -2.9348957466       10.6859653365  WZ3       1122            0.0000000000
     15692      5231  TIP3      H1            -38.5678603985       -2.4947957466       10.2347353365  WZ3       1122            0.0000000000
     15693      5231  TIP3      H2            -38.2131003985       -3.1854257466       11.5343653365  WZ3       1122            0.0000000000
     15694      5232  TIP3      OH2           -35.3802403985       -3.3345057466        9.7156853365  WZ3       1123            0.0000000000
     15695      5232  TIP3      H1            -36.2450203985       -3.2626557466       10.1196953365  WZ3       1123            0.0000000000
     15696      5232  TIP3      H2            -35.4353403985       -2.7877757466        8.9319353365  WZ3       1123            0.0000000000
     15697      5233  TIP3      OH2           -30.6696803985       -3.4466157466        8.8912853365  WZ3       1124            0.0000000000
     15698      5233  TIP3      H1            -31.1262803985       -2.9176457466        8.2371253365  WZ3       1124            0.0000000000
     15699      5233  TIP3      H2            -30.5068803985       -2.8434757466        9.6165153365  WZ3       1124            0.0000000000
     15700      5234  TIP3      OH2           -28.3420503985       -4.5686557466        9.8363153365  WZ3       1125            0.0000000000
     15701      5234  TIP3      H1            -29.2466803985       -4.4036357466        9.5705253365  WZ3       1125            0.0000000000
     15702      5234  TIP3      H2            -27.9131903985       -3.7154357466        9.7706553365  WZ3       1125            0.0000000000
     15703      5235  TIP3      OH2           -25.7378603985       -2.9987457466       10.1310953365  WZ3       1126            0.0000000000
     15704      5235  TIP3      H1            -25.9196603985       -2.0828557466        9.9205853365  WZ3       1126            0.0000000000
     15705      5235  TIP3      H2            -25.5610803985       -3.4090357466        9.2845553365  WZ3       1126            0.0000000000
     15706      5236  TIP3      OH2           -38.4326903985       -4.3116457466        7.5961453365  WZ3       1127            0.0000000000
     15707      5236  TIP3      H1            -38.4510903985       -4.7371357466        8.4533753365  WZ3       1127            0.0000000000
     15708      5236  TIP3      H2            -37.6279003985       -4.6301457466        7.1873653365  WZ3       1127            0.0000000000
     15709      5237  TIP3      OH2           -36.2913803985       -5.6017757466        6.2511353365  WZ3       1128            0.0000000000
     15710      5237  TIP3      H1            -36.5103103985       -6.5180357466        6.4207353365  WZ3       1128            0.0000000000
     15711      5237  TIP3      H2            -35.4671603985       -5.4617357466        6.7172753365  WZ3       1128            0.0000000000
     15712      5238  TIP3      OH2           -33.7541303985       -5.1318457466        7.0999353365  WZ3       1129            0.0000000000
     15713      5238  TIP3      H1            -33.5415603985       -6.0199457466        6.8130253365  WZ3       1129            0.0000000000
     15714      5238  TIP3      H2            -33.6896203985       -5.1660757466        8.0543353365  WZ3       1129            0.0000000000
     15715      5239  TIP3      OH2           -30.2457603985      -19.4677857466        6.2442653365  WZ3       1130            0.0000000000
     15716      5239  TIP3      H1            -30.9200803985      -20.0972257466        6.4998453365  WZ3       1130            0.0000000000
     15717      5239  TIP3      H2            -29.6818403985      -19.9518957466        5.6410553365  WZ3       1130            0.0000000000
     15718      5240  TIP3      OH2           -25.1030403985      -21.3603857466        6.3569753365  WZ3       1131            0.0000000000
     15719      5240  TIP3      H1            -24.4992803985      -20.8128457466        5.8550753365  WZ3       1131            0.0000000000
     15720      5240  TIP3      H2            -25.9728403985      -21.0413457466        6.1163853365  WZ3       1131            0.0000000000
     15721      5241  TIP3      OH2           -23.3760003985      -20.2215157466        4.6900653365  WZ3       1132            0.0000000000
     15722      5241  TIP3      H1            -22.7642503985      -20.7359457466        4.1634253365  WZ3       1132            0.0000000000
     15723      5241  TIP3      H2            -22.9936603985      -19.3443057466        4.7135053365  WZ3       1132            0.0000000000
     15724      5242  TIP3      OH2           -33.3397503985      -20.9070457466        3.8795653365  WZ3       1135            0.0000000000
     15725      5242  TIP3      H1            -32.4654103985      -20.5186157466        3.8499953365  WZ3       1135            0.0000000000
     15726      5242  TIP3      H2            -33.4756703985      -21.1222657466        4.8022853365  WZ3       1135            0.0000000000
     15727      5243  TIP3      OH2           -27.7829103985      -20.8770657466        5.5287353365  WZ3       1136            0.0000000000
     15728      5243  TIP3      H1            -27.7067503985      -20.7819057466        4.5793353365  WZ3       1136            0.0000000000
     15729      5243  TIP3      H2            -28.0579903985      -21.7847757466        5.6576453365  WZ3       1136            0.0000000000
     15730      5244  TIP3      OH2           -26.4296503985      -20.8512857466        1.2212353365  WZ3       1137            0.0000000000
     15731      5244  TIP3      H1            -27.1325403985      -20.2363657466        1.0113753365  WZ3       1137            0.0000000000
     15732      5244  TIP3      H2            -26.8745103985      -21.6886157466        1.3523253365  WZ3       1137            0.0000000000
     15733      5245  TIP3      OH2           -39.1817203985       -5.0877257466        0.7673753365  WZ3       1138            0.0000000000
     15734      5245  TIP3      H1            -39.8667303985       -5.1258357466        0.0998853365  WZ3       1138            0.0000000000
     15735      5245  TIP3      H2            -39.1780003985       -4.1749657466        1.0555853365  WZ3       1138            0.0000000000
     15736      5246  TIP3      OH2           -37.2217603985      -19.1197957466       -1.6877246635  WZ3       1139            0.0000000000
     15737      5246  TIP3      H1            -36.7304203985      -19.7495557466       -2.2151746635  WZ3       1139            0.0000000000
     15738      5246  TIP3      H2            -36.5981303985      -18.8238557466       -1.0246046635  WZ3       1139            0.0000000000
     15739      5247  TIP3      OH2           -32.1957503985      -18.8266457466        0.7693253365  WZ3       1140            0.0000000000
     15740      5247  TIP3      H1            -32.0176203985      -19.4733257466        1.4521853365  WZ3       1140            0.0000000000
     15741      5247  TIP3      H2            -32.2491303985      -17.9928757466        1.2364353365  WZ3       1140            0.0000000000
     15742      5248  TIP3      OH2           -30.3173703985       -3.8782357466       -0.8350046635  WZ3       1141            0.0000000000
     15743      5248  TIP3      H1            -29.4513503985       -3.5114957466       -1.0131846635  WZ3       1141            0.0000000000
     15744      5248  TIP3      H2            -30.5640903985       -4.3174357466       -1.6489246635  WZ3       1141            0.0000000000
     15745      5249  TIP3      OH2           -23.6084103985       -4.3152057466        1.8441053365  WZ3       1142            0.0000000000
     15746      5249  TIP3      H1            -23.8027003985       -5.0629957466        1.2790653365  WZ3       1142            0.0000000000
     15747      5249  TIP3      H2            -23.6474003985       -3.5571957466        1.2608953365  WZ3       1142            0.0000000000
     15748      5250  TIP3      OH2           -37.9612103985      -20.3195657466       13.5838753365  WZ3       1143            0.0000000000
     15749      5250  TIP3      H1            -38.3273903985      -21.0853057466       14.0263453365  WZ3       1143            0.0000000000
     15750      5250  TIP3      H2            -37.0483603985      -20.2905457466       13.8703853365  WZ3       1143            0.0000000000
     15751      5251  TIP3      OH2           -35.9881303985      -20.9691257466       15.1195853365  WZ3       1144            0.0000000000
     15752      5251  TIP3      H1            -35.0897703985      -21.2431057466       14.9349253365  WZ3       1144            0.0000000000
     15753      5251  TIP3      H2            -36.3748203985      -21.7115257466       15.5838453365  WZ3       1144            0.0000000000
     15754      5252  TIP3      OH2           -37.3636003985       -4.1676457466       -2.2074146635  WZ3       1145            0.0000000000
     15755      5252  TIP3      H1            -37.6311403985       -3.8813557466       -1.3341046635  WZ3       1145            0.0000000000
     15756      5252  TIP3      H2            -36.5923403985       -4.7137257466       -2.0551646635  WZ3       1145            0.0000000000
     15757      5253  TIP3      OH2           -27.5669003985      -21.6365957466       15.3018653365  WZ3       1146            0.0000000000
     15758      5253  TIP3      H1            -27.4901803985      -22.0625257466       16.1556353365  WZ3       1146            0.0000000000
     15759      5253  TIP3      H2            -26.6732403985      -21.6231257466       14.9592153365  WZ3       1146            0.0000000000
     15760      5254  TIP3      OH2           -24.3907903985       -5.5639657466       13.9942853365  WZ3       1147            0.0000000000
     15761      5254  TIP3      H1            -25.1726003985       -5.7501657466       13.4743453365  WZ3       1147            0.0000000000
     15762      5254  TIP3      H2            -24.4628003985       -4.6345357466       14.2115353365  WZ3       1147            0.0000000000
     15763      5255  TIP3      OH2            -9.9847503985      -11.6775257466        4.0250053365  WZ3       1148            0.0000000000
     15764      5255  TIP3      H1             -9.8956403985      -10.7337057466        3.8927153365  WZ3       1148            0.0000000000
     15765      5255  TIP3      H2            -10.6229903985      -11.9528857466        3.3669453365  WZ3       1148            0.0000000000
     15766      5256  TIP3      OH2           -11.0516203985      -12.4224557466        7.4438253365  WZ3       1149            0.0000000000
     15767      5256  TIP3      H1            -11.0898703985      -13.0688257466        8.1487853365  WZ3       1149            0.0000000000
     15768      5256  TIP3      H2            -11.3739703985      -12.8890157466        6.6726953365  WZ3       1149            0.0000000000
     15769      5257  TIP3      OH2           -18.6831203985      -12.8082457466        9.0368153365  WZ3       1150            0.0000000000
     15770      5257  TIP3      H1            -18.6419103985      -13.4339157466        9.7600553365  WZ3       1150            0.0000000000
     15771      5257  TIP3      H2            -17.9803503985      -12.1843857466        9.2188553365  WZ3       1150            0.0000000000
     15772      5258  TIP3      OH2            -7.3456003985       -9.4834157466        5.7453353365  WZ3       1151            0.0000000000
     15773      5258  TIP3      H1             -7.7863303985      -10.2038157466        6.1958953365  WZ3       1151            0.0000000000
     15774      5258  TIP3      H2             -7.3586303985       -8.7626957466        6.3751053365  WZ3       1151            0.0000000000
     15775      5259  TIP3      OH2           -17.7598103985       -8.3583557466        7.5717253365  WZ3       1152            0.0000000000
     15776      5259  TIP3      H1            -18.1292903985       -9.1603057466        7.2021553365  WZ3       1152            0.0000000000
     15777      5259  TIP3      H2            -16.8187003985       -8.5268657466        7.6180653365  WZ3       1152            0.0000000000
     15778      5260  TIP3      OH2           -21.1497603985      -14.6980957466        2.9646053365  WZ3       1153            0.0000000000
     15779      5260  TIP3      H1            -21.5974203985      -13.8522257466        2.9462553365  WZ3       1153            0.0000000000
     15780      5260  TIP3      H2            -21.7106403985      -15.2776757466        2.4491153365  WZ3       1153            0.0000000000
     15781      5261  TIP3      OH2           -20.4391503985      -12.5361357466        5.0904053365  WZ3       1154            0.0000000000
     15782      5261  TIP3      H1            -20.2258003985      -13.3059757466        5.6177053365  WZ3       1154            0.0000000000
     15783      5261  TIP3      H2            -19.7013903985      -12.4464657466        4.4871653365  WZ3       1154            0.0000000000
     15784      5262  TIP3      OH2           -10.2340503985       -4.3792457466        5.9573753365  WZ3       1155            0.0000000000
     15785      5262  TIP3      H1             -9.6144103985       -5.0557757466        5.6842953365  WZ3       1155            0.0000000000
     15786      5262  TIP3      H2            -10.4423103985       -4.5971657466        6.8658653365  WZ3       1155            0.0000000000
     15787      5263  TIP3      OH2           -12.6621803985       -9.9903157466        7.8499253365  WZ3       1156            0.0000000000
     15788      5263  TIP3      H1            -12.3583903985      -10.6761757466        7.2553353365  WZ3       1156            0.0000000000
     15789      5263  TIP3      H2            -11.9407803985       -9.8714457466        8.4677253365  WZ3       1156            0.0000000000
     15790      5264  TIP3      OH2            -3.9992003985      -18.3887857466        8.7105453365  WZ3       1157            0.0000000000
     15791      5264  TIP3      H1             -3.9499803985      -17.7786657466        9.4464553365  WZ3       1157            0.0000000000
     15792      5264  TIP3      H2             -3.5736903985      -17.9276957466        7.9876553365  WZ3       1157            0.0000000000
     15793      5265  TIP3      OH2            -9.5214803985      -15.5960757466        8.1774053365  WZ3       1158            0.0000000000
     15794      5265  TIP3      H1             -9.3788903985      -16.5423757466        8.1975653365  WZ3       1158            0.0000000000
     15795      5265  TIP3      H2             -9.6275803985      -15.3890957466        7.2488953365  WZ3       1158            0.0000000000
     15796      5266  TIP3      OH2           -16.3666503985      -17.4944357466        5.4498853365  WZ3       1159            0.0000000000
     15797      5266  TIP3      H1            -16.3235403985      -16.6345857466        5.0315153365  WZ3       1159            0.0000000000
     15798      5266  TIP3      H2            -16.8242403985      -18.0469657466        4.8162053365  WZ3       1159            0.0000000000
     15799      5267  TIP3      OH2            -8.6443803985      -17.3638757466        3.8507153365  WZ3       1160            0.0000000000
     15800      5267  TIP3      H1             -7.9979503985      -17.6925557466        4.4754753365  WZ3       1160            0.0000000000
     15801      5267  TIP3      H2             -8.1344403985      -16.8459757466        3.2278553365  WZ3       1160            0.0000000000
     15802      5268  TIP3      OH2           -19.7465003985      -15.0978557466        6.2120253365  WZ3       1161            0.0000000000
     15803      5268  TIP3      H1            -19.0928403985      -15.6476857466        6.6440353365  WZ3       1161            0.0000000000
     15804      5268  TIP3      H2            -19.7225703985      -15.3719557466        5.2952253365  WZ3       1161            0.0000000000
     15805      5269  TIP3      OH2           -14.5900503985      -13.5477257466        5.4271753365  WZ3       1162            0.0000000000
     15806      5269  TIP3      H1            -13.9739503985      -14.0741857466        5.9365753365  WZ3       1162            0.0000000000
     15807      5269  TIP3      H2            -15.1761703985      -14.1878557466        5.0235353365  WZ3       1162            0.0000000000
     15808      5270  TIP3      OH2            -3.6077403985      -16.9108657466       10.9465253365  WZ3       1163            0.0000000000
     15809      5270  TIP3      H1             -4.2962803985      -16.2527957466       10.8511853365  WZ3       1163            0.0000000000
     15810      5270  TIP3      H2             -3.5922803985      -17.1080757466       11.8830653365  WZ3       1163            0.0000000000
     15811      5271  TIP3      OH2           -17.5564603985      -18.5765957466        9.5239653365  WZ3       1164            0.0000000000
     15812      5271  TIP3      H1            -17.7752903985      -18.0465357466        8.7575653365  WZ3       1164            0.0000000000
     15813      5271  TIP3      H2            -18.2243703985      -18.3500457466       10.1711053365  WZ3       1164            0.0000000000
     15814      5272  TIP3      OH2           -10.1874803985       -9.0764857466        3.0678753365  WZ3       1165            0.0000000000
     15815      5272  TIP3      H1            -10.4829703985       -9.3992557466        2.2165653365  WZ3       1165            0.0000000000
     15816      5272  TIP3      H2            -10.5117003985       -8.1768157466        3.1091353365  WZ3       1165            0.0000000000
     15817      5273  TIP3      OH2           -14.9873203985      -10.9010257466        9.8113353365  WZ3       1166            0.0000000000
     15818      5273  TIP3      H1            -15.7274103985      -10.3028757466        9.9148553365  WZ3       1166            0.0000000000
     15819      5273  TIP3      H2            -14.2733703985      -10.3470657466        9.4956953365  WZ3       1166            0.0000000000
     15820      5274  TIP3      OH2            -6.8805403985      -18.0729457466        5.8313053365  WZ3       1167            0.0000000000
     15821      5274  TIP3      H1             -7.0957403985      -18.8386057466        6.3639053365  WZ3       1167            0.0000000000
     15822      5274  TIP3      H2             -6.2248003985      -17.6004857466        6.3441553365  WZ3       1167            0.0000000000
     15823      5275  TIP3      OH2           -17.9627303985      -16.6844157466        7.4761853365  WZ3       1168            0.0000000000
     15824      5275  TIP3      H1            -17.3491003985      -16.0516557466        7.8494253365  WZ3       1168            0.0000000000
     15825      5275  TIP3      H2            -17.4506603985      -17.1569157466        6.8198753365  WZ3       1168            0.0000000000
     15826      5276  TIP3      OH2           -16.5798903985       -8.9367257466       10.5984853365  WZ3       1169            0.0000000000
     15827      5276  TIP3      H1            -16.5851303985       -8.0573757466       10.2204153365  WZ3       1169            0.0000000000
     15828      5276  TIP3      H2            -17.4334803985       -9.0203157466       11.0234753365  WZ3       1169            0.0000000000
     15829      5277  TIP3      OH2           -20.4588003985       -9.2659357466        1.3804153365  WZ3       1170            0.0000000000
     15830      5277  TIP3      H1            -20.7307103985       -9.0368357466        0.4917053365  WZ3       1170            0.0000000000
     15831      5277  TIP3      H2            -20.4132303985       -8.4280557466        1.8409453365  WZ3       1170            0.0000000000
     15832      5278  TIP3      OH2            -6.8338303985       -7.6443457466        8.0932653365  WZ3       1171            0.0000000000
     15833      5278  TIP3      H1             -7.7754603985       -7.5859557466        8.2549553365  WZ3       1171            0.0000000000
     15834      5278  TIP3      H2             -6.5572203985       -6.7382957466        7.9562353365  WZ3       1171            0.0000000000
     15835      5279  TIP3      OH2            -6.5331303985      -19.3578157466        9.5106553365  WZ3       1172            0.0000000000
     15836      5279  TIP3      H1             -7.2692103985      -18.7471057466        9.4727853365  WZ3       1172            0.0000000000
     15837      5279  TIP3      H2             -5.8497303985      -18.9429157466        8.9842953365  WZ3       1172            0.0000000000
     15838      5280  TIP3      OH2           -13.5299903985      -21.2710857466        6.9764553365  WZ3       1173            0.0000000000
     15839      5280  TIP3      H1            -13.6475703985      -22.2194857466        6.9222853365  WZ3       1173            0.0000000000
     15840      5280  TIP3      H2            -14.3849803985      -20.9384757466        7.2495653365  WZ3       1173            0.0000000000
     15841      5281  TIP3      OH2            -8.5817103985       -5.8629957466        4.7184253365  WZ3       1174            0.0000000000
     15842      5281  TIP3      H1             -8.1564803985       -6.5702057466        4.2333853365  WZ3       1174            0.0000000000
     15843      5281  TIP3      H2             -8.2647103985       -5.0617257466        4.3016453365  WZ3       1174            0.0000000000
     15844      5282  TIP3      OH2            -7.4220603985       -7.9621457466        3.2270853365  WZ3       1175            0.0000000000
     15845      5282  TIP3      H1             -7.6795803985       -8.6521357466        2.6156753365  WZ3       1175            0.0000000000
     15846      5282  TIP3      H2             -7.3509803985       -8.4050257466        4.0726753365  WZ3       1175            0.0000000000
     15847      5283  TIP3      OH2            -5.7360403985       -9.3954757466       11.7044353365  WZ3       1176            0.0000000000
     15848      5283  TIP3      H1             -5.5964103985       -9.9872257466       10.9651353365  WZ3       1176            0.0000000000
     15849      5283  TIP3      H2             -5.5687603985       -8.5228857466       11.3483153365  WZ3       1176            0.0000000000
     15850      5284  TIP3      OH2           -11.2635003985      -12.4335257466        1.4770353365  WZ3       1177            0.0000000000
     15851      5284  TIP3      H1            -11.9749503985      -11.8985557466        1.1250853365  WZ3       1177            0.0000000000
     15852      5284  TIP3      H2            -10.5725403985      -12.3783157466        0.8169253365  WZ3       1177            0.0000000000
     15853      5285  TIP3      OH2           -11.2095803985      -13.9760957466       -1.4844646635  WZ3       1178            0.0000000000
     15854      5285  TIP3      H1            -10.5085903985      -13.9534057466       -0.8330646635  WZ3       1178            0.0000000000
     15855      5285  TIP3      H2            -10.9072903985      -14.6041257466       -2.1405346635  WZ3       1178            0.0000000000
     15856      5286  TIP3      OH2            -3.8941103985      -13.0556757466        9.7704753365  WZ3       1179            0.0000000000
     15857      5286  TIP3      H1             -4.5467003985      -12.3611157466        9.8595653365  WZ3       1179            0.0000000000
     15858      5286  TIP3      H2             -3.4290803985      -12.8455857466        8.9606353365  WZ3       1179            0.0000000000
     15859      5287  TIP3      OH2            -7.8577303985      -12.2241957466        2.4286253365  WZ3       1180            0.0000000000
     15860      5287  TIP3      H1             -8.5896303985      -11.9958257466        3.0016853365  WZ3       1180            0.0000000000
     15861      5287  TIP3      H2             -7.4105103985      -12.9379257466        2.8833753365  WZ3       1180            0.0000000000
     15862      5288  TIP3      OH2            -7.9603803985      -14.0499357466       11.4963253365  WZ3       1181            0.0000000000
     15863      5288  TIP3      H1             -7.8804703985      -13.2864957466       12.0681753365  WZ3       1181            0.0000000000
     15864      5288  TIP3      H2             -8.5616103985      -13.7706957466       10.8058353365  WZ3       1181            0.0000000000
     15865      5289  TIP3      OH2           -16.2123603985      -11.5935757466        4.3111253365  WZ3       1182            0.0000000000
     15866      5289  TIP3      H1            -16.5428403985      -11.9642357466        3.4928253365  WZ3       1182            0.0000000000
     15867      5289  TIP3      H2            -15.6239503985      -12.2641757466        4.6579553365  WZ3       1182            0.0000000000
     15868      5290  TIP3      OH2           -14.8456103985       -8.1655157466        6.9923453365  WZ3       1183            0.0000000000
     15869      5290  TIP3      H1            -14.9404803985       -8.7442057466        6.2358053365  WZ3       1183            0.0000000000
     15870      5290  TIP3      H2            -14.1162503985       -8.5369457466        7.4886253365  WZ3       1183            0.0000000000
     15871      5291  TIP3      OH2           -15.8458103985      -12.8250157466        7.9446253365  WZ3       1184            0.0000000000
     15872      5291  TIP3      H1            -15.2805603985      -12.7035957466        7.1817453365  WZ3       1184            0.0000000000
     15873      5291  TIP3      H2            -15.5269203985      -12.1875157466        8.5834753365  WZ3       1184            0.0000000000
     15874      5292  TIP3      OH2            -9.5365903985       -7.3218257466        8.6786753365  WZ3       1185            0.0000000000
     15875      5292  TIP3      H1             -9.7769303985       -6.6595157466        9.3265953365  WZ3       1185            0.0000000000
     15876      5292  TIP3      H2             -9.7347703985       -8.1563057466        9.1036353365  WZ3       1185            0.0000000000
     15877      5293  TIP3      OH2           -14.9657403985       -8.4257457466       12.6618153365  WZ3       1186            0.0000000000
     15878      5293  TIP3      H1            -15.2769903985       -7.6434257466       13.1171353365  WZ3       1186            0.0000000000
     15879      5293  TIP3      H2            -15.6157203985       -8.5788357466       11.9760153365  WZ3       1186            0.0000000000
     15880      5294  TIP3      OH2            -8.9867803985      -13.0619057466        0.1137453365  WZ3       1187            0.0000000000
     15881      5294  TIP3      H1             -8.4072303985      -12.9118757466        0.8606353365  WZ3       1187            0.0000000000
     15882      5294  TIP3      H2             -8.5727803985      -12.5911657466       -0.6096146635  WZ3       1187            0.0000000000
     15883      5295  TIP3      OH2           -18.0457503985      -12.2276357466       11.8903853365  WZ3       1188            0.0000000000
     15884      5295  TIP3      H1            -17.9754303985      -11.5769557466       12.5888853365  WZ3       1188            0.0000000000
     15885      5295  TIP3      H2            -18.9365303985      -12.1248857466       11.5554753365  WZ3       1188            0.0000000000
     15886      5296  TIP3      OH2           -11.2602903985       -6.3250557466        3.5490553365  WZ3       1189            0.0000000000
     15887      5296  TIP3      H1            -10.7865303985       -6.0294257466        4.3264753365  WZ3       1189            0.0000000000
     15888      5296  TIP3      H2            -11.8233603985       -5.5868957466        3.3160153365  WZ3       1189            0.0000000000
     15889      5297  TIP3      OH2           -16.7261503985       -6.3542457466       13.4251953365  WZ3       1190            0.0000000000
     15890      5297  TIP3      H1            -16.7186203985       -6.4902757466       12.4777453365  WZ3       1190            0.0000000000
     15891      5297  TIP3      H2            -17.6421103985       -6.4714357466       13.6771953365  WZ3       1190            0.0000000000
     15892      5298  TIP3      OH2            -5.2879403985      -21.3118657466       -0.0732846635  WZ3       1191            0.0000000000
     15893      5298  TIP3      H1             -6.1878703985      -21.1729657466        0.2217753365  WZ3       1191            0.0000000000
     15894      5298  TIP3      H2             -5.0361003985      -20.4804057466       -0.4751146635  WZ3       1191            0.0000000000
     15895      5299  TIP3      OH2           -17.2220903985      -12.5241457466        1.9004053365  WZ3       1192            0.0000000000
     15896      5299  TIP3      H1            -17.5139603985      -11.7559757466        1.4095353365  WZ3       1192            0.0000000000
     15897      5299  TIP3      H2            -17.8965703985      -13.1835257466        1.7375453365  WZ3       1192            0.0000000000
     15898      5300  TIP3      OH2            -4.0988003985       -6.9456257466       -1.6968946635  WZ3       1193            0.0000000000
     15899      5300  TIP3      H1             -4.0254503985       -6.0066057466       -1.5263646635  WZ3       1193            0.0000000000
     15900      5300  TIP3      H2             -3.1932903985       -7.2507657466       -1.7531646635  WZ3       1193            0.0000000000
     15901      5301  TIP3      OH2           -21.1290803985      -10.1612257466       10.7153853365  WZ3       1194            0.0000000000
     15902      5301  TIP3      H1            -21.6302403985      -10.1892857466        9.9003553365  WZ3       1194            0.0000000000
     15903      5301  TIP3      H2            -21.1237103985      -11.0669057466       11.0251153365  WZ3       1194            0.0000000000
     15904      5302  TIP3      OH2           -21.3788103985       -7.3808457466        7.5994053365  WZ3       1195            0.0000000000
     15905      5302  TIP3      H1            -20.4327503985       -7.5251457466        7.5803553365  WZ3       1195            0.0000000000
     15906      5302  TIP3      H2            -21.4911803985       -6.5965657466        8.1365253365  WZ3       1195            0.0000000000
     15907      5303  TIP3      OH2            -3.1809603985       -6.7148757466       13.2817753365  WZ3       1196            0.0000000000
     15908      5303  TIP3      H1             -3.2302803985       -7.6700657466       13.2445353365  WZ3       1196            0.0000000000
     15909      5303  TIP3      H2             -4.0077303985       -6.4473457466       13.6831553365  WZ3       1196            0.0000000000
     15910      5304  TIP3      OH2           -12.2025603985       -7.1409557466       12.1579153365  WZ3       1197            0.0000000000
     15911      5304  TIP3      H1            -12.1151003985       -6.3144957466       12.6328253365  WZ3       1197            0.0000000000
     15912      5304  TIP3      H2            -13.0660503985       -7.4705757466       12.4068453365  WZ3       1197            0.0000000000
     15913      5305  TIP3      OH2           -11.7879803985       -3.3685857466        1.9639753365  WZ3       1198            0.0000000000
     15914      5305  TIP3      H1            -11.8633803985       -3.4898657466        1.0174953365  WZ3       1198            0.0000000000
     15915      5305  TIP3      H2            -11.7551103985       -2.4193157466        2.0824353365  WZ3       1198            0.0000000000
     15916      5306  TIP3      OH2           -18.1346003985       -4.5798857466        3.7448753365  WZ3       1199            0.0000000000
     15917      5306  TIP3      H1            -17.9825603985       -4.9278457466        4.6235253365  WZ3       1199            0.0000000000
     15918      5306  TIP3      H2            -18.9855603985       -4.9361557466        3.4895953365  WZ3       1199            0.0000000000
     15919      5307  TIP3      OH2            -8.6863803985       -4.2145657466       -1.0337846635  WZ3       1200            0.0000000000
     15920      5307  TIP3      H1             -8.3115403985       -4.9589557466       -1.5045246635  WZ3       1200            0.0000000000
     15921      5307  TIP3      H2             -8.6820103985       -4.4845057466       -0.1154546635  WZ3       1200            0.0000000000
     15922      5308  TIP3      OH2            -9.0175703985       -4.2888557466        1.7154353365  WZ3       1201            0.0000000000
     15923      5308  TIP3      H1             -9.9525903985       -4.1886657466        1.8941353365  WZ3       1201            0.0000000000
     15924      5308  TIP3      H2             -8.7373803985       -4.9982557466        2.2937553365  WZ3       1201            0.0000000000
     15925      5309  TIP3      OH2            -6.0289803985      -15.2216257466       13.7619953365  WZ3       1202            0.0000000000
     15926      5309  TIP3      H1             -6.4363003985      -14.7410657466       13.0413253365  WZ3       1202            0.0000000000
     15927      5309  TIP3      H2             -5.9884103985      -16.1270257466       13.4540753365  WZ3       1202            0.0000000000
     15928      5310  TIP3      OH2           -18.8800303985       -8.8376857466       11.7586653365  WZ3       1203            0.0000000000
     15929      5310  TIP3      H1            -18.6639003985       -9.1991257466       12.6182453365  WZ3       1203            0.0000000000
     15930      5310  TIP3      H2            -19.7355603985       -9.2123057466       11.5490153365  WZ3       1203            0.0000000000
     15931      5311  TIP3      OH2           -16.2612303985      -20.3676357466        7.7540853365  WZ3       1204            0.0000000000
     15932      5311  TIP3      H1            -17.1228603985      -20.4548157466        7.3463753365  WZ3       1204            0.0000000000
     15933      5311  TIP3      H2            -16.2836603985      -19.5116257466        8.1818453365  WZ3       1204            0.0000000000
     15934      5312  TIP3      OH2           -11.5984503985      -20.6455957466       11.1287853365  WZ3       1205            0.0000000000
     15935      5312  TIP3      H1            -11.1781403985      -21.0608857466       11.8818453365  WZ3       1205            0.0000000000
     15936      5312  TIP3      H2            -12.5314903985      -20.8242657466       11.2459853365  WZ3       1205            0.0000000000
     15937      5313  TIP3      OH2            -8.2719603985      -16.8900757466       11.9822353365  WZ3       1206            0.0000000000
     15938      5313  TIP3      H1             -8.7860103985      -17.0158557466       12.7798353365  WZ3       1206            0.0000000000
     15939      5313  TIP3      H2             -8.4274903985      -15.9777657466       11.7378553365  WZ3       1206            0.0000000000
     15940      5314  TIP3      OH2            -7.5094703985      -12.0290757466       -2.2564646635  WZ3       1207            0.0000000000
     15941      5314  TIP3      H1             -7.4673903985      -12.2516857466       -3.1864646635  WZ3       1207            0.0000000000
     15942      5314  TIP3      H2             -6.6602603985      -11.6303657466       -2.0664746635  WZ3       1207            0.0000000000
     15943      5315  TIP3      OH2           -11.9367203985      -18.1532557466       -1.5861346635  WZ3       1208            0.0000000000
     15944      5315  TIP3      H1            -12.1902403985      -18.1340957466       -0.6633246635  WZ3       1208            0.0000000000
     15945      5315  TIP3      H2            -12.1935103985      -19.0247157466       -1.8875146635  WZ3       1208            0.0000000000
     15946      5316  TIP3      OH2           -16.1702203985      -15.4021857466        8.8491053365  WZ3       1209            0.0000000000
     15947      5316  TIP3      H1            -16.8120103985      -15.4424557466        9.5581153365  WZ3       1209            0.0000000000
     15948      5316  TIP3      H2            -16.1330203985      -14.4757157466        8.6114053365  WZ3       1209            0.0000000000
     15949      5317  TIP3      OH2           -16.1733103985      -15.1811757466        3.7611053365  WZ3       1210            0.0000000000
     15950      5317  TIP3      H1            -17.0660203985      -15.5215657466        3.7024853365  WZ3       1210            0.0000000000
     15951      5317  TIP3      H2            -15.7226503985      -15.5580857466        3.0054253365  WZ3       1210            0.0000000000
     15952      5318  TIP3      OH2           -10.6377603985      -14.7651457466        2.5781853365  WZ3       1211            0.0000000000
     15953      5318  TIP3      H1            -11.0467303985      -13.9502857466        2.2866653365  WZ3       1211            0.0000000000
     15954      5318  TIP3      H2             -9.9171403985      -14.9051357466        1.9638953365  WZ3       1211            0.0000000000
     15955      5319  TIP3      OH2           -11.5356003985      -14.5895057466       14.0662553365  WZ3       1212            0.0000000000
     15956      5319  TIP3      H1            -12.0982203985      -15.2943457466       14.3870353365  WZ3       1212            0.0000000000
     15957      5319  TIP3      H2            -10.7092603985      -14.7103157466       14.5340153365  WZ3       1212            0.0000000000
     15958      5320  TIP3      OH2            -9.6329903985      -15.3191057466        5.3921553365  WZ3       1213            0.0000000000
     15959      5320  TIP3      H1             -9.8285403985      -14.7134257466        4.6772153365  WZ3       1213            0.0000000000
     15960      5320  TIP3      H2             -9.4517303985      -16.1525857466        4.9577853365  WZ3       1213            0.0000000000
     15961      5321  TIP3      OH2           -18.4201703985      -15.0818357466       10.7163053365  WZ3       1214            0.0000000000
     15962      5321  TIP3      H1            -18.4582303985      -14.6816757466       11.5850153365  WZ3       1214            0.0000000000
     15963      5321  TIP3      H2            -18.9110603985      -15.8985957466       10.8065953365  WZ3       1214            0.0000000000
     15964      5322  TIP3      OH2           -15.0544303985      -17.7076057466       -2.4850946635  WZ3       1215            0.0000000000
     15965      5322  TIP3      H1            -15.4853603985      -18.1525957466       -1.7553546635  WZ3       1215            0.0000000000
     15966      5322  TIP3      H2            -15.7725603985      -17.3359757466       -2.9973446635  WZ3       1215            0.0000000000
     15967      5323  TIP3      OH2           -21.8120903985      -17.9656557466        4.5667753365  WZ3       1216            0.0000000000
     15968      5323  TIP3      H1            -21.1813203985      -17.9944457466        5.2861653365  WZ3       1216            0.0000000000
     15969      5323  TIP3      H2            -21.3626603985      -18.3907857466        3.8363653365  WZ3       1216            0.0000000000
     15970      5324  TIP3      OH2           -20.5378803985      -17.2194557466       -0.0091846635  WZ3       1217            0.0000000000
     15971      5324  TIP3      H1            -20.0637103985      -16.6284657466       -0.5940946635  WZ3       1217            0.0000000000
     15972      5324  TIP3      H2            -21.2552403985      -16.6891657466        0.3378253365  WZ3       1217            0.0000000000
     15973      5325  TIP3      OH2           -10.3690703985      -13.6809757466       10.0633953365  WZ3       1218            0.0000000000
     15974      5325  TIP3      H1            -10.0455903985      -14.3120057466        9.4204453365  WZ3       1218            0.0000000000
     15975      5325  TIP3      H2            -10.8091403985      -14.2157557466       10.7241353365  WZ3       1218            0.0000000000
     15976      5326  TIP3      OH2           -13.5917803985      -17.7534257466        4.8475153365  WZ3       1219            0.0000000000
     15977      5326  TIP3      H1            -14.5026703985      -17.6967457466        5.1361153365  WZ3       1219            0.0000000000
     15978      5326  TIP3      H2            -13.0864903985      -17.8138757466        5.6582353365  WZ3       1219            0.0000000000
     15979      5327  TIP3      OH2           -18.7634403985      -16.1247957466        3.6742753365  WZ3       1220            0.0000000000
     15980      5327  TIP3      H1            -19.6526403985      -16.0252457466        3.3342353365  WZ3       1220            0.0000000000
     15981      5327  TIP3      H2            -18.4669503985      -16.9664957466        3.3280653365  WZ3       1220            0.0000000000
     15982      5328  TIP3      OH2           -15.1102603985      -16.1245357466        1.3307353365  WZ3       1221            0.0000000000
     15983      5328  TIP3      H1            -14.1787103985      -15.9955357466        1.5090453365  WZ3       1221            0.0000000000
     15984      5328  TIP3      H2            -15.3252303985      -15.4551057466        0.6812053365  WZ3       1221            0.0000000000
     15985      5329  TIP3      OH2            -9.1865903985      -18.5187957466        8.1116953365  WZ3       1222            0.0000000000
     15986      5329  TIP3      H1             -9.8634303985      -18.3874857466        8.7756653365  WZ3       1222            0.0000000000
     15987      5329  TIP3      H2             -9.6721003985      -18.6738457466        7.3014653365  WZ3       1222            0.0000000000
     15988      5330  TIP3      OH2           -16.4362403985      -14.9303157466       -1.1026546635  WZ3       1223            0.0000000000
     15989      5330  TIP3      H1            -16.9787303985      -15.3099357466       -1.7938946635  WZ3       1223            0.0000000000
     15990      5330  TIP3      H2            -15.6027503985      -14.7358457466       -1.5312446635  WZ3       1223            0.0000000000
     15991      5331  TIP3      OH2            -5.8990803985       -2.8472557466       14.3884553365  WZ3       1224            0.0000000000
     15992      5331  TIP3      H1             -5.6992103985       -2.4230657466       13.5539853365  WZ3       1224            0.0000000000
     15993      5331  TIP3      H2             -5.2437103985       -2.5034357466       14.9954953365  WZ3       1224            0.0000000000
     15994      5332  TIP3      OH2           -18.3011003985      -10.3731257466       13.9965053365  WZ3       1225            0.0000000000
     15995      5332  TIP3      H1            -17.5688603985      -10.1185357466       14.5579553365  WZ3       1225            0.0000000000
     15996      5332  TIP3      H2            -19.0812303985      -10.1685857466       14.5120453365  WZ3       1225            0.0000000000
     15997      5333  TIP3      OH2           -12.2718103985      -14.9661257466        6.7344753365  WZ3       1226            0.0000000000
     15998      5333  TIP3      H1            -11.7074703985      -15.5124657466        6.1874353365  WZ3       1226            0.0000000000
     15999      5333  TIP3      H2            -12.4194703985      -15.4879357466        7.5232353365  WZ3       1226            0.0000000000
     16000      5334  TIP3      OH2           -17.2698403985      -18.8295157466        3.1529553365  WZ3       1227            0.0000000000
     16001      5334  TIP3      H1            -17.5868903985      -19.7319857466        3.1174953365  WZ3       1227            0.0000000000
     16002      5334  TIP3      H2            -16.4884303985      -18.8277757466        2.6001153365  WZ3       1227            0.0000000000
     16003      5335  TIP3      OH2           -13.6452203985      -16.5775157466        9.1485153365  WZ3       1228            0.0000000000
     16004      5335  TIP3      H1            -14.4806903985      -16.1235657466        9.2587553365  WZ3       1228            0.0000000000
     16005      5335  TIP3      H2            -13.1211603985      -16.3016657466        9.9005053365  WZ3       1228            0.0000000000
     16006      5336  TIP3      OH2           -13.1009603985      -10.3647457466        0.8331553365  WZ3       1229            0.0000000000
     16007      5336  TIP3      H1            -13.8458603985      -10.8722157466        0.5109453365  WZ3       1229            0.0000000000
     16008      5336  TIP3      H2            -13.2352403985      -10.3159457466        1.7796353365  WZ3       1229            0.0000000000
     16009      5337  TIP3      OH2            -5.9510703985      -11.2319257466        9.6199153365  WZ3       1230            0.0000000000
     16010      5337  TIP3      H1             -5.3091903985      -10.7752957466        9.0761353365  WZ3       1230            0.0000000000
     16011      5337  TIP3      H2             -6.7813803985      -11.1186857466        9.1573253365  WZ3       1230            0.0000000000
     16012      5338  TIP3      OH2            -9.2032803985      -17.5507557466       -0.9675846635  WZ3       1231            0.0000000000
     16013      5338  TIP3      H1            -10.1418603985      -17.4391957466       -1.1187046635  WZ3       1231            0.0000000000
     16014      5338  TIP3      H2             -8.9060703985      -16.6940657466       -0.6610146635  WZ3       1231            0.0000000000
     16015      5339  TIP3      OH2           -11.5817503985      -10.1804157466       12.0700653365  WZ3       1232            0.0000000000
     16016      5339  TIP3      H1            -11.9271403985      -10.5621757466       12.8770253365  WZ3       1232            0.0000000000
     16017      5339  TIP3      H2            -11.7817403985       -9.2470557466       12.1413553365  WZ3       1232            0.0000000000
     16018      5340  TIP3      OH2            -8.4849303985      -15.6834857466        0.6931553365  WZ3       1233            0.0000000000
     16019      5340  TIP3      H1             -7.5930303985      -15.8209857466        1.0122753365  WZ3       1233            0.0000000000
     16020      5340  TIP3      H2             -8.4285703985      -14.8928757466        0.1565053365  WZ3       1233            0.0000000000
     16021      5341  TIP3      OH2           -17.9761303985      -11.0697457466        6.6029453365  WZ3       1234            0.0000000000
     16022      5341  TIP3      H1            -17.2314103985      -11.0721757466        6.0015953365  WZ3       1234            0.0000000000
     16023      5341  TIP3      H2            -17.8984703985      -11.8933657466        7.0844553365  WZ3       1234            0.0000000000
     16024      5342  TIP3      OH2           -10.9755503985       -8.9063157466       -0.1413846635  WZ3       1235            0.0000000000
     16025      5342  TIP3      H1            -11.2707103985       -8.0795257466        0.2400953365  WZ3       1235            0.0000000000
     16026      5342  TIP3      H2            -11.6785503985       -9.5256257466        0.0547553365  WZ3       1235            0.0000000000
     16027      5343  TIP3      OH2           -20.9681603985      -12.6090557466       11.9177953365  WZ3       1236            0.0000000000
     16028      5343  TIP3      H1            -20.7453003985      -13.0270957466       12.7495453365  WZ3       1236            0.0000000000
     16029      5343  TIP3      H2            -21.5701503985      -13.2215557466       11.4950753365  WZ3       1236            0.0000000000
     16030      5344  TIP3      OH2           -13.9516703985      -13.0920657466       14.1307653365  WZ3       1237            0.0000000000
     16031      5344  TIP3      H1            -14.2475903985      -13.2577657466       13.2356753365  WZ3       1237            0.0000000000
     16032      5344  TIP3      H2            -13.0201503985      -13.3120357466       14.1201553365  WZ3       1237            0.0000000000
     16033      5345  TIP3      OH2            -9.3313903985       -7.7188657466       12.0205653365  WZ3       1238            0.0000000000
     16034      5345  TIP3      H1            -10.2319603985       -7.5356057466       11.7529553365  WZ3       1238            0.0000000000
     16035      5345  TIP3      H2             -9.2972803985       -7.4599357466       12.9414453365  WZ3       1238            0.0000000000
     16036      5346  TIP3      OH2            -3.6000603985      -15.4740757466        0.3878253365  WZ3       1239            0.0000000000
     16037      5346  TIP3      H1             -4.1544303985      -15.8702757466       -0.2844246635  WZ3       1239            0.0000000000
     16038      5346  TIP3      H2             -3.4997003985      -14.5635557466        0.1101553365  WZ3       1239            0.0000000000
     16039      5347  TIP3      OH2            -3.6368603985       -9.6739057466       13.2249753365  WZ3       1240            0.0000000000
     16040      5347  TIP3      H1             -4.4880103985       -9.4355257466       12.8576153365  WZ3       1240            0.0000000000
     16041      5347  TIP3      H2             -3.0465203985       -9.6905857466       12.4716853365  WZ3       1240            0.0000000000
     16042      5348  TIP3      OH2            -5.3048903985       -6.6880357466        0.8530353365  WZ3       1241            0.0000000000
     16043      5348  TIP3      H1             -5.6777803985       -7.5136557466        1.1620953365  WZ3       1241            0.0000000000
     16044      5348  TIP3      H2             -5.0275403985       -6.8710957466       -0.0446246635  WZ3       1241            0.0000000000
     16045      5349  TIP3      OH2            -8.1445003985      -11.8800857466        7.8742253365  WZ3       1242            0.0000000000
     16046      5349  TIP3      H1             -9.0728103985      -12.1118957466        7.8471553365  WZ3       1242            0.0000000000
     16047      5349  TIP3      H2             -7.6933903985      -12.6571057466        7.5441053365  WZ3       1242            0.0000000000
     16048      5350  TIP3      OH2           -15.6011903985       -7.5519257466        4.0070953365  WZ3       1243            0.0000000000
     16049      5350  TIP3      H1            -15.0739703985       -6.7784857466        3.8069753365  WZ3       1243            0.0000000000
     16050      5350  TIP3      H2            -16.4813403985       -7.3270057466        3.7054953365  WZ3       1243            0.0000000000
     16051      5351  TIP3      OH2           -19.8464203985      -12.6895157466       -1.4056646635  WZ3       1244            0.0000000000
     16052      5351  TIP3      H1            -19.2304303985      -12.0627957466       -1.0261846635  WZ3       1244            0.0000000000
     16053      5351  TIP3      H2            -20.7081603985      -12.3735357466       -1.1340146635  WZ3       1244            0.0000000000
     16054      5352  TIP3      OH2           -14.1739603985       -9.8889357466        3.5835253365  WZ3       1245            0.0000000000
     16055      5352  TIP3      H1            -14.4149603985       -8.9634957466        3.6250553365  WZ3       1245            0.0000000000
     16056      5352  TIP3      H2            -14.9146003985      -10.3478057466        3.9799153365  WZ3       1245            0.0000000000
     16057      5353  TIP3      OH2           -13.6593003985       -5.7395757466        9.8986353365  WZ3       1246            0.0000000000
     16058      5353  TIP3      H1            -13.2968303985       -4.8850157466        9.6650753365  WZ3       1246            0.0000000000
     16059      5353  TIP3      H2            -13.1277803985       -6.0314157466       10.6392653365  WZ3       1246            0.0000000000
     16060      5354  TIP3      OH2           -15.4908803985       -4.8671757466        3.1287453365  WZ3       1247            0.0000000000
     16061      5354  TIP3      H1            -16.4408303985       -4.7614357466        3.1800753365  WZ3       1247            0.0000000000
     16062      5354  TIP3      H2            -15.1390703985       -4.0464357466        3.4734953365  WZ3       1247            0.0000000000
     16063      5355  TIP3      OH2           -10.1152203985       -9.6405057466        9.5991953365  WZ3       1248            0.0000000000
     16064      5355  TIP3      H1            -10.5410903985       -9.8683357466       10.4255953365  WZ3       1248            0.0000000000
     16065      5355  TIP3      H2             -9.5346403985      -10.3793257466        9.4167253365  WZ3       1248            0.0000000000
     16066      5356  TIP3      OH2            -7.9123303985       -8.7114557466       -1.3269046635  WZ3       1249            0.0000000000
     16067      5356  TIP3      H1             -7.5590203985       -9.0914757466       -0.5225546635  WZ3       1249            0.0000000000
     16068      5356  TIP3      H2             -8.8609803985       -8.8049757466       -1.2399746635  WZ3       1249            0.0000000000
     16069      5357  TIP3      OH2            -7.4568003985       -5.0885557466       12.0686753365  WZ3       1250            0.0000000000
     16070      5357  TIP3      H1             -8.0584803985       -5.6442657466       11.5733053365  WZ3       1250            0.0000000000
     16071      5357  TIP3      H2             -7.1754303985       -4.4215757466       11.4424153365  WZ3       1250            0.0000000000
     16072      5358  TIP3      OH2            -3.4088903985       -4.2322057466       -1.1258846635  WZ3       1251            0.0000000000
     16073      5358  TIP3      H1             -2.6651003985       -3.6461557466       -1.2657246635  WZ3       1251            0.0000000000
     16074      5358  TIP3      H2             -4.1030803985       -3.6636257466       -0.7926446635  WZ3       1251            0.0000000000
     16075      5359  TIP3      OH2           -19.3342103985      -17.8557857466       11.4759353365  WZ3       1252            0.0000000000
     16076      5359  TIP3      H1            -20.2269803985      -17.5172457466       11.4083353365  WZ3       1252            0.0000000000
     16077      5359  TIP3      H2            -19.4329303985      -18.7111757466       11.8940153365  WZ3       1252            0.0000000000
     16078      5360  TIP3      OH2            -7.0464003985      -10.0392557466        0.8998853365  WZ3       1253            0.0000000000
     16079      5360  TIP3      H1             -7.3236403985      -10.7673257466        1.4559953365  WZ3       1253            0.0000000000
     16080      5360  TIP3      H2             -6.1191003985       -9.9200557466        1.1051453365  WZ3       1253            0.0000000000
     16081      5361  TIP3      OH2           -19.6830103985       -6.0513457466        9.9108753365  WZ3       1254            0.0000000000
     16082      5361  TIP3      H1            -19.4659803985       -6.9831057466        9.8798453365  WZ3       1254            0.0000000000
     16083      5361  TIP3      H2            -19.4366603985       -5.7768457466       10.7941553365  WZ3       1254            0.0000000000
     16084      5362  TIP3      OH2           -13.8215503985       -7.5998457466       -2.8799046635  WZ3       1255            0.0000000000
     16085      5362  TIP3      H1            -13.5825703985       -8.3480357466       -3.4270146635  WZ3       1255            0.0000000000
     16086      5362  TIP3      H2            -14.0904203985       -7.9876757466       -2.0471246635  WZ3       1255            0.0000000000
     16087      5363  TIP3      OH2           -14.8844903985       -8.0294657466       -0.4236446635  WZ3       1256            0.0000000000
     16088      5363  TIP3      H1            -14.7376903985       -8.5494857466        0.3664453365  WZ3       1256            0.0000000000
     16089      5363  TIP3      H2            -14.8873203985       -7.1227057466       -0.1170546635  WZ3       1256            0.0000000000
     16090      5364  TIP3      OH2           -18.4313803985      -10.7771357466        0.0868953365  WZ3       1257            0.0000000000
     16091      5364  TIP3      H1            -19.1174503985      -10.4248857466        0.6538653365  WZ3       1257            0.0000000000
     16092      5364  TIP3      H2            -17.9085903985      -10.0141757466       -0.1596746635  WZ3       1257            0.0000000000
     16093      5365  TIP3      OH2           -10.5998703985      -18.1147557466       10.3657953365  WZ3       1258            0.0000000000
     16094      5365  TIP3      H1             -9.9010803985      -18.0408857466       11.0157653365  WZ3       1258            0.0000000000
     16095      5365  TIP3      H2            -10.9807303985      -18.9792557466       10.5200853365  WZ3       1258            0.0000000000
     16096      5366  TIP3      OH2            -9.8153803985      -18.4625857466        1.4630253365  WZ3       1259            0.0000000000
     16097      5366  TIP3      H1             -9.5955503985      -17.9910457466        0.6595653365  WZ3       1259            0.0000000000
     16098      5366  TIP3      H2             -9.2569803985      -18.0683257466        2.1330853365  WZ3       1259            0.0000000000
     16099      5367  TIP3      OH2           -12.1467703985       -6.3321057466        0.3257753365  WZ3       1260            0.0000000000
     16100      5367  TIP3      H1            -12.9631603985       -5.8351357466        0.3782053365  WZ3       1260            0.0000000000
     16101      5367  TIP3      H2            -11.6171403985       -5.8567557466       -0.3143446635  WZ3       1260            0.0000000000
     16102      5368  TIP3      OH2           -12.6153903985      -16.7347057466        2.2978653365  WZ3       1261            0.0000000000
     16103      5368  TIP3      H1            -11.8031303985      -16.2303857466        2.3440353365  WZ3       1261            0.0000000000
     16104      5368  TIP3      H2            -12.8600903985      -16.8797357466        3.2118253365  WZ3       1261            0.0000000000
     16105      5369  TIP3      OH2           -12.0797503985      -15.7484357466       11.4825253365  WZ3       1262            0.0000000000
     16106      5369  TIP3      H1            -11.9607203985      -15.1748957466       12.2395653365  WZ3       1262            0.0000000000
     16107      5369  TIP3      H2            -11.4242903985      -16.4364957466       11.5973053365  WZ3       1262            0.0000000000
     16108      5370  TIP3      OH2           -11.7317203985      -19.6534057466        3.2359753365  WZ3       1263            0.0000000000
     16109      5370  TIP3      H1            -12.0783703985      -19.0363457466        3.8804053365  WZ3       1263            0.0000000000
     16110      5370  TIP3      H2            -11.0730303985      -19.1528357466        2.7545253365  WZ3       1263            0.0000000000
     16111      5371  TIP3      OH2           -14.8084603985       -5.2883857466        0.3074653365  WZ3       1264            0.0000000000
     16112      5371  TIP3      H1            -14.6475903985       -4.4886357466       -0.1932746635  WZ3       1264            0.0000000000
     16113      5371  TIP3      H2            -15.0056803985       -4.9817857466        1.1925253365  WZ3       1264            0.0000000000
     16114      5372  TIP3      OH2           -16.0740203985      -18.5904657466       -0.0767746635  WZ3       1265            0.0000000000
     16115      5372  TIP3      H1            -16.1575403985      -17.7021557466        0.2698653365  WZ3       1265            0.0000000000
     16116      5372  TIP3      H2            -15.1839903985      -18.8557957466        0.1549053365  WZ3       1265            0.0000000000
     16117      5373  TIP3      OH2            -5.8751703985      -17.8414057466       12.3174953365  WZ3       1266            0.0000000000
     16118      5373  TIP3      H1             -6.7915903985      -17.5792357466       12.2298653365  WZ3       1266            0.0000000000
     16119      5373  TIP3      H2             -5.5396703985      -17.8445057466       11.4210253365  WZ3       1266            0.0000000000
     16120      5374  TIP3      OH2            -7.2730703985      -14.0913057466        6.4132253365  WZ3       1267            0.0000000000
     16121      5374  TIP3      H1             -8.0706303985      -14.5062857466        6.0847253365  WZ3       1267            0.0000000000
     16122      5374  TIP3      H2             -6.8279603985      -14.7819357466        6.9042753365  WZ3       1267            0.0000000000
     16123      5375  TIP3      OH2           -17.8154903985       -8.1632457466       -1.0163246635  WZ3       1268            0.0000000000
     16124      5375  TIP3      H1            -17.2233403985       -7.4637657466       -0.7400846635  WZ3       1268            0.0000000000
     16125      5375  TIP3      H2            -17.3561903985       -8.5962957466       -1.7358646635  WZ3       1268            0.0000000000
     16126      5376  TIP3      OH2           -19.4995703985      -15.4989457466       -1.9003846635  WZ3       1269            0.0000000000
     16127      5376  TIP3      H1            -19.5443103985      -14.5596357466       -1.7216846635  WZ3       1269            0.0000000000
     16128      5376  TIP3      H2            -20.3872503985      -15.7344557466       -2.1701746635  WZ3       1269            0.0000000000
     16129      5377  TIP3      OH2            -6.1866103985       -4.8350557466        8.0355753365  WZ3       1270            0.0000000000
     16130      5377  TIP3      H1             -6.3421803985       -4.1566157466        7.3785053365  WZ3       1270            0.0000000000
     16131      5377  TIP3      H2             -5.2539703985       -4.7631257466        8.2386353365  WZ3       1270            0.0000000000
     16132      5378  TIP3      OH2           -18.6913703985      -20.7172857466        6.7727153365  WZ3       1271            0.0000000000
     16133      5378  TIP3      H1            -18.9203903985      -20.6580357466        5.8452153365  WZ3       1271            0.0000000000
     16134      5378  TIP3      H2            -19.1340303985      -21.5087357466        7.0791253365  WZ3       1271            0.0000000000
     16135      5379  TIP3      OH2           -19.7610403985       -6.7765757466        2.9332953365  WZ3       1272            0.0000000000
     16136      5379  TIP3      H1            -20.5931803985       -6.3043057466        2.9604353365  WZ3       1272            0.0000000000
     16137      5379  TIP3      H2            -19.2152103985       -6.2668157466        2.3346053365  WZ3       1272            0.0000000000
     16138      5380  TIP3      OH2           -20.4726703985       -4.1642057466       14.2630953365  WZ3       1273            0.0000000000
     16139      5380  TIP3      H1            -19.9324503985       -4.3808057466       15.0230153365  WZ3       1273            0.0000000000
     16140      5380  TIP3      H2            -20.9538703985       -4.9696057466       14.0733453365  WZ3       1273            0.0000000000
     16141      5381  TIP3      OH2           -15.8753303985       -5.2447657466       15.8835153365  WZ3       1274            0.0000000000
     16142      5381  TIP3      H1            -15.1076103985       -5.7036857466       16.2244353365  WZ3       1274            0.0000000000
     16143      5381  TIP3      H2            -15.8967103985       -5.4707857466       14.9536353365  WZ3       1274            0.0000000000
     16144      5382  TIP3      OH2           -11.7833703985       -5.7367057466       -2.7413046635  WZ3       1275            0.0000000000
     16145      5382  TIP3      H1            -12.4272703985       -6.3678457466       -2.4199346635  WZ3       1275            0.0000000000
     16146      5382  TIP3      H2            -11.0215403985       -6.2679057466       -2.9729546635  WZ3       1275            0.0000000000
     16147      5383  TIP3      OH2            -9.2984603985       -6.8646557466       14.6126653365  WZ3       1276            0.0000000000
     16148      5383  TIP3      H1             -9.6495103985       -7.7213557466       14.8557053365  WZ3       1276            0.0000000000
     16149      5383  TIP3      H2             -8.5721403985       -6.7219857466       15.2195653365  WZ3       1276            0.0000000000
     16150      5384  TIP3      OH2            -7.1790803985       -5.9197157466       -2.5075046635  WZ3       1277            0.0000000000
     16151      5384  TIP3      H1             -6.8960403985       -6.7141957466       -2.0548146635  WZ3       1277            0.0000000000
     16152      5384  TIP3      H2             -6.4392903985       -5.6866157466       -3.0683946635  WZ3       1277            0.0000000000
     16153      5385  TIP3      OH2           -20.5657203985      -10.3537957466       15.2175253365  WZ3       1278            0.0000000000
     16154      5385  TIP3      H1            -20.4216703985      -11.2557257466       14.9311953365  WZ3       1278            0.0000000000
     16155      5385  TIP3      H2            -21.3379803985      -10.0675857466       14.7297553365  WZ3       1278            0.0000000000
     16156      5386  TIP3      OH2           -16.2243503985      -10.0102257466       -2.6500146635  WZ3       1279            0.0000000000
     16157      5386  TIP3      H1            -16.1599403985      -10.8042657466       -2.1193746635  WZ3       1279            0.0000000000
     16158      5386  TIP3      H2            -15.5714303985      -10.1289457466       -3.3398146635  WZ3       1279            0.0000000000
     16159      5387  TIP3      OH2           -13.9101103985      -10.3839857466       14.6501653365  WZ3       1280            0.0000000000
     16160      5387  TIP3      H1            -14.2387303985      -10.1131757466       13.7929053365  WZ3       1280            0.0000000000
     16161      5387  TIP3      H2            -13.7582903985      -11.3250057466       14.5626653365  WZ3       1280            0.0000000000
     16162      5388  TIP3      OH2           -10.8720103985       -8.9630557466       -2.9142146635  WZ3       1281            0.0000000000
     16163      5388  TIP3      H1            -11.1406003985       -8.7828457466       -2.0133246635  WZ3       1281            0.0000000000
     16164      5388  TIP3      H2            -11.0784503985       -9.8884357466       -3.0456346635  WZ3       1281            0.0000000000
     16165      5389  TIP3      OH2            -8.1755903985      -10.4682557466       12.0333953365  WZ3       1282            0.0000000000
     16166      5389  TIP3      H1             -7.4301103985       -9.8798857466       11.9137953365  WZ3       1282            0.0000000000
     16167      5389  TIP3      H2             -8.9329103985       -9.8862857466       12.0967053365  WZ3       1282            0.0000000000
     16168      5390  TIP3      OH2           -19.7330703985      -13.1534657466       14.6374553365  WZ3       1283            0.0000000000
     16169      5390  TIP3      H1            -19.3249503985      -14.0108057466       14.5165153365  WZ3       1283            0.0000000000
     16170      5390  TIP3      H2            -19.9933103985      -13.1393357466       15.5584853365  WZ3       1283            0.0000000000
     16171      5391  TIP3      OH2           -15.0749703985      -12.0376057466       -0.3442146635  WZ3       1284            0.0000000000
     16172      5391  TIP3      H1            -15.5347703985      -12.5217757466        0.3416353365  WZ3       1284            0.0000000000
     16173      5391  TIP3      H2            -14.8201003985      -12.7060657466       -0.9801646635  WZ3       1284            0.0000000000
     16174      5392  TIP3      OH2           -15.7860403985      -14.1448957466       12.0117453365  WZ3       1285            0.0000000000
     16175      5392  TIP3      H1            -16.4044303985      -13.4702357466       12.2922153365  WZ3       1285            0.0000000000
     16176      5392  TIP3      H2            -15.4419203985      -13.8235057466       11.1783653365  WZ3       1285            0.0000000000
     16177      5393  TIP3      OH2           -14.0039303985      -13.7944257466       -2.0818946635  WZ3       1286            0.0000000000
     16178      5393  TIP3      H1            -14.1844303985      -13.9493057466       -3.0090646635  WZ3       1286            0.0000000000
     16179      5393  TIP3      H2            -13.0538803985      -13.6865557466       -2.0371046635  WZ3       1286            0.0000000000
     16180      5394  TIP3      OH2           -10.7662203985      -11.6733657466       15.2892253365  WZ3       1287            0.0000000000
     16181      5394  TIP3      H1             -9.8131003985      -11.5894557466       15.2618253365  WZ3       1287            0.0000000000
     16182      5394  TIP3      H2            -10.9267603985      -12.3851857466       15.9087153365  WZ3       1287            0.0000000000
     16183      5395  TIP3      OH2            -4.6141003985      -11.4400057466       -2.6360846635  WZ3       1288            0.0000000000
     16184      5395  TIP3      H1             -4.8876203985      -11.8644557466       -3.4492546635  WZ3       1288            0.0000000000
     16185      5395  TIP3      H2             -4.5746903985      -10.5085557466       -2.8530446635  WZ3       1288            0.0000000000
     16186      5396  TIP3      OH2           -15.4466703985      -16.7898157466       13.0940553365  WZ3       1289            0.0000000000
     16187      5396  TIP3      H1            -15.2965803985      -17.5186857466       12.4920253365  WZ3       1289            0.0000000000
     16188      5396  TIP3      H2            -15.4444303985      -16.0126457466       12.5352753365  WZ3       1289            0.0000000000
     16189      5397  TIP3      OH2           -15.0341003985      -18.4202357466       10.5867953365  WZ3       1290            0.0000000000
     16190      5397  TIP3      H1            -14.4983503985      -17.9685657466        9.9347253365  WZ3       1290            0.0000000000
     16191      5397  TIP3      H2            -15.8861403985      -18.5282557466       10.1642053365  WZ3       1290            0.0000000000
     16192      5398  TIP3      OH2           -13.4522603985      -12.9806157466       10.8263153365  WZ3       1291            0.0000000000
     16193      5398  TIP3      H1            -12.7017803985      -13.1368657466       10.2530953365  WZ3       1291            0.0000000000
     16194      5398  TIP3      H2            -13.7914303985      -12.1289557466       10.5508653365  WZ3       1291            0.0000000000
     16195      5399  TIP3      OH2            -9.0366403985      -15.1654357466       15.8548453365  WZ3       1292            0.0000000000
     16196      5399  TIP3      H1             -8.8445103985      -16.0964957466       15.7432953365  WZ3       1292            0.0000000000
     16197      5399  TIP3      H2             -8.1790103985      -14.7404857466       15.8443853365  WZ3       1292            0.0000000000
     16198      5400  TIP3      OH2            -7.7199203985      -12.3769157466       13.9321153365  WZ3       1293            0.0000000000
     16199      5400  TIP3      H1             -8.0014203985      -11.6674557466       13.3544953365  WZ3       1293            0.0000000000
     16200      5400  TIP3      H2             -6.7774903985      -12.4496157466       13.7812353365  WZ3       1293            0.0000000000
     16201      5401  TIP3      OH2           -16.9680403985      -15.5914657466       15.0056153365  WZ3       1294            0.0000000000
     16202      5401  TIP3      H1            -17.7351403985      -16.1239857466       14.7953753365  WZ3       1294            0.0000000000
     16203      5401  TIP3      H2            -16.2891403985      -15.9014257466       14.4062453365  WZ3       1294            0.0000000000
     16204      5402  TIP3      OH2           -14.2285503985      -20.9636657466       11.0181553365  WZ3       1295            0.0000000000
     16205      5402  TIP3      H1            -14.3265903985      -20.0173457466       10.9127753365  WZ3       1295            0.0000000000
     16206      5402  TIP3      H2            -14.9709303985      -21.3362857466       10.5425053365  WZ3       1295            0.0000000000
     16207      5403  TIP3      OH2           -12.9645003985      -16.6421257466       14.5819953365  WZ3       1296            0.0000000000
     16208      5403  TIP3      H1            -13.1999603985      -16.8614557466       15.4834853365  WZ3       1296            0.0000000000
     16209      5403  TIP3      H2            -13.7478103985      -16.8490057466       14.0722453365  WZ3       1296            0.0000000000
     16210      5404  TIP3      OH2           -10.2488403985      -17.5147757466       13.6573453365  WZ3       1297            0.0000000000
     16211      5404  TIP3      H1            -11.1963003985      -17.4828057466       13.7896753365  WZ3       1297            0.0000000000
     16212      5404  TIP3      H2             -9.9361703985      -18.1400657466       14.3111653365  WZ3       1297            0.0000000000
     16213      5405  TIP3      OH2            -8.6146903985      -18.8806657466       15.6625353365  WZ3       1298            0.0000000000
     16214      5405  TIP3      H1             -8.7115103985      -19.8329357466       15.6567253365  WZ3       1298            0.0000000000
     16215      5405  TIP3      H2             -8.9363803985      -18.6119857466       16.5230853365  WZ3       1298            0.0000000000
     16216      5406  TIP3      OH2           -18.7877603985      -17.6710857466       14.7100853365  WZ3       1299            0.0000000000
     16217      5406  TIP3      H1            -18.5760203985      -18.3774757466       14.0998353365  WZ3       1299            0.0000000000
     16218      5406  TIP3      H2            -18.8990103985      -18.1084857466       15.5542053365  WZ3       1299            0.0000000000
     16219      5407  TIP3      OH2           -14.0067403985      -21.6699257466       13.6894353365  WZ3       1300            0.0000000000
     16220      5407  TIP3      H1            -13.2949003985      -22.3097057466       13.6753453365  WZ3       1300            0.0000000000
     16221      5407  TIP3      H2            -14.1077003985      -21.4030957466       12.7757453365  WZ3       1300            0.0000000000
     16222      5408  TIP3      OH2           -13.6529903985      -19.9870857466       15.7430653365  WZ3       1301            0.0000000000
     16223      5408  TIP3      H1            -13.7847703985      -20.4627057466       14.9229153365  WZ3       1301            0.0000000000
     16224      5408  TIP3      H2            -14.2522503985      -19.2427257466       15.6877753365  WZ3       1301            0.0000000000
     16225      5409  TIP3      OH2           -14.1067603985       -3.1040557466       -1.0805346635  WZ3       1302            0.0000000000
     16226      5409  TIP3      H1            -13.1736903985       -2.9461857466       -0.9366946635  WZ3       1302            0.0000000000
     16227      5409  TIP3      H2            -14.3708803985       -2.4287557466       -1.7053846635  WZ3       1302            0.0000000000
     16228      5410  TIP3      OH2           -20.5382703985       -8.4676757466       -1.5977246635  WZ3       1303            0.0000000000
     16229      5410  TIP3      H1            -19.6243503985       -8.3887857466       -1.3243346635  WZ3       1303            0.0000000000
     16230      5410  TIP3      H2            -20.5309603985       -9.1547157466       -2.2641646635  WZ3       1303            0.0000000000
     16231      5411  TIP3      OH2           -21.8892103985       -3.0748257466        3.4796653365  WZ3       1304            0.0000000000
     16232      5411  TIP3      H1            -22.5365003985       -3.5366557466        2.9467853365  WZ3       1304            0.0000000000
     16233      5411  TIP3      H2            -21.5347503985       -3.7464957466        4.0622853365  WZ3       1304            0.0000000000
     16234      5412  TIP3      OH2           -21.0192903985       -4.9941257466        5.2842853365  WZ3       1305            0.0000000000
     16235      5412  TIP3      H1            -21.3536103985       -5.8743957466        5.4563053365  WZ3       1305            0.0000000000
     16236      5412  TIP3      H2            -20.7970503985       -4.6486257466        6.1488453365  WZ3       1305            0.0000000000
     16237      5413  TIP3      OH2            -3.4708103985       -4.1844857466        8.2647653365  WZ3       1306            0.0000000000
     16238      5413  TIP3      H1             -3.4921403985       -3.9996457466        9.2037053365  WZ3       1306            0.0000000000
     16239      5413  TIP3      H2             -2.7801903985       -3.6160857466        7.9239053365  WZ3       1306            0.0000000000
     16240      5414  TIP3      OH2            -3.9075203985       -4.6173757466       11.1866753365  WZ3       1307            0.0000000000
     16241      5414  TIP3      H1             -4.3946503985       -5.3529657466       10.8154153365  WZ3       1307            0.0000000000
     16242      5414  TIP3      H2             -3.3582503985       -5.0109857466       11.8646153365  WZ3       1307            0.0000000000
     16243      5415  TIP3      OH2            -5.4567903985       -8.8275657466       15.8247053365  WZ3       1308            0.0000000000
     16244      5415  TIP3      H1             -6.3226803985       -8.9325957466       16.2189353365  WZ3       1308            0.0000000000
     16245      5415  TIP3      H2             -5.0802003985       -8.0692357466       16.2711753365  WZ3       1308            0.0000000000
     16246      5416  TIP3      OH2            -4.1558203985      -10.5711957466        1.3389553365  WZ3       1309            0.0000000000
     16247      5416  TIP3      H1             -3.3056803985      -10.1501057466        1.4661153365  WZ3       1309            0.0000000000
     16248      5416  TIP3      H2             -4.1503103985      -11.3111857466        1.9460953365  WZ3       1309            0.0000000000
     16249      5417  TIP3      OH2            -3.7612603985      -12.5174557466        3.1625253365  WZ3       1310            0.0000000000
     16250      5417  TIP3      H1             -4.4878003985      -12.9971957466        3.5602853365  WZ3       1310            0.0000000000
     16251      5417  TIP3      H2             -3.1799303985      -12.3119857466        3.8946853365  WZ3       1310            0.0000000000
     16252      5418  TIP3      OH2            -4.0021403985       -9.7327057466        8.1102853365  WZ3       1311            0.0000000000
     16253      5418  TIP3      H1             -3.1687203985      -10.1107057466        7.8296453365  WZ3       1311            0.0000000000
     16254      5418  TIP3      H2             -3.8901103985       -8.7895857466        7.9911953365  WZ3       1311            0.0000000000
     16255      5419  TIP3      OH2            -5.5159103985       -6.8549557466       10.4171253365  WZ3       1312            0.0000000000
     16256      5419  TIP3      H1             -6.1633803985       -6.5298057466       11.0426453365  WZ3       1312            0.0000000000
     16257      5419  TIP3      H2             -6.0335103985       -7.2951857466        9.7429553365  WZ3       1312            0.0000000000
     16258      5420  TIP3      OH2            -3.4929503985      -12.6166057466       -0.4463446635  WZ3       1313            0.0000000000
     16259      5420  TIP3      H1             -4.0148403985      -12.2601957466       -1.1652546635  WZ3       1313            0.0000000000
     16260      5420  TIP3      H2             -3.5260303985      -11.9418257466        0.2317453365  WZ3       1313            0.0000000000
     16261      5421  TIP3      OH2            -5.1440503985      -15.3770457466       -1.8956346635  WZ3       1314            0.0000000000
     16262      5421  TIP3      H1             -5.0476103985      -14.7103457466       -2.5756646635  WZ3       1314            0.0000000000
     16263      5421  TIP3      H2             -5.2840903985      -16.1924157466       -2.3770846635  WZ3       1314            0.0000000000
     16264      5422  TIP3      OH2            -5.9745803985      -13.9968057466        3.7253953365  WZ3       1315            0.0000000000
     16265      5422  TIP3      H1             -6.1247003985      -14.9419457466        3.7051753365  WZ3       1315            0.0000000000
     16266      5422  TIP3      H2             -6.3281303985      -13.7156657466        4.5693053365  WZ3       1315            0.0000000000
     16267      5423  TIP3      OH2           -20.9393403985      -11.9185857466        7.7357753365  WZ3       1316            0.0000000000
     16268      5423  TIP3      H1            -20.7550503985      -12.0004157466        6.8000653365  WZ3       1316            0.0000000000
     16269      5423  TIP3      H2            -20.0900503985      -12.0428857466        8.1594153365  WZ3       1316            0.0000000000
     16270      5424  TIP3      OH2            -5.1182903985      -12.0264757466       13.3642253365  WZ3       1317            0.0000000000
     16271      5424  TIP3      H1             -4.5355603985      -12.7612457466       13.5559453365  WZ3       1317            0.0000000000
     16272      5424  TIP3      H2             -4.5543603985      -11.2544457466       13.4108053365  WZ3       1317            0.0000000000
     16273      5425  TIP3      OH2            -3.6215803985      -14.1238957466       14.0487653365  WZ3       1318            0.0000000000
     16274      5425  TIP3      H1             -4.4849103985      -14.5026857466       13.8832353365  WZ3       1318            0.0000000000
     16275      5425  TIP3      H2             -3.0172103985      -14.8624157466       13.9743453365  WZ3       1318            0.0000000000
     16276      5426  TIP3      OH2            -5.8966703985      -17.9690657466       -2.7780846635  WZ3       1319            0.0000000000
     16277      5426  TIP3      H1             -5.2860903985      -18.3403857466       -2.1412646635  WZ3       1319            0.0000000000
     16278      5426  TIP3      H2             -6.7335203985      -18.3903757466       -2.5820846635  WZ3       1319            0.0000000000
     16279      5427  TIP3      OH2            -6.2641003985      -16.4142257466        2.1879053365  WZ3       1320            0.0000000000
     16280      5427  TIP3      H1             -5.9843903985      -17.3211857466        2.3120753365  WZ3       1320            0.0000000000
     16281      5427  TIP3      H2             -5.5049303985      -15.9800757466        1.7988253365  WZ3       1320            0.0000000000
     16282      5428  TIP3      OH2            -5.6522703985      -15.8324857466        7.6237953365  WZ3       1321            0.0000000000
     16283      5428  TIP3      H1             -4.7194703985      -15.6204957466        7.5893953365  WZ3       1321            0.0000000000
     16284      5428  TIP3      H2             -5.8875203985      -15.7312757466        8.5460953365  WZ3       1321            0.0000000000
     16285      5429  TIP3      OH2            -5.6230803985      -15.0959557466       10.3997353365  WZ3       1322            0.0000000000
     16286      5429  TIP3      H1             -6.4659503985      -14.8279157466       10.7657153365  WZ3       1322            0.0000000000
     16287      5429  TIP3      H2             -5.1806503985      -14.2737657466       10.1888453365  WZ3       1322            0.0000000000
     16288      5430  TIP3      OH2           -21.3418603985      -16.6480857466       13.8766553365  WZ3       1323            0.0000000000
     16289      5430  TIP3      H1            -20.4223703985      -16.7702557466       14.1129653365  WZ3       1323            0.0000000000
     16290      5430  TIP3      H2            -21.7914103985      -17.3981157466       14.2660053365  WZ3       1323            0.0000000000
     16291      5431  TIP3      OH2            -3.3399203985      -21.1159357466       15.7532353365  WZ3       1324            0.0000000000
     16292      5431  TIP3      H1             -2.9902203985      -21.7695857466       15.1477053365  WZ3       1324            0.0000000000
     16293      5431  TIP3      H2             -3.1929703985      -20.2785257466       15.3134953365  WZ3       1324            0.0000000000
     16294      5432  TIP3      OH2            -5.6506203985      -19.1512957466        2.2361053365  WZ3       1325            0.0000000000
     16295      5432  TIP3      H1             -5.4681203985      -19.6001457466        3.0616053365  WZ3       1325            0.0000000000
     16296      5432  TIP3      H2             -6.2503303985      -19.7358557466        1.7725653365  WZ3       1325            0.0000000000
     16297      5433  TIP3      OH2           -20.1206103985      -18.3359257466        6.7679453365  WZ3       1326            0.0000000000
     16298      5433  TIP3      H1            -19.6754503985      -19.1276757466        7.0699153365  WZ3       1326            0.0000000000
     16299      5433  TIP3      H2            -19.6543103985      -17.6194057466        7.1985053365  WZ3       1326            0.0000000000
     16300      5434  TIP3      OH2           -21.8165803985      -15.3366257466        7.8369653365  WZ3       1327            0.0000000000
     16301      5434  TIP3      H1            -21.3246003985      -15.5575757466        7.0461653365  WZ3       1327            0.0000000000
     16302      5434  TIP3      H2            -21.4544903985      -14.4962857466        8.1179153365  WZ3       1327            0.0000000000
     16303      5435  TIP3      OH2            -3.8202003985      -19.0064757466       14.1023653365  WZ3       1328            0.0000000000
     16304      5435  TIP3      H1             -4.7376303985      -18.7357657466       14.0667153365  WZ3       1328            0.0000000000
     16305      5435  TIP3      H2             -3.6972603985      -19.5416357466       13.3183353365  WZ3       1328            0.0000000000
     16306      5436  TIP3      OH2            -3.7840003985      -19.0834857466       -1.2358646635  WZ3       1329            0.0000000000
     16307      5436  TIP3      H1             -3.3717403985      -19.8049157466       -1.7110646635  WZ3       1329            0.0000000000
     16308      5436  TIP3      H2             -3.1023503985      -18.4140257466       -1.1774346635  WZ3       1329            0.0000000000
     16309      5437  TIP3      OH2           -21.5029303985      -19.0787157466        1.8912053365  WZ3       1330            0.0000000000
     16310      5437  TIP3      H1            -22.4280903985      -18.8700557466        1.7617553365  WZ3       1330            0.0000000000
     16311      5437  TIP3      H2            -21.0489403985      -18.5946357466        1.2014353365  WZ3       1330            0.0000000000
     16312      5438  TIP3      OH2            -6.7322103985       -4.0945457466        3.8369453365  WZ3       1331            0.0000000000
     16313      5438  TIP3      H1             -6.0799203985       -4.4423357466        3.2288553365  WZ3       1331            0.0000000000
     16314      5438  TIP3      H2             -6.2218303985       -3.6062257466        4.4829153365  WZ3       1331            0.0000000000
     16315      5439  TIP3      OH2           -21.5393903985      -20.3408157466       10.2354553365  WZ3       1332            0.0000000000
     16316      5439  TIP3      H1            -22.2043403985      -20.5867857466       10.8785453365  WZ3       1332            0.0000000000
     16317      5439  TIP3      H2            -21.9822603985      -19.7187757466        9.6582553365  WZ3       1332            0.0000000000
     16318      5440  TIP3      OH2           -19.3474603985       -7.1654057466       14.3800353365  WZ3       1333            0.0000000000
     16319      5440  TIP3      H1            -20.1682103985       -6.9907557466       13.9195053365  WZ3       1333            0.0000000000
     16320      5440  TIP3      H2            -19.5996803985       -7.2389357466       15.3004753365  WZ3       1333            0.0000000000
     16321      5441  TIP3      OH2           -16.3931703985       -6.1912857466       10.6384353365  WZ3       1334            0.0000000000
     16322      5441  TIP3      H1            -16.8180603985       -5.3814357466       10.3558953365  WZ3       1334            0.0000000000
     16323      5441  TIP3      H2            -15.4888903985       -6.1058757466       10.3364153365  WZ3       1334            0.0000000000
     16324      5442  TIP3      OH2           -12.0820303985       -4.7922857466       13.5978053365  WZ3       1335            0.0000000000
     16325      5442  TIP3      H1            -11.8972803985       -5.1256757466       14.4758353365  WZ3       1335            0.0000000000
     16326      5442  TIP3      H2            -11.2355803985       -4.4824257466       13.2757253365  WZ3       1335            0.0000000000
     16327      5443  TIP3      OH2            -9.7369903985       -3.5063957466       12.8419453365  WZ3       1336            0.0000000000
     16328      5443  TIP3      H1             -9.0601003985       -4.1391657466       12.6018653365  WZ3       1336            0.0000000000
     16329      5443  TIP3      H2             -9.4151103985       -3.1053457466       13.6492753365  WZ3       1336            0.0000000000
     16330      5444  TIP3      OH2            -4.8196103985      -20.9168457466       11.9214453365  WZ3       1337            0.0000000000
     16331      5444  TIP3      H1             -5.6322603985      -20.5918157466       11.5339153365  WZ3       1337            0.0000000000
     16332      5444  TIP3      H2             -4.5867603985      -21.6769957466       11.3883553365  WZ3       1337            0.0000000000
     16333      5445  TIP3      OH2           -18.9915003985       -2.9348957466       10.6859653365  WZ3       1338            0.0000000000
     16334      5445  TIP3      H1            -19.7118603985       -2.4947957466       10.2347353365  WZ3       1338            0.0000000000
     16335      5445  TIP3      H2            -19.3571003985       -3.1854257466       11.5343653365  WZ3       1338            0.0000000000
     16336      5446  TIP3      OH2           -16.5242403985       -3.3345057466        9.7156853365  WZ3       1339            0.0000000000
     16337      5446  TIP3      H1            -17.3890203985       -3.2626557466       10.1196953365  WZ3       1339            0.0000000000
     16338      5446  TIP3      H2            -16.5793403985       -2.7877757466        8.9319353365  WZ3       1339            0.0000000000
     16339      5447  TIP3      OH2           -11.8136803985       -3.4466157466        8.8912853365  WZ3       1340            0.0000000000
     16340      5447  TIP3      H1            -12.2702803985       -2.9176457466        8.2371253365  WZ3       1340            0.0000000000
     16341      5447  TIP3      H2            -11.6508803985       -2.8434757466        9.6165153365  WZ3       1340            0.0000000000
     16342      5448  TIP3      OH2            -9.4860503985       -4.5686557466        9.8363153365  WZ3       1341            0.0000000000
     16343      5448  TIP3      H1            -10.3906803985       -4.4036357466        9.5705253365  WZ3       1341            0.0000000000
     16344      5448  TIP3      H2             -9.0571903985       -3.7154357466        9.7706553365  WZ3       1341            0.0000000000
     16345      5449  TIP3      OH2            -6.8818603985       -2.9987457466       10.1310953365  WZ3       1342            0.0000000000
     16346      5449  TIP3      H1             -7.0636603985       -2.0828557466        9.9205853365  WZ3       1342            0.0000000000
     16347      5449  TIP3      H2             -6.7050803985       -3.4090357466        9.2845553365  WZ3       1342            0.0000000000
     16348      5450  TIP3      OH2           -19.5766903985       -4.3116457466        7.5961453365  WZ3       1343            0.0000000000
     16349      5450  TIP3      H1            -19.5950903985       -4.7371357466        8.4533753365  WZ3       1343            0.0000000000
     16350      5450  TIP3      H2            -18.7719003985       -4.6301457466        7.1873653365  WZ3       1343            0.0000000000
     16351      5451  TIP3      OH2           -17.4353803985       -5.6017757466        6.2511353365  WZ3       1344            0.0000000000
     16352      5451  TIP3      H1            -17.6543103985       -6.5180357466        6.4207353365  WZ3       1344            0.0000000000
     16353      5451  TIP3      H2            -16.6111603985       -5.4617357466        6.7172753365  WZ3       1344            0.0000000000
     16354      5452  TIP3      OH2           -14.8981303985       -5.1318457466        7.0999353365  WZ3       1345            0.0000000000
     16355      5452  TIP3      H1            -14.6855603985       -6.0199457466        6.8130253365  WZ3       1345            0.0000000000
     16356      5452  TIP3      H2            -14.8336203985       -5.1660757466        8.0543353365  WZ3       1345            0.0000000000
     16357      5453  TIP3      OH2           -11.3897603985      -19.4677857466        6.2442653365  WZ3       1346            0.0000000000
     16358      5453  TIP3      H1            -12.0640803985      -20.0972257466        6.4998453365  WZ3       1346            0.0000000000
     16359      5453  TIP3      H2            -10.8258403985      -19.9518957466        5.6410553365  WZ3       1346            0.0000000000
     16360      5454  TIP3      OH2            -6.2470403985      -21.3603857466        6.3569753365  WZ3       1347            0.0000000000
     16361      5454  TIP3      H1             -5.6432803985      -20.8128457466        5.8550753365  WZ3       1347            0.0000000000
     16362      5454  TIP3      H2             -7.1168403985      -21.0413457466        6.1163853365  WZ3       1347            0.0000000000
     16363      5455  TIP3      OH2            -4.5200003985      -20.2215157466        4.6900653365  WZ3       1348            0.0000000000
     16364      5455  TIP3      H1             -3.9082503985      -20.7359457466        4.1634253365  WZ3       1348            0.0000000000
     16365      5455  TIP3      H2             -4.1376603985      -19.3443057466        4.7135053365  WZ3       1348            0.0000000000
     16366      5456  TIP3      OH2           -19.0630103985      -20.8337557466        4.0662553365  WZ3       1349            0.0000000000
     16367      5456  TIP3      H1            -19.8400303985      -21.0682657466        3.5588453365  WZ3       1349            0.0000000000
     16368      5456  TIP3      H2            -18.5326503985      -21.6305457466        4.0750553365  WZ3       1349            0.0000000000
     16369      5457  TIP3      OH2           -20.2266703985      -21.0359457466       -0.1301346635  WZ3       1350            0.0000000000
     16370      5457  TIP3      H1            -19.7876003985      -20.4248957466       -0.7217846635  WZ3       1350            0.0000000000
     16371      5457  TIP3      H2            -20.8604303985      -20.4975357466        0.3438653365  WZ3       1350            0.0000000000
     16372      5458  TIP3      OH2           -14.4837503985      -20.9070457466        3.8795653365  WZ3       1351            0.0000000000
     16373      5458  TIP3      H1            -13.6094103985      -20.5186157466        3.8499953365  WZ3       1351            0.0000000000
     16374      5458  TIP3      H2            -14.6196703985      -21.1222657466        4.8022853365  WZ3       1351            0.0000000000
     16375      5459  TIP3      OH2            -8.9269103985      -20.8770657466        5.5287353365  WZ3       1352            0.0000000000
     16376      5459  TIP3      H1             -8.8507503985      -20.7819057466        4.5793353365  WZ3       1352            0.0000000000
     16377      5459  TIP3      H2             -9.2019903985      -21.7847757466        5.6576453365  WZ3       1352            0.0000000000
     16378      5460  TIP3      OH2            -7.5736503985      -20.8512857466        1.2212353365  WZ3       1353            0.0000000000
     16379      5460  TIP3      H1             -8.2765403985      -20.2363657466        1.0113753365  WZ3       1353            0.0000000000
     16380      5460  TIP3      H2             -8.0185103985      -21.6886157466        1.3523253365  WZ3       1353            0.0000000000
     16381      5461  TIP3      OH2           -20.3257203985       -5.0877257466        0.7673753365  WZ3       1354            0.0000000000
     16382      5461  TIP3      H1            -21.0107303985       -5.1258357466        0.0998853365  WZ3       1354            0.0000000000
     16383      5461  TIP3      H2            -20.3220003985       -4.1749657466        1.0555853365  WZ3       1354            0.0000000000
     16384      5462  TIP3      OH2           -18.3657603985      -19.1197957466       -1.6877246635  WZ3       1355            0.0000000000
     16385      5462  TIP3      H1            -17.8744203985      -19.7495557466       -2.2151746635  WZ3       1355            0.0000000000
     16386      5462  TIP3      H2            -17.7421303985      -18.8238557466       -1.0246046635  WZ3       1355            0.0000000000
     16387      5463  TIP3      OH2           -13.3397503985      -18.8266457466        0.7693253365  WZ3       1356            0.0000000000
     16388      5463  TIP3      H1            -13.1616203985      -19.4733257466        1.4521853365  WZ3       1356            0.0000000000
     16389      5463  TIP3      H2            -13.3931303985      -17.9928757466        1.2364353365  WZ3       1356            0.0000000000
     16390      5464  TIP3      OH2           -11.4613703985       -3.8782357466       -0.8350046635  WZ3       1357            0.0000000000
     16391      5464  TIP3      H1            -10.5953503985       -3.5114957466       -1.0131846635  WZ3       1357            0.0000000000
     16392      5464  TIP3      H2            -11.7080903985       -4.3174357466       -1.6489246635  WZ3       1357            0.0000000000
     16393      5465  TIP3      OH2            -4.7524103985       -4.3152057466        1.8441053365  WZ3       1358            0.0000000000
     16394      5465  TIP3      H1             -4.9467003985       -5.0629957466        1.2790653365  WZ3       1358            0.0000000000
     16395      5465  TIP3      H2             -4.7914003985       -3.5571957466        1.2608953365  WZ3       1358            0.0000000000
     16396      5466  TIP3      OH2           -19.1052103985      -20.3195657466       13.5838753365  WZ3       1359            0.0000000000
     16397      5466  TIP3      H1            -19.4713903985      -21.0853057466       14.0263453365  WZ3       1359            0.0000000000
     16398      5466  TIP3      H2            -18.1923603985      -20.2905457466       13.8703853365  WZ3       1359            0.0000000000
     16399      5467  TIP3      OH2           -17.1321303985      -20.9691257466       15.1195853365  WZ3       1360            0.0000000000
     16400      5467  TIP3      H1            -16.2337703985      -21.2431057466       14.9349253365  WZ3       1360            0.0000000000
     16401      5467  TIP3      H2            -17.5188203985      -21.7115257466       15.5838453365  WZ3       1360            0.0000000000
     16402      5468  TIP3      OH2           -18.5076003985       -4.1676457466       -2.2074146635  WZ3       1361            0.0000000000
     16403      5468  TIP3      H1            -18.7751403985       -3.8813557466       -1.3341046635  WZ3       1361            0.0000000000
     16404      5468  TIP3      H2            -17.7363403985       -4.7137257466       -2.0551646635  WZ3       1361            0.0000000000
     16405      5469  TIP3      OH2            -8.7109003985      -21.6365957466       15.3018653365  WZ3       1362            0.0000000000
     16406      5469  TIP3      H1             -8.6341803985      -22.0625257466       16.1556353365  WZ3       1362            0.0000000000
     16407      5469  TIP3      H2             -7.8172403985      -21.6231257466       14.9592153365  WZ3       1362            0.0000000000
     16408      5470  TIP3      OH2            -5.5347903985       -5.5639657466       13.9942853365  WZ3       1363            0.0000000000
     16409      5470  TIP3      H1             -6.3166003985       -5.7501657466       13.4743453365  WZ3       1363            0.0000000000
     16410      5470  TIP3      H2             -5.6068003985       -4.6345357466       14.2115353365  WZ3       1363            0.0000000000
     16411      5471  TIP3      OH2             8.8712496015      -11.6775257466        4.0250053365  WZ3       1364            0.0000000000
     16412      5471  TIP3      H1              8.9603596015      -10.7337057466        3.8927153365  WZ3       1364            0.0000000000
     16413      5471  TIP3      H2              8.2330096015      -11.9528857466        3.3669453365  WZ3       1364            0.0000000000
     16414      5472  TIP3      OH2             7.8043796015      -12.4224557466        7.4438253365  WZ3       1365            0.0000000000
     16415      5472  TIP3      H1              7.7661296015      -13.0688257466        8.1487853365  WZ3       1365            0.0000000000
     16416      5472  TIP3      H2              7.4820296015      -12.8890157466        6.6726953365  WZ3       1365            0.0000000000
     16417      5473  TIP3      OH2             0.1728796015      -12.8082457466        9.0368153365  WZ3       1366            0.0000000000
     16418      5473  TIP3      H1              0.2140896015      -13.4339157466        9.7600553365  WZ3       1366            0.0000000000
     16419      5473  TIP3      H2              0.8756496015      -12.1843857466        9.2188553365  WZ3       1366            0.0000000000
     16420      5474  TIP3      OH2            11.5103996015       -9.4834157466        5.7453353365  WZ3       1367            0.0000000000
     16421      5474  TIP3      H1             11.0696696015      -10.2038157466        6.1958953365  WZ3       1367            0.0000000000
     16422      5474  TIP3      H2             11.4973696015       -8.7626957466        6.3751053365  WZ3       1367            0.0000000000
     16423      5475  TIP3      OH2             1.0961896015       -8.3583557466        7.5717253365  WZ3       1368            0.0000000000
     16424      5475  TIP3      H1              0.7267096015       -9.1603057466        7.2021553365  WZ3       1368            0.0000000000
     16425      5475  TIP3      H2              2.0372996015       -8.5268657466        7.6180653365  WZ3       1368            0.0000000000
     16426      5476  TIP3      OH2            -2.2937603985      -14.6980957466        2.9646053365  WZ3       1369            0.0000000000
     16427      5476  TIP3      H1             -2.7414203985      -13.8522257466        2.9462553365  WZ3       1369            0.0000000000
     16428      5476  TIP3      H2             -2.8546403985      -15.2776757466        2.4491153365  WZ3       1369            0.0000000000
     16429      5477  TIP3      OH2            -1.5831503985      -12.5361357466        5.0904053365  WZ3       1370            0.0000000000
     16430      5477  TIP3      H1             -1.3698003985      -13.3059757466        5.6177053365  WZ3       1370            0.0000000000
     16431      5477  TIP3      H2             -0.8453903985      -12.4464657466        4.4871653365  WZ3       1370            0.0000000000
     16432      5478  TIP3      OH2             8.6219496015       -4.3792457466        5.9573753365  WZ3       1371            0.0000000000
     16433      5478  TIP3      H1              9.2415896015       -5.0557757466        5.6842953365  WZ3       1371            0.0000000000
     16434      5478  TIP3      H2              8.4136896015       -4.5971657466        6.8658653365  WZ3       1371            0.0000000000
     16435      5479  TIP3      OH2             6.1938196015       -9.9903157466        7.8499253365  WZ3       1372            0.0000000000
     16436      5479  TIP3      H1              6.4976096015      -10.6761757466        7.2553353365  WZ3       1372            0.0000000000
     16437      5479  TIP3      H2              6.9152196015       -9.8714457466        8.4677253365  WZ3       1372            0.0000000000
     16438      5480  TIP3      OH2            14.8567996015      -18.3887857466        8.7105453365  WZ3       1373            0.0000000000
     16439      5480  TIP3      H1             14.9060196015      -17.7786657466        9.4464553365  WZ3       1373            0.0000000000
     16440      5480  TIP3      H2             15.2823096015      -17.9276957466        7.9876553365  WZ3       1373            0.0000000000
     16441      5481  TIP3      OH2             9.3345196015      -15.5960757466        8.1774053365  WZ3       1374            0.0000000000
     16442      5481  TIP3      H1              9.4771096015      -16.5423757466        8.1975653365  WZ3       1374            0.0000000000
     16443      5481  TIP3      H2              9.2284196015      -15.3890957466        7.2488953365  WZ3       1374            0.0000000000
     16444      5482  TIP3      OH2             2.4893496015      -17.4944357466        5.4498853365  WZ3       1375            0.0000000000
     16445      5482  TIP3      H1              2.5324596015      -16.6345857466        5.0315153365  WZ3       1375            0.0000000000
     16446      5482  TIP3      H2              2.0317596015      -18.0469657466        4.8162053365  WZ3       1375            0.0000000000
     16447      5483  TIP3      OH2            10.2116196015      -17.3638757466        3.8507153365  WZ3       1376            0.0000000000
     16448      5483  TIP3      H1             10.8580496015      -17.6925557466        4.4754753365  WZ3       1376            0.0000000000
     16449      5483  TIP3      H2             10.7215596015      -16.8459757466        3.2278553365  WZ3       1376            0.0000000000
     16450      5484  TIP3      OH2            -0.8905003985      -15.0978557466        6.2120253365  WZ3       1377            0.0000000000
     16451      5484  TIP3      H1             -0.2368403985      -15.6476857466        6.6440353365  WZ3       1377            0.0000000000
     16452      5484  TIP3      H2             -0.8665703985      -15.3719557466        5.2952253365  WZ3       1377            0.0000000000
     16453      5485  TIP3      OH2             4.2659496015      -13.5477257466        5.4271753365  WZ3       1378            0.0000000000
     16454      5485  TIP3      H1              4.8820496015      -14.0741857466        5.9365753365  WZ3       1378            0.0000000000
     16455      5485  TIP3      H2              3.6798296015      -14.1878557466        5.0235353365  WZ3       1378            0.0000000000
     16456      5486  TIP3      OH2            15.2482596015      -16.9108657466       10.9465253365  WZ3       1379            0.0000000000
     16457      5486  TIP3      H1             14.5597196015      -16.2527957466       10.8511853365  WZ3       1379            0.0000000000
     16458      5486  TIP3      H2             15.2637196015      -17.1080757466       11.8830653365  WZ3       1379            0.0000000000
     16459      5487  TIP3      OH2             1.2995396015      -18.5765957466        9.5239653365  WZ3       1380            0.0000000000
     16460      5487  TIP3      H1              1.0807096015      -18.0465357466        8.7575653365  WZ3       1380            0.0000000000
     16461      5487  TIP3      H2              0.6316296015      -18.3500457466       10.1711053365  WZ3       1380            0.0000000000
     16462      5488  TIP3      OH2             8.6685196015       -9.0764857466        3.0678753365  WZ3       1381            0.0000000000
     16463      5488  TIP3      H1              8.3730296015       -9.3992557466        2.2165653365  WZ3       1381            0.0000000000
     16464      5488  TIP3      H2              8.3442996015       -8.1768157466        3.1091353365  WZ3       1381            0.0000000000
     16465      5489  TIP3      OH2             3.8686796015      -10.9010257466        9.8113353365  WZ3       1382            0.0000000000
     16466      5489  TIP3      H1              3.1285896015      -10.3028757466        9.9148553365  WZ3       1382            0.0000000000
     16467      5489  TIP3      H2              4.5826296015      -10.3470657466        9.4956953365  WZ3       1382            0.0000000000
     16468      5490  TIP3      OH2            11.9754596015      -18.0729457466        5.8313053365  WZ3       1383            0.0000000000
     16469      5490  TIP3      H1             11.7602596015      -18.8386057466        6.3639053365  WZ3       1383            0.0000000000
     16470      5490  TIP3      H2             12.6311996015      -17.6004857466        6.3441553365  WZ3       1383            0.0000000000
     16471      5491  TIP3      OH2             0.8932696015      -16.6844157466        7.4761853365  WZ3       1384            0.0000000000
     16472      5491  TIP3      H1              1.5068996015      -16.0516557466        7.8494253365  WZ3       1384            0.0000000000
     16473      5491  TIP3      H2              1.4053396015      -17.1569157466        6.8198753365  WZ3       1384            0.0000000000
     16474      5492  TIP3      OH2             2.2761096015       -8.9367257466       10.5984853365  WZ3       1385            0.0000000000
     16475      5492  TIP3      H1              2.2708696015       -8.0573757466       10.2204153365  WZ3       1385            0.0000000000
     16476      5492  TIP3      H2              1.4225196015       -9.0203157466       11.0234753365  WZ3       1385            0.0000000000
     16477      5493  TIP3      OH2            -1.6028003985       -9.2659357466        1.3804153365  WZ3       1386            0.0000000000
     16478      5493  TIP3      H1             -1.8747103985       -9.0368357466        0.4917053365  WZ3       1386            0.0000000000
     16479      5493  TIP3      H2             -1.5572303985       -8.4280557466        1.8409453365  WZ3       1386            0.0000000000
     16480      5494  TIP3      OH2            12.0221696015       -7.6443457466        8.0932653365  WZ3       1387            0.0000000000
     16481      5494  TIP3      H1             11.0805396015       -7.5859557466        8.2549553365  WZ3       1387            0.0000000000
     16482      5494  TIP3      H2             12.2987796015       -6.7382957466        7.9562353365  WZ3       1387            0.0000000000
     16483      5495  TIP3      OH2            12.3228696015      -19.3578157466        9.5106553365  WZ3       1388            0.0000000000
     16484      5495  TIP3      H1             11.5867896015      -18.7471057466        9.4727853365  WZ3       1388            0.0000000000
     16485      5495  TIP3      H2             13.0062696015      -18.9429157466        8.9842953365  WZ3       1388            0.0000000000
     16486      5496  TIP3      OH2             5.3260096015      -21.2710857466        6.9764553365  WZ3       1389            0.0000000000
     16487      5496  TIP3      H1              5.2084296015      -22.2194857466        6.9222853365  WZ3       1389            0.0000000000
     16488      5496  TIP3      H2              4.4710196015      -20.9384757466        7.2495653365  WZ3       1389            0.0000000000
     16489      5497  TIP3      OH2            10.2742896015       -5.8629957466        4.7184253365  WZ3       1390            0.0000000000
     16490      5497  TIP3      H1             10.6995196015       -6.5702057466        4.2333853365  WZ3       1390            0.0000000000
     16491      5497  TIP3      H2             10.5912896015       -5.0617257466        4.3016453365  WZ3       1390            0.0000000000
     16492      5498  TIP3      OH2            11.4339396015       -7.9621457466        3.2270853365  WZ3       1391            0.0000000000
     16493      5498  TIP3      H1             11.1764196015       -8.6521357466        2.6156753365  WZ3       1391            0.0000000000
     16494      5498  TIP3      H2             11.5050196015       -8.4050257466        4.0726753365  WZ3       1391            0.0000000000
     16495      5499  TIP3      OH2            13.1199596015       -9.3954757466       11.7044353365  WZ3       1392            0.0000000000
     16496      5499  TIP3      H1             13.2595896015       -9.9872257466       10.9651353365  WZ3       1392            0.0000000000
     16497      5499  TIP3      H2             13.2872396015       -8.5228857466       11.3483153365  WZ3       1392            0.0000000000
     16498      5500  TIP3      OH2             7.5924996015      -12.4335257466        1.4770353365  WZ3       1393            0.0000000000
     16499      5500  TIP3      H1              6.8810496015      -11.8985557466        1.1250853365  WZ3       1393            0.0000000000
     16500      5500  TIP3      H2              8.2834596015      -12.3783157466        0.8169253365  WZ3       1393            0.0000000000
     16501      5501  TIP3      OH2             7.6464196015      -13.9760957466       -1.4844646635  WZ3       1394            0.0000000000
     16502      5501  TIP3      H1              8.3474096015      -13.9534057466       -0.8330646635  WZ3       1394            0.0000000000
     16503      5501  TIP3      H2              7.9487096015      -14.6041257466       -2.1405346635  WZ3       1394            0.0000000000
     16504      5502  TIP3      OH2            14.9618896015      -13.0556757466        9.7704753365  WZ3       1395            0.0000000000
     16505      5502  TIP3      H1             14.3092996015      -12.3611157466        9.8595653365  WZ3       1395            0.0000000000
     16506      5502  TIP3      H2             15.4269196015      -12.8455857466        8.9606353365  WZ3       1395            0.0000000000
     16507      5503  TIP3      OH2            10.9982696015      -12.2241957466        2.4286253365  WZ3       1396            0.0000000000
     16508      5503  TIP3      H1             10.2663696015      -11.9958257466        3.0016853365  WZ3       1396            0.0000000000
     16509      5503  TIP3      H2             11.4454896015      -12.9379257466        2.8833753365  WZ3       1396            0.0000000000
     16510      5504  TIP3      OH2            10.8956196015      -14.0499357466       11.4963253365  WZ3       1397            0.0000000000
     16511      5504  TIP3      H1             10.9755296015      -13.2864957466       12.0681753365  WZ3       1397            0.0000000000
     16512      5504  TIP3      H2             10.2943896015      -13.7706957466       10.8058353365  WZ3       1397            0.0000000000
     16513      5505  TIP3      OH2             2.6436396015      -11.5935757466        4.3111253365  WZ3       1398            0.0000000000
     16514      5505  TIP3      H1              2.3131596015      -11.9642357466        3.4928253365  WZ3       1398            0.0000000000
     16515      5505  TIP3      H2              3.2320496015      -12.2641757466        4.6579553365  WZ3       1398            0.0000000000
     16516      5506  TIP3      OH2             4.0103896015       -8.1655157466        6.9923453365  WZ3       1399            0.0000000000
     16517      5506  TIP3      H1              3.9155196015       -8.7442057466        6.2358053365  WZ3       1399            0.0000000000
     16518      5506  TIP3      H2              4.7397496015       -8.5369457466        7.4886253365  WZ3       1399            0.0000000000
     16519      5507  TIP3      OH2             3.0101896015      -12.8250157466        7.9446253365  WZ3       1400            0.0000000000
     16520      5507  TIP3      H1              3.5754396015      -12.7035957466        7.1817453365  WZ3       1400            0.0000000000
     16521      5507  TIP3      H2              3.3290796015      -12.1875157466        8.5834753365  WZ3       1400            0.0000000000
     16522      5508  TIP3      OH2             9.3194096015       -7.3218257466        8.6786753365  WZ3       1401            0.0000000000
     16523      5508  TIP3      H1              9.0790696015       -6.6595157466        9.3265953365  WZ3       1401            0.0000000000
     16524      5508  TIP3      H2              9.1212296015       -8.1563057466        9.1036353365  WZ3       1401            0.0000000000
     16525      5509  TIP3      OH2             3.8902596015       -8.4257457466       12.6618153365  WZ3       1402            0.0000000000
     16526      5509  TIP3      H1              3.5790096015       -7.6434257466       13.1171353365  WZ3       1402            0.0000000000
     16527      5509  TIP3      H2              3.2402796015       -8.5788357466       11.9760153365  WZ3       1402            0.0000000000
     16528      5510  TIP3      OH2             9.8692196015      -13.0619057466        0.1137453365  WZ3       1403            0.0000000000
     16529      5510  TIP3      H1             10.4487696015      -12.9118757466        0.8606353365  WZ3       1403            0.0000000000
     16530      5510  TIP3      H2             10.2832196015      -12.5911657466       -0.6096146635  WZ3       1403            0.0000000000
     16531      5511  TIP3      OH2             0.8102496015      -12.2276357466       11.8903853365  WZ3       1404            0.0000000000
     16532      5511  TIP3      H1              0.8805696015      -11.5769557466       12.5888853365  WZ3       1404            0.0000000000
     16533      5511  TIP3      H2             -0.0805303985      -12.1248857466       11.5554753365  WZ3       1404            0.0000000000
     16534      5512  TIP3      OH2             7.5957096015       -6.3250557466        3.5490553365  WZ3       1405            0.0000000000
     16535      5512  TIP3      H1              8.0694696015       -6.0294257466        4.3264753365  WZ3       1405            0.0000000000
     16536      5512  TIP3      H2              7.0326396015       -5.5868957466        3.3160153365  WZ3       1405            0.0000000000
     16537      5513  TIP3      OH2             2.1298496015       -6.3542457466       13.4251953365  WZ3       1406            0.0000000000
     16538      5513  TIP3      H1              2.1373796015       -6.4902757466       12.4777453365  WZ3       1406            0.0000000000
     16539      5513  TIP3      H2              1.2138896015       -6.4714357466       13.6771953365  WZ3       1406            0.0000000000
     16540      5514  TIP3      OH2            13.5680596015      -21.3118657466       -0.0732846635  WZ3       1407            0.0000000000
     16541      5514  TIP3      H1             12.6681296015      -21.1729657466        0.2217753365  WZ3       1407            0.0000000000
     16542      5514  TIP3      H2             13.8198996015      -20.4804057466       -0.4751146635  WZ3       1407            0.0000000000
     16543      5515  TIP3      OH2             1.6339096015      -12.5241457466        1.9004053365  WZ3       1408            0.0000000000
     16544      5515  TIP3      H1              1.3420396015      -11.7559757466        1.4095353365  WZ3       1408            0.0000000000
     16545      5515  TIP3      H2              0.9594296015      -13.1835257466        1.7375453365  WZ3       1408            0.0000000000
     16546      5516  TIP3      OH2            14.7571996015       -6.9456257466       -1.6968946635  WZ3       1409            0.0000000000
     16547      5516  TIP3      H1             14.8305496015       -6.0066057466       -1.5263646635  WZ3       1409            0.0000000000
     16548      5516  TIP3      H2             15.6627096015       -7.2507657466       -1.7531646635  WZ3       1409            0.0000000000
     16549      5517  TIP3      OH2            -2.2730803985      -10.1612257466       10.7153853365  WZ3       1410            0.0000000000
     16550      5517  TIP3      H1             -2.7742403985      -10.1892857466        9.9003553365  WZ3       1410            0.0000000000
     16551      5517  TIP3      H2             -2.2677103985      -11.0669057466       11.0251153365  WZ3       1410            0.0000000000
     16552      5518  TIP3      OH2            -2.5228103985       -7.3808457466        7.5994053365  WZ3       1411            0.0000000000
     16553      5518  TIP3      H1             -1.5767503985       -7.5251457466        7.5803553365  WZ3       1411            0.0000000000
     16554      5518  TIP3      H2             -2.6351803985       -6.5965657466        8.1365253365  WZ3       1411            0.0000000000
     16555      5519  TIP3      OH2            15.6750396015       -6.7148757466       13.2817753365  WZ3       1412            0.0000000000
     16556      5519  TIP3      H1             15.6257196015       -7.6700657466       13.2445353365  WZ3       1412            0.0000000000
     16557      5519  TIP3      H2             14.8482696015       -6.4473457466       13.6831553365  WZ3       1412            0.0000000000
     16558      5520  TIP3      OH2             6.6534396015       -7.1409557466       12.1579153365  WZ3       1413            0.0000000000
     16559      5520  TIP3      H1              6.7408996015       -6.3144957466       12.6328253365  WZ3       1413            0.0000000000
     16560      5520  TIP3      H2              5.7899496015       -7.4705757466       12.4068453365  WZ3       1413            0.0000000000
     16561      5521  TIP3      OH2             7.0680196015       -3.3685857466        1.9639753365  WZ3       1414            0.0000000000
     16562      5521  TIP3      H1              6.9926196015       -3.4898657466        1.0174953365  WZ3       1414            0.0000000000
     16563      5521  TIP3      H2              7.1008896015       -2.4193157466        2.0824353365  WZ3       1414            0.0000000000
     16564      5522  TIP3      OH2             0.7213996015       -4.5798857466        3.7448753365  WZ3       1415            0.0000000000
     16565      5522  TIP3      H1              0.8734396015       -4.9278457466        4.6235253365  WZ3       1415            0.0000000000
     16566      5522  TIP3      H2             -0.1295603985       -4.9361557466        3.4895953365  WZ3       1415            0.0000000000
     16567      5523  TIP3      OH2            10.1696196015       -4.2145657466       -1.0337846635  WZ3       1416            0.0000000000
     16568      5523  TIP3      H1             10.5444596015       -4.9589557466       -1.5045246635  WZ3       1416            0.0000000000
     16569      5523  TIP3      H2             10.1739896015       -4.4845057466       -0.1154546635  WZ3       1416            0.0000000000
     16570      5524  TIP3      OH2             9.8384296015       -4.2888557466        1.7154353365  WZ3       1417            0.0000000000
     16571      5524  TIP3      H1              8.9034096015       -4.1886657466        1.8941353365  WZ3       1417            0.0000000000
     16572      5524  TIP3      H2             10.1186196015       -4.9982557466        2.2937553365  WZ3       1417            0.0000000000
     16573      5525  TIP3      OH2            12.8270196015      -15.2216257466       13.7619953365  WZ3       1418            0.0000000000
     16574      5525  TIP3      H1             12.4196996015      -14.7410657466       13.0413253365  WZ3       1418            0.0000000000
     16575      5525  TIP3      H2             12.8675896015      -16.1270257466       13.4540753365  WZ3       1418            0.0000000000
     16576      5526  TIP3      OH2            -0.0240303985       -8.8376857466       11.7586653365  WZ3       1419            0.0000000000
     16577      5526  TIP3      H1              0.1920996015       -9.1991257466       12.6182453365  WZ3       1419            0.0000000000
     16578      5526  TIP3      H2             -0.8795603985       -9.2123057466       11.5490153365  WZ3       1419            0.0000000000
     16579      5527  TIP3      OH2             2.5947696015      -20.3676357466        7.7540853365  WZ3       1420            0.0000000000
     16580      5527  TIP3      H1              1.7331396015      -20.4548157466        7.3463753365  WZ3       1420            0.0000000000
     16581      5527  TIP3      H2              2.5723396015      -19.5116257466        8.1818453365  WZ3       1420            0.0000000000
     16582      5528  TIP3      OH2             7.2575496015      -20.6455957466       11.1287853365  WZ3       1421            0.0000000000
     16583      5528  TIP3      H1              7.6778596015      -21.0608857466       11.8818453365  WZ3       1421            0.0000000000
     16584      5528  TIP3      H2              6.3245096015      -20.8242657466       11.2459853365  WZ3       1421            0.0000000000
     16585      5529  TIP3      OH2            10.5840396015      -16.8900757466       11.9822353365  WZ3       1422            0.0000000000
     16586      5529  TIP3      H1             10.0699896015      -17.0158557466       12.7798353365  WZ3       1422            0.0000000000
     16587      5529  TIP3      H2             10.4285096015      -15.9777657466       11.7378553365  WZ3       1422            0.0000000000
     16588      5530  TIP3      OH2            11.3465296015      -12.0290757466       -2.2564646635  WZ3       1423            0.0000000000
     16589      5530  TIP3      H1             11.3886096015      -12.2516857466       -3.1864646635  WZ3       1423            0.0000000000
     16590      5530  TIP3      H2             12.1957396015      -11.6303657466       -2.0664746635  WZ3       1423            0.0000000000
     16591      5531  TIP3      OH2             6.9192796015      -18.1532557466       -1.5861346635  WZ3       1424            0.0000000000
     16592      5531  TIP3      H1              6.6657596015      -18.1340957466       -0.6633246635  WZ3       1424            0.0000000000
     16593      5531  TIP3      H2              6.6624896015      -19.0247157466       -1.8875146635  WZ3       1424            0.0000000000
     16594      5532  TIP3      OH2             2.6857796015      -15.4021857466        8.8491053365  WZ3       1425            0.0000000000
     16595      5532  TIP3      H1              2.0439896015      -15.4424557466        9.5581153365  WZ3       1425            0.0000000000
     16596      5532  TIP3      H2              2.7229796015      -14.4757157466        8.6114053365  WZ3       1425            0.0000000000
     16597      5533  TIP3      OH2             2.6826896015      -15.1811757466        3.7611053365  WZ3       1426            0.0000000000
     16598      5533  TIP3      H1              1.7899796015      -15.5215657466        3.7024853365  WZ3       1426            0.0000000000
     16599      5533  TIP3      H2              3.1333496015      -15.5580857466        3.0054253365  WZ3       1426            0.0000000000
     16600      5534  TIP3      OH2             8.2182396015      -14.7651457466        2.5781853365  WZ3       1427            0.0000000000
     16601      5534  TIP3      H1              7.8092696015      -13.9502857466        2.2866653365  WZ3       1427            0.0000000000
     16602      5534  TIP3      H2              8.9388596015      -14.9051357466        1.9638953365  WZ3       1427            0.0000000000
     16603      5535  TIP3      OH2             7.3203996015      -14.5895057466       14.0662553365  WZ3       1428            0.0000000000
     16604      5535  TIP3      H1              6.7577796015      -15.2943457466       14.3870353365  WZ3       1428            0.0000000000
     16605      5535  TIP3      H2              8.1467396015      -14.7103157466       14.5340153365  WZ3       1428            0.0000000000
     16606      5536  TIP3      OH2             9.2230096015      -15.3191057466        5.3921553365  WZ3       1429            0.0000000000
     16607      5536  TIP3      H1              9.0274596015      -14.7134257466        4.6772153365  WZ3       1429            0.0000000000
     16608      5536  TIP3      H2              9.4042696015      -16.1525857466        4.9577853365  WZ3       1429            0.0000000000
     16609      5537  TIP3      OH2             0.4358296015      -15.0818357466       10.7163053365  WZ3       1430            0.0000000000
     16610      5537  TIP3      H1              0.3977696015      -14.6816757466       11.5850153365  WZ3       1430            0.0000000000
     16611      5537  TIP3      H2             -0.0550603985      -15.8985957466       10.8065953365  WZ3       1430            0.0000000000
     16612      5538  TIP3      OH2             3.8015696015      -17.7076057466       -2.4850946635  WZ3       1431            0.0000000000
     16613      5538  TIP3      H1              3.3706396015      -18.1525957466       -1.7553546635  WZ3       1431            0.0000000000
     16614      5538  TIP3      H2              3.0834396015      -17.3359757466       -2.9973446635  WZ3       1431            0.0000000000
     16615      5539  TIP3      OH2            -2.9560903985      -17.9656557466        4.5667753365  WZ3       1432            0.0000000000
     16616      5539  TIP3      H1             -2.3253203985      -17.9944457466        5.2861653365  WZ3       1432            0.0000000000
     16617      5539  TIP3      H2             -2.5066603985      -18.3907857466        3.8363653365  WZ3       1432            0.0000000000
     16618      5540  TIP3      OH2            -1.6818803985      -17.2194557466       -0.0091846635  WZ3       1433            0.0000000000
     16619      5540  TIP3      H1             -1.2077103985      -16.6284657466       -0.5940946635  WZ3       1433            0.0000000000
     16620      5540  TIP3      H2             -2.3992403985      -16.6891657466        0.3378253365  WZ3       1433            0.0000000000
     16621      5541  TIP3      OH2             8.4869296015      -13.6809757466       10.0633953365  WZ3       1434            0.0000000000
     16622      5541  TIP3      H1              8.8104096015      -14.3120057466        9.4204453365  WZ3       1434            0.0000000000
     16623      5541  TIP3      H2              8.0468596015      -14.2157557466       10.7241353365  WZ3       1434            0.0000000000
     16624      5542  TIP3      OH2             5.2642196015      -17.7534257466        4.8475153365  WZ3       1435            0.0000000000
     16625      5542  TIP3      H1              4.3533296015      -17.6967457466        5.1361153365  WZ3       1435            0.0000000000
     16626      5542  TIP3      H2              5.7695096015      -17.8138757466        5.6582353365  WZ3       1435            0.0000000000
     16627      5543  TIP3      OH2             0.0925596015      -16.1247957466        3.6742753365  WZ3       1436            0.0000000000
     16628      5543  TIP3      H1             -0.7966403985      -16.0252457466        3.3342353365  WZ3       1436            0.0000000000
     16629      5543  TIP3      H2              0.3890496015      -16.9664957466        3.3280653365  WZ3       1436            0.0000000000
     16630      5544  TIP3      OH2             3.7457396015      -16.1245357466        1.3307353365  WZ3       1437            0.0000000000
     16631      5544  TIP3      H1              4.6772896015      -15.9955357466        1.5090453365  WZ3       1437            0.0000000000
     16632      5544  TIP3      H2              3.5307696015      -15.4551057466        0.6812053365  WZ3       1437            0.0000000000
     16633      5545  TIP3      OH2             9.6694096015      -18.5187957466        8.1116953365  WZ3       1438            0.0000000000
     16634      5545  TIP3      H1              8.9925696015      -18.3874857466        8.7756653365  WZ3       1438            0.0000000000
     16635      5545  TIP3      H2              9.1838996015      -18.6738457466        7.3014653365  WZ3       1438            0.0000000000
     16636      5546  TIP3      OH2             2.4197596015      -14.9303157466       -1.1026546635  WZ3       1439            0.0000000000
     16637      5546  TIP3      H1              1.8772696015      -15.3099357466       -1.7938946635  WZ3       1439            0.0000000000
     16638      5546  TIP3      H2              3.2532496015      -14.7358457466       -1.5312446635  WZ3       1439            0.0000000000
     16639      5547  TIP3      OH2            12.9569196015       -2.8472557466       14.3884553365  WZ3       1440            0.0000000000
     16640      5547  TIP3      H1             13.1567896015       -2.4230657466       13.5539853365  WZ3       1440            0.0000000000
     16641      5547  TIP3      H2             13.6122896015       -2.5034357466       14.9954953365  WZ3       1440            0.0000000000
     16642      5548  TIP3      OH2             0.5548996015      -10.3731257466       13.9965053365  WZ3       1441            0.0000000000
     16643      5548  TIP3      H1              1.2871396015      -10.1185357466       14.5579553365  WZ3       1441            0.0000000000
     16644      5548  TIP3      H2             -0.2252303985      -10.1685857466       14.5120453365  WZ3       1441            0.0000000000
     16645      5549  TIP3      OH2             6.5841896015      -14.9661257466        6.7344753365  WZ3       1442            0.0000000000
     16646      5549  TIP3      H1              7.1485296015      -15.5124657466        6.1874353365  WZ3       1442            0.0000000000
     16647      5549  TIP3      H2              6.4365296015      -15.4879357466        7.5232353365  WZ3       1442            0.0000000000
     16648      5550  TIP3      OH2             1.5861596015      -18.8295157466        3.1529553365  WZ3       1443            0.0000000000
     16649      5550  TIP3      H1              1.2691096015      -19.7319857466        3.1174953365  WZ3       1443            0.0000000000
     16650      5550  TIP3      H2              2.3675696015      -18.8277757466        2.6001153365  WZ3       1443            0.0000000000
     16651      5551  TIP3      OH2             5.2107796015      -16.5775157466        9.1485153365  WZ3       1444            0.0000000000
     16652      5551  TIP3      H1              4.3753096015      -16.1235657466        9.2587553365  WZ3       1444            0.0000000000
     16653      5551  TIP3      H2              5.7348396015      -16.3016657466        9.9005053365  WZ3       1444            0.0000000000
     16654      5552  TIP3      OH2             5.7550396015      -10.3647457466        0.8331553365  WZ3       1445            0.0000000000
     16655      5552  TIP3      H1              5.0101396015      -10.8722157466        0.5109453365  WZ3       1445            0.0000000000
     16656      5552  TIP3      H2              5.6207596015      -10.3159457466        1.7796353365  WZ3       1445            0.0000000000
     16657      5553  TIP3      OH2            12.9049296015      -11.2319257466        9.6199153365  WZ3       1446            0.0000000000
     16658      5553  TIP3      H1             13.5468096015      -10.7752957466        9.0761353365  WZ3       1446            0.0000000000
     16659      5553  TIP3      H2             12.0746196015      -11.1186857466        9.1573253365  WZ3       1446            0.0000000000
     16660      5554  TIP3      OH2             9.6527196015      -17.5507557466       -0.9675846635  WZ3       1447            0.0000000000
     16661      5554  TIP3      H1              8.7141396015      -17.4391957466       -1.1187046635  WZ3       1447            0.0000000000
     16662      5554  TIP3      H2              9.9499296015      -16.6940657466       -0.6610146635  WZ3       1447            0.0000000000
     16663      5555  TIP3      OH2             7.2742496015      -10.1804157466       12.0700653365  WZ3       1448            0.0000000000
     16664      5555  TIP3      H1              6.9288596015      -10.5621757466       12.8770253365  WZ3       1448            0.0000000000
     16665      5555  TIP3      H2              7.0742596015       -9.2470557466       12.1413553365  WZ3       1448            0.0000000000
     16666      5556  TIP3      OH2            10.3710696015      -15.6834857466        0.6931553365  WZ3       1449            0.0000000000
     16667      5556  TIP3      H1             11.2629696015      -15.8209857466        1.0122753365  WZ3       1449            0.0000000000
     16668      5556  TIP3      H2             10.4274296015      -14.8928757466        0.1565053365  WZ3       1449            0.0000000000
     16669      5557  TIP3      OH2             0.8798696015      -11.0697457466        6.6029453365  WZ3       1450            0.0000000000
     16670      5557  TIP3      H1              1.6245896015      -11.0721757466        6.0015953365  WZ3       1450            0.0000000000
     16671      5557  TIP3      H2              0.9575296015      -11.8933657466        7.0844553365  WZ3       1450            0.0000000000
     16672      5558  TIP3      OH2             7.8804496015       -8.9063157466       -0.1413846635  WZ3       1451            0.0000000000
     16673      5558  TIP3      H1              7.5852896015       -8.0795257466        0.2400953365  WZ3       1451            0.0000000000
     16674      5558  TIP3      H2              7.1774496015       -9.5256257466        0.0547553365  WZ3       1451            0.0000000000
     16675      5559  TIP3      OH2            -2.1121603985      -12.6090557466       11.9177953365  WZ3       1452            0.0000000000
     16676      5559  TIP3      H1             -1.8893003985      -13.0270957466       12.7495453365  WZ3       1452            0.0000000000
     16677      5559  TIP3      H2             -2.7141503985      -13.2215557466       11.4950753365  WZ3       1452            0.0000000000
     16678      5560  TIP3      OH2             4.9043296015      -13.0920657466       14.1307653365  WZ3       1453            0.0000000000
     16679      5560  TIP3      H1              4.6084096015      -13.2577657466       13.2356753365  WZ3       1453            0.0000000000
     16680      5560  TIP3      H2              5.8358496015      -13.3120357466       14.1201553365  WZ3       1453            0.0000000000
     16681      5561  TIP3      OH2             9.5246096015       -7.7188657466       12.0205653365  WZ3       1454            0.0000000000
     16682      5561  TIP3      H1              8.6240396015       -7.5356057466       11.7529553365  WZ3       1454            0.0000000000
     16683      5561  TIP3      H2              9.5587196015       -7.4599357466       12.9414453365  WZ3       1454            0.0000000000
     16684      5562  TIP3      OH2            15.2559396015      -15.4740757466        0.3878253365  WZ3       1455            0.0000000000
     16685      5562  TIP3      H1             14.7015696015      -15.8702757466       -0.2844246635  WZ3       1455            0.0000000000
     16686      5562  TIP3      H2             15.3562996015      -14.5635557466        0.1101553365  WZ3       1455            0.0000000000
     16687      5563  TIP3      OH2            15.2191396015       -9.6739057466       13.2249753365  WZ3       1456            0.0000000000
     16688      5563  TIP3      H1             14.3679896015       -9.4355257466       12.8576153365  WZ3       1456            0.0000000000
     16689      5563  TIP3      H2             15.8094796015       -9.6905857466       12.4716853365  WZ3       1456            0.0000000000
     16690      5564  TIP3      OH2            13.5511096015       -6.6880357466        0.8530353365  WZ3       1457            0.0000000000
     16691      5564  TIP3      H1             13.1782196015       -7.5136557466        1.1620953365  WZ3       1457            0.0000000000
     16692      5564  TIP3      H2             13.8284596015       -6.8710957466       -0.0446246635  WZ3       1457            0.0000000000
     16693      5565  TIP3      OH2            10.7114996015      -11.8800857466        7.8742253365  WZ3       1458            0.0000000000
     16694      5565  TIP3      H1              9.7831896015      -12.1118957466        7.8471553365  WZ3       1458            0.0000000000
     16695      5565  TIP3      H2             11.1626096015      -12.6571057466        7.5441053365  WZ3       1458            0.0000000000
     16696      5566  TIP3      OH2             3.2548096015       -7.5519257466        4.0070953365  WZ3       1459            0.0000000000
     16697      5566  TIP3      H1              3.7820296015       -6.7784857466        3.8069753365  WZ3       1459            0.0000000000
     16698      5566  TIP3      H2              2.3746596015       -7.3270057466        3.7054953365  WZ3       1459            0.0000000000
     16699      5567  TIP3      OH2            -0.9904203985      -12.6895157466       -1.4056646635  WZ3       1460            0.0000000000
     16700      5567  TIP3      H1             -0.3744303985      -12.0627957466       -1.0261846635  WZ3       1460            0.0000000000
     16701      5567  TIP3      H2             -1.8521603985      -12.3735357466       -1.1340146635  WZ3       1460            0.0000000000
     16702      5568  TIP3      OH2             4.6820396015       -9.8889357466        3.5835253365  WZ3       1461            0.0000000000
     16703      5568  TIP3      H1              4.4410396015       -8.9634957466        3.6250553365  WZ3       1461            0.0000000000
     16704      5568  TIP3      H2              3.9413996015      -10.3478057466        3.9799153365  WZ3       1461            0.0000000000
     16705      5569  TIP3      OH2             5.1966996015       -5.7395757466        9.8986353365  WZ3       1462            0.0000000000
     16706      5569  TIP3      H1              5.5591696015       -4.8850157466        9.6650753365  WZ3       1462            0.0000000000
     16707      5569  TIP3      H2              5.7282196015       -6.0314157466       10.6392653365  WZ3       1462            0.0000000000
     16708      5570  TIP3      OH2             3.3651196015       -4.8671757466        3.1287453365  WZ3       1463            0.0000000000
     16709      5570  TIP3      H1              2.4151696015       -4.7614357466        3.1800753365  WZ3       1463            0.0000000000
     16710      5570  TIP3      H2              3.7169296015       -4.0464357466        3.4734953365  WZ3       1463            0.0000000000
     16711      5571  TIP3      OH2             8.7407796015       -9.6405057466        9.5991953365  WZ3       1464            0.0000000000
     16712      5571  TIP3      H1              8.3149096015       -9.8683357466       10.4255953365  WZ3       1464            0.0000000000
     16713      5571  TIP3      H2              9.3213596015      -10.3793257466        9.4167253365  WZ3       1464            0.0000000000
     16714      5572  TIP3      OH2            10.9436696015       -8.7114557466       -1.3269046635  WZ3       1465            0.0000000000
     16715      5572  TIP3      H1             11.2969796015       -9.0914757466       -0.5225546635  WZ3       1465            0.0000000000
     16716      5572  TIP3      H2              9.9950196015       -8.8049757466       -1.2399746635  WZ3       1465            0.0000000000
     16717      5573  TIP3      OH2            11.3991996015       -5.0885557466       12.0686753365  WZ3       1466            0.0000000000
     16718      5573  TIP3      H1             10.7975196015       -5.6442657466       11.5733053365  WZ3       1466            0.0000000000
     16719      5573  TIP3      H2             11.6805696015       -4.4215757466       11.4424153365  WZ3       1466            0.0000000000
     16720      5574  TIP3      OH2            15.4471096015       -4.2322057466       -1.1258846635  WZ3       1467            0.0000000000
     16721      5574  TIP3      H1             16.1908996015       -3.6461557466       -1.2657246635  WZ3       1467            0.0000000000
     16722      5574  TIP3      H2             14.7529196015       -3.6636257466       -0.7926446635  WZ3       1467            0.0000000000
     16723      5575  TIP3      OH2            -0.4782103985      -17.8557857466       11.4759353365  WZ3       1468            0.0000000000
     16724      5575  TIP3      H1             -1.3709803985      -17.5172457466       11.4083353365  WZ3       1468            0.0000000000
     16725      5575  TIP3      H2             -0.5769303985      -18.7111757466       11.8940153365  WZ3       1468            0.0000000000
     16726      5576  TIP3      OH2            11.8095996015      -10.0392557466        0.8998853365  WZ3       1469            0.0000000000
     16727      5576  TIP3      H1             11.5323596015      -10.7673257466        1.4559953365  WZ3       1469            0.0000000000
     16728      5576  TIP3      H2             12.7368996015       -9.9200557466        1.1051453365  WZ3       1469            0.0000000000
     16729      5577  TIP3      OH2            -0.8270103985       -6.0513457466        9.9108753365  WZ3       1470            0.0000000000
     16730      5577  TIP3      H1             -0.6099803985       -6.9831057466        9.8798453365  WZ3       1470            0.0000000000
     16731      5577  TIP3      H2             -0.5806603985       -5.7768457466       10.7941553365  WZ3       1470            0.0000000000
     16732      5578  TIP3      OH2             5.0344496015       -7.5998457466       -2.8799046635  WZ3       1471            0.0000000000
     16733      5578  TIP3      H1              5.2734296015       -8.3480357466       -3.4270146635  WZ3       1471            0.0000000000
     16734      5578  TIP3      H2              4.7655796015       -7.9876757466       -2.0471246635  WZ3       1471            0.0000000000
     16735      5579  TIP3      OH2             3.9715096015       -8.0294657466       -0.4236446635  WZ3       1472            0.0000000000
     16736      5579  TIP3      H1              4.1183096015       -8.5494857466        0.3664453365  WZ3       1472            0.0000000000
     16737      5579  TIP3      H2              3.9686796015       -7.1227057466       -0.1170546635  WZ3       1472            0.0000000000
     16738      5580  TIP3      OH2             0.4246196015      -10.7771357466        0.0868953365  WZ3       1473            0.0000000000
     16739      5580  TIP3      H1             -0.2614503985      -10.4248857466        0.6538653365  WZ3       1473            0.0000000000
     16740      5580  TIP3      H2              0.9474096015      -10.0141757466       -0.1596746635  WZ3       1473            0.0000000000
     16741      5581  TIP3      OH2             8.2561296015      -18.1147557466       10.3657953365  WZ3       1474            0.0000000000
     16742      5581  TIP3      H1              8.9549196015      -18.0408857466       11.0157653365  WZ3       1474            0.0000000000
     16743      5581  TIP3      H2              7.8752696015      -18.9792557466       10.5200853365  WZ3       1474            0.0000000000
     16744      5582  TIP3      OH2             9.0406196015      -18.4625857466        1.4630253365  WZ3       1475            0.0000000000
     16745      5582  TIP3      H1              9.2604496015      -17.9910457466        0.6595653365  WZ3       1475            0.0000000000
     16746      5582  TIP3      H2              9.5990196015      -18.0683257466        2.1330853365  WZ3       1475            0.0000000000
     16747      5583  TIP3      OH2             6.7092296015       -6.3321057466        0.3257753365  WZ3       1476            0.0000000000
     16748      5583  TIP3      H1              5.8928396015       -5.8351357466        0.3782053365  WZ3       1476            0.0000000000
     16749      5583  TIP3      H2              7.2388596015       -5.8567557466       -0.3143446635  WZ3       1476            0.0000000000
     16750      5584  TIP3      OH2             6.2406096015      -16.7347057466        2.2978653365  WZ3       1477            0.0000000000
     16751      5584  TIP3      H1              7.0528696015      -16.2303857466        2.3440353365  WZ3       1477            0.0000000000
     16752      5584  TIP3      H2              5.9959096015      -16.8797357466        3.2118253365  WZ3       1477            0.0000000000
     16753      5585  TIP3      OH2             6.7762496015      -15.7484357466       11.4825253365  WZ3       1478            0.0000000000
     16754      5585  TIP3      H1              6.8952796015      -15.1748957466       12.2395653365  WZ3       1478            0.0000000000
     16755      5585  TIP3      H2              7.4317096015      -16.4364957466       11.5973053365  WZ3       1478            0.0000000000
     16756      5586  TIP3      OH2             7.1242796015      -19.6534057466        3.2359753365  WZ3       1479            0.0000000000
     16757      5586  TIP3      H1              6.7776296015      -19.0363457466        3.8804053365  WZ3       1479            0.0000000000
     16758      5586  TIP3      H2              7.7829696015      -19.1528357466        2.7545253365  WZ3       1479            0.0000000000
     16759      5587  TIP3      OH2             4.0475396015       -5.2883857466        0.3074653365  WZ3       1480            0.0000000000
     16760      5587  TIP3      H1              4.2084096015       -4.4886357466       -0.1932746635  WZ3       1480            0.0000000000
     16761      5587  TIP3      H2              3.8503196015       -4.9817857466        1.1925253365  WZ3       1480            0.0000000000
     16762      5588  TIP3      OH2             2.7819796015      -18.5904657466       -0.0767746635  WZ3       1481            0.0000000000
     16763      5588  TIP3      H1              2.6984596015      -17.7021557466        0.2698653365  WZ3       1481            0.0000000000
     16764      5588  TIP3      H2              3.6720096015      -18.8557957466        0.1549053365  WZ3       1481            0.0000000000
     16765      5589  TIP3      OH2            12.9808296015      -17.8414057466       12.3174953365  WZ3       1482            0.0000000000
     16766      5589  TIP3      H1             12.0644096015      -17.5792357466       12.2298653365  WZ3       1482            0.0000000000
     16767      5589  TIP3      H2             13.3163296015      -17.8445057466       11.4210253365  WZ3       1482            0.0000000000
     16768      5590  TIP3      OH2            11.5829296015      -14.0913057466        6.4132253365  WZ3       1483            0.0000000000
     16769      5590  TIP3      H1             10.7853696015      -14.5062857466        6.0847253365  WZ3       1483            0.0000000000
     16770      5590  TIP3      H2             12.0280396015      -14.7819357466        6.9042753365  WZ3       1483            0.0000000000
     16771      5591  TIP3      OH2             1.0405096015       -8.1632457466       -1.0163246635  WZ3       1484            0.0000000000
     16772      5591  TIP3      H1              1.6326596015       -7.4637657466       -0.7400846635  WZ3       1484            0.0000000000
     16773      5591  TIP3      H2              1.4998096015       -8.5962957466       -1.7358646635  WZ3       1484            0.0000000000
     16774      5592  TIP3      OH2            -0.6435703985      -15.4989457466       -1.9003846635  WZ3       1485            0.0000000000
     16775      5592  TIP3      H1             -0.6883103985      -14.5596357466       -1.7216846635  WZ3       1485            0.0000000000
     16776      5592  TIP3      H2             -1.5312503985      -15.7344557466       -2.1701746635  WZ3       1485            0.0000000000
     16777      5593  TIP3      OH2            12.6693896015       -4.8350557466        8.0355753365  WZ3       1486            0.0000000000
     16778      5593  TIP3      H1             12.5138196015       -4.1566157466        7.3785053365  WZ3       1486            0.0000000000
     16779      5593  TIP3      H2             13.6020296015       -4.7631257466        8.2386353365  WZ3       1486            0.0000000000
     16780      5594  TIP3      OH2             0.1646296015      -20.7172857466        6.7727153365  WZ3       1487            0.0000000000
     16781      5594  TIP3      H1             -0.0643903985      -20.6580357466        5.8452153365  WZ3       1487            0.0000000000
     16782      5594  TIP3      H2             -0.2780303985      -21.5087357466        7.0791253365  WZ3       1487            0.0000000000
     16783      5595  TIP3      OH2            -0.9050403985       -6.7765757466        2.9332953365  WZ3       1488            0.0000000000
     16784      5595  TIP3      H1             -1.7371803985       -6.3043057466        2.9604353365  WZ3       1488            0.0000000000
     16785      5595  TIP3      H2             -0.3592103985       -6.2668157466        2.3346053365  WZ3       1488            0.0000000000
     16786      5596  TIP3      OH2            -1.6166703985       -4.1642057466       14.2630953365  WZ3       1489            0.0000000000
     16787      5596  TIP3      H1             -1.0764503985       -4.3808057466       15.0230153365  WZ3       1489            0.0000000000
     16788      5596  TIP3      H2             -2.0978703985       -4.9696057466       14.0733453365  WZ3       1489            0.0000000000
     16789      5597  TIP3      OH2             2.9806696015       -5.2447657466       15.8835153365  WZ3       1490            0.0000000000
     16790      5597  TIP3      H1              3.7483896015       -5.7036857466       16.2244353365  WZ3       1490            0.0000000000
     16791      5597  TIP3      H2              2.9592896015       -5.4707857466       14.9536353365  WZ3       1490            0.0000000000
     16792      5598  TIP3      OH2             7.0726296015       -5.7367057466       -2.7413046635  WZ3       1491            0.0000000000
     16793      5598  TIP3      H1              6.4287296015       -6.3678457466       -2.4199346635  WZ3       1491            0.0000000000
     16794      5598  TIP3      H2              7.8344596015       -6.2679057466       -2.9729546635  WZ3       1491            0.0000000000
     16795      5599  TIP3      OH2             9.5575396015       -6.8646557466       14.6126653365  WZ3       1492            0.0000000000
     16796      5599  TIP3      H1              9.2064896015       -7.7213557466       14.8557053365  WZ3       1492            0.0000000000
     16797      5599  TIP3      H2             10.2838596015       -6.7219857466       15.2195653365  WZ3       1492            0.0000000000
     16798      5600  TIP3      OH2            11.6769196015       -5.9197157466       -2.5075046635  WZ3       1493            0.0000000000
     16799      5600  TIP3      H1             11.9599596015       -6.7141957466       -2.0548146635  WZ3       1493            0.0000000000
     16800      5600  TIP3      H2             12.4167096015       -5.6866157466       -3.0683946635  WZ3       1493            0.0000000000
     16801      5601  TIP3      OH2            -1.7097203985      -10.3537957466       15.2175253365  WZ3       1494            0.0000000000
     16802      5601  TIP3      H1             -1.5656703985      -11.2557257466       14.9311953365  WZ3       1494            0.0000000000
     16803      5601  TIP3      H2             -2.4819803985      -10.0675857466       14.7297553365  WZ3       1494            0.0000000000
     16804      5602  TIP3      OH2             2.6316496015      -10.0102257466       -2.6500146635  WZ3       1495            0.0000000000
     16805      5602  TIP3      H1              2.6960596015      -10.8042657466       -2.1193746635  WZ3       1495            0.0000000000
     16806      5602  TIP3      H2              3.2845696015      -10.1289457466       -3.3398146635  WZ3       1495            0.0000000000
     16807      5603  TIP3      OH2             4.9458896015      -10.3839857466       14.6501653365  WZ3       1496            0.0000000000
     16808      5603  TIP3      H1              4.6172696015      -10.1131757466       13.7929053365  WZ3       1496            0.0000000000
     16809      5603  TIP3      H2              5.0977096015      -11.3250057466       14.5626653365  WZ3       1496            0.0000000000
     16810      5604  TIP3      OH2             7.9839896015       -8.9630557466       -2.9142146635  WZ3       1497            0.0000000000
     16811      5604  TIP3      H1              7.7153996015       -8.7828457466       -2.0133246635  WZ3       1497            0.0000000000
     16812      5604  TIP3      H2              7.7775496015       -9.8884357466       -3.0456346635  WZ3       1497            0.0000000000
     16813      5605  TIP3      OH2            10.6804096015      -10.4682557466       12.0333953365  WZ3       1498            0.0000000000
     16814      5605  TIP3      H1             11.4258896015       -9.8798857466       11.9137953365  WZ3       1498            0.0000000000
     16815      5605  TIP3      H2              9.9230896015       -9.8862857466       12.0967053365  WZ3       1498            0.0000000000
     16816      5606  TIP3      OH2            -0.8770703985      -13.1534657466       14.6374553365  WZ3       1499            0.0000000000
     16817      5606  TIP3      H1             -0.4689503985      -14.0108057466       14.5165153365  WZ3       1499            0.0000000000
     16818      5606  TIP3      H2             -1.1373103985      -13.1393357466       15.5584853365  WZ3       1499            0.0000000000
     16819      5607  TIP3      OH2             3.7810296015      -12.0376057466       -0.3442146635  WZ3       1500            0.0000000000
     16820      5607  TIP3      H1              3.3212296015      -12.5217757466        0.3416353365  WZ3       1500            0.0000000000
     16821      5607  TIP3      H2              4.0358996015      -12.7060657466       -0.9801646635  WZ3       1500            0.0000000000
     16822      5608  TIP3      OH2             3.0699596015      -14.1448957466       12.0117453365  WZ3       1501            0.0000000000
     16823      5608  TIP3      H1              2.4515696015      -13.4702357466       12.2922153365  WZ3       1501            0.0000000000
     16824      5608  TIP3      H2              3.4140796015      -13.8235057466       11.1783653365  WZ3       1501            0.0000000000
     16825      5609  TIP3      OH2             4.8520696015      -13.7944257466       -2.0818946635  WZ3       1502            0.0000000000
     16826      5609  TIP3      H1              4.6715696015      -13.9493057466       -3.0090646635  WZ3       1502            0.0000000000
     16827      5609  TIP3      H2              5.8021196015      -13.6865557466       -2.0371046635  WZ3       1502            0.0000000000
     16828      5610  TIP3      OH2             8.0897796015      -11.6733657466       15.2892253365  WZ3       1503            0.0000000000
     16829      5610  TIP3      H1              9.0428996015      -11.5894557466       15.2618253365  WZ3       1503            0.0000000000
     16830      5610  TIP3      H2              7.9292396015      -12.3851857466       15.9087153365  WZ3       1503            0.0000000000
     16831      5611  TIP3      OH2            14.2418996015      -11.4400057466       -2.6360846635  WZ3       1504            0.0000000000
     16832      5611  TIP3      H1             13.9683796015      -11.8644557466       -3.4492546635  WZ3       1504            0.0000000000
     16833      5611  TIP3      H2             14.2813096015      -10.5085557466       -2.8530446635  WZ3       1504            0.0000000000
     16834      5612  TIP3      OH2             3.4093296015      -16.7898157466       13.0940553365  WZ3       1505            0.0000000000
     16835      5612  TIP3      H1              3.5594196015      -17.5186857466       12.4920253365  WZ3       1505            0.0000000000
     16836      5612  TIP3      H2              3.4115696015      -16.0126457466       12.5352753365  WZ3       1505            0.0000000000
     16837      5613  TIP3      OH2             3.8218996015      -18.4202357466       10.5867953365  WZ3       1506            0.0000000000
     16838      5613  TIP3      H1              4.3576496015      -17.9685657466        9.9347253365  WZ3       1506            0.0000000000
     16839      5613  TIP3      H2              2.9698596015      -18.5282557466       10.1642053365  WZ3       1506            0.0000000000
     16840      5614  TIP3      OH2             5.4037396015      -12.9806157466       10.8263153365  WZ3       1507            0.0000000000
     16841      5614  TIP3      H1              6.1542196015      -13.1368657466       10.2530953365  WZ3       1507            0.0000000000
     16842      5614  TIP3      H2              5.0645696015      -12.1289557466       10.5508653365  WZ3       1507            0.0000000000
     16843      5615  TIP3      OH2             9.8193596015      -15.1654357466       15.8548453365  WZ3       1508            0.0000000000
     16844      5615  TIP3      H1             10.0114896015      -16.0964957466       15.7432953365  WZ3       1508            0.0000000000
     16845      5615  TIP3      H2             10.6769896015      -14.7404857466       15.8443853365  WZ3       1508            0.0000000000
     16846      5616  TIP3      OH2            11.1360796015      -12.3769157466       13.9321153365  WZ3       1509            0.0000000000
     16847      5616  TIP3      H1             10.8545796015      -11.6674557466       13.3544953365  WZ3       1509            0.0000000000
     16848      5616  TIP3      H2             12.0785096015      -12.4496157466       13.7812353365  WZ3       1509            0.0000000000
     16849      5617  TIP3      OH2             1.8879596015      -15.5914657466       15.0056153365  WZ3       1510            0.0000000000
     16850      5617  TIP3      H1              1.1208596015      -16.1239857466       14.7953753365  WZ3       1510            0.0000000000
     16851      5617  TIP3      H2              2.5668596015      -15.9014257466       14.4062453365  WZ3       1510            0.0000000000
     16852      5618  TIP3      OH2             4.6274496015      -20.9636657466       11.0181553365  WZ3       1511            0.0000000000
     16853      5618  TIP3      H1              4.5294096015      -20.0173457466       10.9127753365  WZ3       1511            0.0000000000
     16854      5618  TIP3      H2              3.8850696015      -21.3362857466       10.5425053365  WZ3       1511            0.0000000000
     16855      5619  TIP3      OH2             5.8914996015      -16.6421257466       14.5819953365  WZ3       1512            0.0000000000
     16856      5619  TIP3      H1              5.6560396015      -16.8614557466       15.4834853365  WZ3       1512            0.0000000000
     16857      5619  TIP3      H2              5.1081896015      -16.8490057466       14.0722453365  WZ3       1512            0.0000000000
     16858      5620  TIP3      OH2             8.6071596015      -17.5147757466       13.6573453365  WZ3       1513            0.0000000000
     16859      5620  TIP3      H1              7.6596996015      -17.4828057466       13.7896753365  WZ3       1513            0.0000000000
     16860      5620  TIP3      H2              8.9198296015      -18.1400657466       14.3111653365  WZ3       1513            0.0000000000
     16861      5621  TIP3      OH2            10.2413096015      -18.8806657466       15.6625353365  WZ3       1514            0.0000000000
     16862      5621  TIP3      H1             10.1444896015      -19.8329357466       15.6567253365  WZ3       1514            0.0000000000
     16863      5621  TIP3      H2              9.9196196015      -18.6119857466       16.5230853365  WZ3       1514            0.0000000000
     16864      5622  TIP3      OH2             0.0682396015      -17.6710857466       14.7100853365  WZ3       1515            0.0000000000
     16865      5622  TIP3      H1              0.2799796015      -18.3774757466       14.0998353365  WZ3       1515            0.0000000000
     16866      5622  TIP3      H2             -0.0430103985      -18.1084857466       15.5542053365  WZ3       1515            0.0000000000
     16867      5623  TIP3      OH2             4.8492596015      -21.6699257466       13.6894353365  WZ3       1516            0.0000000000
     16868      5623  TIP3      H1              5.5610996015      -22.3097057466       13.6753453365  WZ3       1516            0.0000000000
     16869      5623  TIP3      H2              4.7482996015      -21.4030957466       12.7757453365  WZ3       1516            0.0000000000
     16870      5624  TIP3      OH2             5.2030096015      -19.9870857466       15.7430653365  WZ3       1517            0.0000000000
     16871      5624  TIP3      H1              5.0712296015      -20.4627057466       14.9229153365  WZ3       1517            0.0000000000
     16872      5624  TIP3      H2              4.6037496015      -19.2427257466       15.6877753365  WZ3       1517            0.0000000000
     16873      5625  TIP3      OH2             4.7492396015       -3.1040557466       -1.0805346635  WZ3       1518            0.0000000000
     16874      5625  TIP3      H1              5.6823096015       -2.9461857466       -0.9366946635  WZ3       1518            0.0000000000
     16875      5625  TIP3      H2              4.4851196015       -2.4287557466       -1.7053846635  WZ3       1518            0.0000000000
     16876      5626  TIP3      OH2            -1.6822703985       -8.4676757466       -1.5977246635  WZ3       1519            0.0000000000
     16877      5626  TIP3      H1             -0.7683503985       -8.3887857466       -1.3243346635  WZ3       1519            0.0000000000
     16878      5626  TIP3      H2             -1.6749603985       -9.1547157466       -2.2641646635  WZ3       1519            0.0000000000
     16879      5627  TIP3      OH2            -3.0332103985       -3.0748257466        3.4796653365  WZ3       1520            0.0000000000
     16880      5627  TIP3      H1             -3.6805003985       -3.5366557466        2.9467853365  WZ3       1520            0.0000000000
     16881      5627  TIP3      H2             -2.6787503985       -3.7464957466        4.0622853365  WZ3       1520            0.0000000000
     16882      5628  TIP3      OH2            -2.1632903985       -4.9941257466        5.2842853365  WZ3       1521            0.0000000000
     16883      5628  TIP3      H1             -2.4976103985       -5.8743957466        5.4563053365  WZ3       1521            0.0000000000
     16884      5628  TIP3      H2             -1.9410503985       -4.6486257466        6.1488453365  WZ3       1521            0.0000000000
     16885      5629  TIP3      OH2            15.3851896015       -4.1844857466        8.2647653365  WZ3       1522            0.0000000000
     16886      5629  TIP3      H1             15.3638596015       -3.9996457466        9.2037053365  WZ3       1522            0.0000000000
     16887      5629  TIP3      H2             16.0758096015       -3.6160857466        7.9239053365  WZ3       1522            0.0000000000
     16888      5630  TIP3      OH2            14.9484796015       -4.6173757466       11.1866753365  WZ3       1523            0.0000000000
     16889      5630  TIP3      H1             14.4613496015       -5.3529657466       10.8154153365  WZ3       1523            0.0000000000
     16890      5630  TIP3      H2             15.4977496015       -5.0109857466       11.8646153365  WZ3       1523            0.0000000000
     16891      5631  TIP3      OH2            13.3992096015       -8.8275657466       15.8247053365  WZ3       1524            0.0000000000
     16892      5631  TIP3      H1             12.5333196015       -8.9325957466       16.2189353365  WZ3       1524            0.0000000000
     16893      5631  TIP3      H2             13.7757996015       -8.0692357466       16.2711753365  WZ3       1524            0.0000000000
     16894      5632  TIP3      OH2            14.7001796015      -10.5711957466        1.3389553365  WZ3       1525            0.0000000000
     16895      5632  TIP3      H1             15.5503196015      -10.1501057466        1.4661153365  WZ3       1525            0.0000000000
     16896      5632  TIP3      H2             14.7056896015      -11.3111857466        1.9460953365  WZ3       1525            0.0000000000
     16897      5633  TIP3      OH2            15.0947396015      -12.5174557466        3.1625253365  WZ3       1526            0.0000000000
     16898      5633  TIP3      H1             14.3681996015      -12.9971957466        3.5602853365  WZ3       1526            0.0000000000
     16899      5633  TIP3      H2             15.6760696015      -12.3119857466        3.8946853365  WZ3       1526            0.0000000000
     16900      5634  TIP3      OH2            14.8538596015       -9.7327057466        8.1102853365  WZ3       1527            0.0000000000
     16901      5634  TIP3      H1             15.6872796015      -10.1107057466        7.8296453365  WZ3       1527            0.0000000000
     16902      5634  TIP3      H2             14.9658896015       -8.7895857466        7.9911953365  WZ3       1527            0.0000000000
     16903      5635  TIP3      OH2            13.3400896015       -6.8549557466       10.4171253365  WZ3       1528            0.0000000000
     16904      5635  TIP3      H1             12.6926196015       -6.5298057466       11.0426453365  WZ3       1528            0.0000000000
     16905      5635  TIP3      H2             12.8224896015       -7.2951857466        9.7429553365  WZ3       1528            0.0000000000
     16906      5636  TIP3      OH2            15.3630496015      -12.6166057466       -0.4463446635  WZ3       1529            0.0000000000
     16907      5636  TIP3      H1             14.8411596015      -12.2601957466       -1.1652546635  WZ3       1529            0.0000000000
     16908      5636  TIP3      H2             15.3299696015      -11.9418257466        0.2317453365  WZ3       1529            0.0000000000
     16909      5637  TIP3      OH2            13.7119496015      -15.3770457466       -1.8956346635  WZ3       1530            0.0000000000
     16910      5637  TIP3      H1             13.8083896015      -14.7103457466       -2.5756646635  WZ3       1530            0.0000000000
     16911      5637  TIP3      H2             13.5719096015      -16.1924157466       -2.3770846635  WZ3       1530            0.0000000000
     16912      5638  TIP3      OH2            12.8814196015      -13.9968057466        3.7253953365  WZ3       1531            0.0000000000
     16913      5638  TIP3      H1             12.7312996015      -14.9419457466        3.7051753365  WZ3       1531            0.0000000000
     16914      5638  TIP3      H2             12.5278696015      -13.7156657466        4.5693053365  WZ3       1531            0.0000000000
     16915      5639  TIP3      OH2            -2.0833403985      -11.9185857466        7.7357753365  WZ3       1532            0.0000000000
     16916      5639  TIP3      H1             -1.8990503985      -12.0004157466        6.8000653365  WZ3       1532            0.0000000000
     16917      5639  TIP3      H2             -1.2340503985      -12.0428857466        8.1594153365  WZ3       1532            0.0000000000
     16918      5640  TIP3      OH2            13.7377096015      -12.0264757466       13.3642253365  WZ3       1533            0.0000000000
     16919      5640  TIP3      H1             14.3204396015      -12.7612457466       13.5559453365  WZ3       1533            0.0000000000
     16920      5640  TIP3      H2             14.3016396015      -11.2544457466       13.4108053365  WZ3       1533            0.0000000000
     16921      5641  TIP3      OH2            15.2344196015      -14.1238957466       14.0487653365  WZ3       1534            0.0000000000
     16922      5641  TIP3      H1             14.3710896015      -14.5026857466       13.8832353365  WZ3       1534            0.0000000000
     16923      5641  TIP3      H2             15.8387896015      -14.8624157466       13.9743453365  WZ3       1534            0.0000000000
     16924      5642  TIP3      OH2            12.9593296015      -17.9690657466       -2.7780846635  WZ3       1535            0.0000000000
     16925      5642  TIP3      H1             13.5699096015      -18.3403857466       -2.1412646635  WZ3       1535            0.0000000000
     16926      5642  TIP3      H2             12.1224796015      -18.3903757466       -2.5820846635  WZ3       1535            0.0000000000
     16927      5643  TIP3      OH2            12.5918996015      -16.4142257466        2.1879053365  WZ3       1536            0.0000000000
     16928      5643  TIP3      H1             12.8716096015      -17.3211857466        2.3120753365  WZ3       1536            0.0000000000
     16929      5643  TIP3      H2             13.3510696015      -15.9800757466        1.7988253365  WZ3       1536            0.0000000000
     16930      5644  TIP3      OH2            13.2037296015      -15.8324857466        7.6237953365  WZ3       1537            0.0000000000
     16931      5644  TIP3      H1             14.1365296015      -15.6204957466        7.5893953365  WZ3       1537            0.0000000000
     16932      5644  TIP3      H2             12.9684796015      -15.7312757466        8.5460953365  WZ3       1537            0.0000000000
     16933      5645  TIP3      OH2            13.2329196015      -15.0959557466       10.3997353365  WZ3       1538            0.0000000000
     16934      5645  TIP3      H1             12.3900496015      -14.8279157466       10.7657153365  WZ3       1538            0.0000000000
     16935      5645  TIP3      H2             13.6753496015      -14.2737657466       10.1888453365  WZ3       1538            0.0000000000
     16936      5646  TIP3      OH2            -2.4858603985      -16.6480857466       13.8766553365  WZ3       1539            0.0000000000
     16937      5646  TIP3      H1             -1.5663703985      -16.7702557466       14.1129653365  WZ3       1539            0.0000000000
     16938      5646  TIP3      H2             -2.9354103985      -17.3981157466       14.2660053365  WZ3       1539            0.0000000000
     16939      5647  TIP3      OH2            15.5160796015      -21.1159357466       15.7532353365  WZ3       1540            0.0000000000
     16940      5647  TIP3      H1             15.8657796015      -21.7695857466       15.1477053365  WZ3       1540            0.0000000000
     16941      5647  TIP3      H2             15.6630296015      -20.2785257466       15.3134953365  WZ3       1540            0.0000000000
     16942      5648  TIP3      OH2            13.2053796015      -19.1512957466        2.2361053365  WZ3       1541            0.0000000000
     16943      5648  TIP3      H1             13.3878796015      -19.6001457466        3.0616053365  WZ3       1541            0.0000000000
     16944      5648  TIP3      H2             12.6056696015      -19.7358557466        1.7725653365  WZ3       1541            0.0000000000
     16945      5649  TIP3      OH2            -1.2646103985      -18.3359257466        6.7679453365  WZ3       1542            0.0000000000
     16946      5649  TIP3      H1             -0.8194503985      -19.1276757466        7.0699153365  WZ3       1542            0.0000000000
     16947      5649  TIP3      H2             -0.7983103985      -17.6194057466        7.1985053365  WZ3       1542            0.0000000000
     16948      5650  TIP3      OH2            -2.9605803985      -15.3366257466        7.8369653365  WZ3       1543            0.0000000000
     16949      5650  TIP3      H1             -2.4686003985      -15.5575757466        7.0461653365  WZ3       1543            0.0000000000
     16950      5650  TIP3      H2             -2.5984903985      -14.4962857466        8.1179153365  WZ3       1543            0.0000000000
     16951      5651  TIP3      OH2            15.0357996015      -19.0064757466       14.1023653365  WZ3       1544            0.0000000000
     16952      5651  TIP3      H1             14.1183696015      -18.7357657466       14.0667153365  WZ3       1544            0.0000000000
     16953      5651  TIP3      H2             15.1587396015      -19.5416357466       13.3183353365  WZ3       1544            0.0000000000
     16954      5652  TIP3      OH2            15.0719996015      -19.0834857466       -1.2358646635  WZ3       1545            0.0000000000
     16955      5652  TIP3      H1             15.4842596015      -19.8049157466       -1.7110646635  WZ3       1545            0.0000000000
     16956      5652  TIP3      H2             15.7536496015      -18.4140257466       -1.1774346635  WZ3       1545            0.0000000000
     16957      5653  TIP3      OH2            -2.6469303985      -19.0787157466        1.8912053365  WZ3       1546            0.0000000000
     16958      5653  TIP3      H1             -3.5720903985      -18.8700557466        1.7617553365  WZ3       1546            0.0000000000
     16959      5653  TIP3      H2             -2.1929403985      -18.5946357466        1.2014353365  WZ3       1546            0.0000000000
     16960      5654  TIP3      OH2            12.1237896015       -4.0945457466        3.8369453365  WZ3       1547            0.0000000000
     16961      5654  TIP3      H1             12.7760796015       -4.4423357466        3.2288553365  WZ3       1547            0.0000000000
     16962      5654  TIP3      H2             12.6341696015       -3.6062257466        4.4829153365  WZ3       1547            0.0000000000
     16963      5655  TIP3      OH2            -2.6833903985      -20.3408157466       10.2354553365  WZ3       1548            0.0000000000
     16964      5655  TIP3      H1             -3.3483403985      -20.5867857466       10.8785453365  WZ3       1548            0.0000000000
     16965      5655  TIP3      H2             -3.1262603985      -19.7187757466        9.6582553365  WZ3       1548            0.0000000000
     16966      5656  TIP3      OH2            -0.4914603985       -7.1654057466       14.3800353365  WZ3       1549            0.0000000000
     16967      5656  TIP3      H1             -1.3122103985       -6.9907557466       13.9195053365  WZ3       1549            0.0000000000
     16968      5656  TIP3      H2             -0.7436803985       -7.2389357466       15.3004753365  WZ3       1549            0.0000000000
     16969      5657  TIP3      OH2             2.4628296015       -6.1912857466       10.6384353365  WZ3       1550            0.0000000000
     16970      5657  TIP3      H1              2.0379396015       -5.3814357466       10.3558953365  WZ3       1550            0.0000000000
     16971      5657  TIP3      H2              3.3671096015       -6.1058757466       10.3364153365  WZ3       1550            0.0000000000
     16972      5658  TIP3      OH2             6.7739696015       -4.7922857466       13.5978053365  WZ3       1551            0.0000000000
     16973      5658  TIP3      H1              6.9587196015       -5.1256757466       14.4758353365  WZ3       1551            0.0000000000
     16974      5658  TIP3      H2              7.6204196015       -4.4824257466       13.2757253365  WZ3       1551            0.0000000000
     16975      5659  TIP3      OH2             9.1190096015       -3.5063957466       12.8419453365  WZ3       1552            0.0000000000
     16976      5659  TIP3      H1              9.7958996015       -4.1391657466       12.6018653365  WZ3       1552            0.0000000000
     16977      5659  TIP3      H2              9.4408896015       -3.1053457466       13.6492753365  WZ3       1552            0.0000000000
     16978      5660  TIP3      OH2            14.0363896015      -20.9168457466       11.9214453365  WZ3       1553            0.0000000000
     16979      5660  TIP3      H1             13.2237396015      -20.5918157466       11.5339153365  WZ3       1553            0.0000000000
     16980      5660  TIP3      H2             14.2692396015      -21.6769957466       11.3883553365  WZ3       1553            0.0000000000
     16981      5661  TIP3      OH2            -0.1355003985       -2.9348957466       10.6859653365  WZ3       1554            0.0000000000
     16982      5661  TIP3      H1             -0.8558603985       -2.4947957466       10.2347353365  WZ3       1554            0.0000000000
     16983      5661  TIP3      H2             -0.5011003985       -3.1854257466       11.5343653365  WZ3       1554            0.0000000000
     16984      5662  TIP3      OH2             2.3317596015       -3.3345057466        9.7156853365  WZ3       1555            0.0000000000
     16985      5662  TIP3      H1              1.4669796015       -3.2626557466       10.1196953365  WZ3       1555            0.0000000000
     16986      5662  TIP3      H2              2.2766596015       -2.7877757466        8.9319353365  WZ3       1555            0.0000000000
     16987      5663  TIP3      OH2             7.0423196015       -3.4466157466        8.8912853365  WZ3       1556            0.0000000000
     16988      5663  TIP3      H1              6.5857196015       -2.9176457466        8.2371253365  WZ3       1556            0.0000000000
     16989      5663  TIP3      H2              7.2051196015       -2.8434757466        9.6165153365  WZ3       1556            0.0000000000
     16990      5664  TIP3      OH2             9.3699496015       -4.5686557466        9.8363153365  WZ3       1557            0.0000000000
     16991      5664  TIP3      H1              8.4653196015       -4.4036357466        9.5705253365  WZ3       1557            0.0000000000
     16992      5664  TIP3      H2              9.7988096015       -3.7154357466        9.7706553365  WZ3       1557            0.0000000000
     16993      5665  TIP3      OH2            11.9741396015       -2.9987457466       10.1310953365  WZ3       1558            0.0000000000
     16994      5665  TIP3      H1             11.7923396015       -2.0828557466        9.9205853365  WZ3       1558            0.0000000000
     16995      5665  TIP3      H2             12.1509196015       -3.4090357466        9.2845553365  WZ3       1558            0.0000000000
     16996      5666  TIP3      OH2            -0.7206903985       -4.3116457466        7.5961453365  WZ3       1559            0.0000000000
     16997      5666  TIP3      H1             -0.7390903985       -4.7371357466        8.4533753365  WZ3       1559            0.0000000000
     16998      5666  TIP3      H2              0.0840996015       -4.6301457466        7.1873653365  WZ3       1559            0.0000000000
     16999      5667  TIP3      OH2             1.4206196015       -5.6017757466        6.2511353365  WZ3       1560            0.0000000000
     17000      5667  TIP3      H1              1.2016896015       -6.5180357466        6.4207353365  WZ3       1560            0.0000000000
     17001      5667  TIP3      H2              2.2448396015       -5.4617357466        6.7172753365  WZ3       1560            0.0000000000
     17002      5668  TIP3      OH2             3.9578696015       -5.1318457466        7.0999353365  WZ3       1561            0.0000000000
     17003      5668  TIP3      H1              4.1704396015       -6.0199457466        6.8130253365  WZ3       1561            0.0000000000
     17004      5668  TIP3      H2              4.0223796015       -5.1660757466        8.0543353365  WZ3       1561            0.0000000000
     17005      5669  TIP3      OH2             7.4662396015      -19.4677857466        6.2442653365  WZ3       1562            0.0000000000
     17006      5669  TIP3      H1              6.7919196015      -20.0972257466        6.4998453365  WZ3       1562            0.0000000000
     17007      5669  TIP3      H2              8.0301596015      -19.9518957466        5.6410553365  WZ3       1562            0.0000000000
     17008      5670  TIP3      OH2            12.6089596015      -21.3603857466        6.3569753365  WZ3       1563            0.0000000000
     17009      5670  TIP3      H1             13.2127196015      -20.8128457466        5.8550753365  WZ3       1563            0.0000000000
     17010      5670  TIP3      H2             11.7391596015      -21.0413457466        6.1163853365  WZ3       1563            0.0000000000
     17011      5671  TIP3      OH2            14.3359996015      -20.2215157466        4.6900653365  WZ3       1564            0.0000000000
     17012      5671  TIP3      H1             14.9477496015      -20.7359457466        4.1634253365  WZ3       1564            0.0000000000
     17013      5671  TIP3      H2             14.7183396015      -19.3443057466        4.7135053365  WZ3       1564            0.0000000000
     17014      5672  TIP3      OH2            -0.2070103985      -20.8337557466        4.0662553365  WZ3       1565            0.0000000000
     17015      5672  TIP3      H1             -0.9840303985      -21.0682657466        3.5588453365  WZ3       1565            0.0000000000
     17016      5672  TIP3      H2              0.3233496015      -21.6305457466        4.0750553365  WZ3       1565            0.0000000000
     17017      5673  TIP3      OH2            -1.3706703985      -21.0359457466       -0.1301346635  WZ3       1566            0.0000000000
     17018      5673  TIP3      H1             -0.9316003985      -20.4248957466       -0.7217846635  WZ3       1566            0.0000000000
     17019      5673  TIP3      H2             -2.0044303985      -20.4975357466        0.3438653365  WZ3       1566            0.0000000000
     17020      5674  TIP3      OH2             4.3722496015      -20.9070457466        3.8795653365  WZ3       1567            0.0000000000
     17021      5674  TIP3      H1              5.2465896015      -20.5186157466        3.8499953365  WZ3       1567            0.0000000000
     17022      5674  TIP3      H2              4.2363296015      -21.1222657466        4.8022853365  WZ3       1567            0.0000000000
     17023      5675  TIP3      OH2             9.9290896015      -20.8770657466        5.5287353365  WZ3       1568            0.0000000000
     17024      5675  TIP3      H1             10.0052496015      -20.7819057466        4.5793353365  WZ3       1568            0.0000000000
     17025      5675  TIP3      H2              9.6540096015      -21.7847757466        5.6576453365  WZ3       1568            0.0000000000
     17026      5676  TIP3      OH2            11.2823496015      -20.8512857466        1.2212353365  WZ3       1569            0.0000000000
     17027      5676  TIP3      H1             10.5794596015      -20.2363657466        1.0113753365  WZ3       1569            0.0000000000
     17028      5676  TIP3      H2             10.8374896015      -21.6886157466        1.3523253365  WZ3       1569            0.0000000000
     17029      5677  TIP3      OH2            -1.4697203985       -5.0877257466        0.7673753365  WZ3       1570            0.0000000000
     17030      5677  TIP3      H1             -2.1547303985       -5.1258357466        0.0998853365  WZ3       1570            0.0000000000
     17031      5677  TIP3      H2             -1.4660003985       -4.1749657466        1.0555853365  WZ3       1570            0.0000000000
     17032      5678  TIP3      OH2             0.4902396015      -19.1197957466       -1.6877246635  WZ3       1571            0.0000000000
     17033      5678  TIP3      H1              0.9815796015      -19.7495557466       -2.2151746635  WZ3       1571            0.0000000000
     17034      5678  TIP3      H2              1.1138696015      -18.8238557466       -1.0246046635  WZ3       1571            0.0000000000
     17035      5679  TIP3      OH2             5.5162496015      -18.8266457466        0.7693253365  WZ3       1572            0.0000000000
     17036      5679  TIP3      H1              5.6943796015      -19.4733257466        1.4521853365  WZ3       1572            0.0000000000
     17037      5679  TIP3      H2              5.4628696015      -17.9928757466        1.2364353365  WZ3       1572            0.0000000000
     17038      5680  TIP3      OH2             7.3946296015       -3.8782357466       -0.8350046635  WZ3       1573            0.0000000000
     17039      5680  TIP3      H1              8.2606496015       -3.5114957466       -1.0131846635  WZ3       1573            0.0000000000
     17040      5680  TIP3      H2              7.1479096015       -4.3174357466       -1.6489246635  WZ3       1573            0.0000000000
     17041      5681  TIP3      OH2            14.1035896015       -4.3152057466        1.8441053365  WZ3       1574            0.0000000000
     17042      5681  TIP3      H1             13.9092996015       -5.0629957466        1.2790653365  WZ3       1574            0.0000000000
     17043      5681  TIP3      H2             14.0645996015       -3.5571957466        1.2608953365  WZ3       1574            0.0000000000
     17044      5682  TIP3      OH2            -0.2492103985      -20.3195657466       13.5838753365  WZ3       1575            0.0000000000
     17045      5682  TIP3      H1             -0.6153903985      -21.0853057466       14.0263453365  WZ3       1575            0.0000000000
     17046      5682  TIP3      H2              0.6636396015      -20.2905457466       13.8703853365  WZ3       1575            0.0000000000
     17047      5683  TIP3      OH2             1.7238696015      -20.9691257466       15.1195853365  WZ3       1576            0.0000000000
     17048      5683  TIP3      H1              2.6222296015      -21.2431057466       14.9349253365  WZ3       1576            0.0000000000
     17049      5683  TIP3      H2              1.3371796015      -21.7115257466       15.5838453365  WZ3       1576            0.0000000000
     17050      5684  TIP3      OH2             0.3483996015       -4.1676457466       -2.2074146635  WZ3       1577            0.0000000000
     17051      5684  TIP3      H1              0.0808596015       -3.8813557466       -1.3341046635  WZ3       1577            0.0000000000
     17052      5684  TIP3      H2              1.1196596015       -4.7137257466       -2.0551646635  WZ3       1577            0.0000000000
     17053      5685  TIP3      OH2            10.1450996015      -21.6365957466       15.3018653365  WZ3       1578            0.0000000000
     17054      5685  TIP3      H1             10.2218196015      -22.0625257466       16.1556353365  WZ3       1578            0.0000000000
     17055      5685  TIP3      H2             11.0387596015      -21.6231257466       14.9592153365  WZ3       1578            0.0000000000
     17056      5686  TIP3      OH2            13.3212096015       -5.5639657466       13.9942853365  WZ3       1579            0.0000000000
     17057      5686  TIP3      H1             12.5393996015       -5.7501657466       13.4743453365  WZ3       1579            0.0000000000
     17058      5686  TIP3      H2             13.2491996015       -4.6345357466       14.2115353365  WZ3       1579            0.0000000000
     17059      5687  TIP3      OH2            27.7272496015      -11.6775257466        4.0250053365  WZ3       1580            0.0000000000
     17060      5687  TIP3      H1             27.8163596015      -10.7337057466        3.8927153365  WZ3       1580            0.0000000000
     17061      5687  TIP3      H2             27.0890096015      -11.9528857466        3.3669453365  WZ3       1580            0.0000000000
     17062      5688  TIP3      OH2            26.6603796015      -12.4224557466        7.4438253365  WZ3       1581            0.0000000000
     17063      5688  TIP3      H1             26.6221296015      -13.0688257466        8.1487853365  WZ3       1581            0.0000000000
     17064      5688  TIP3      H2             26.3380296015      -12.8890157466        6.6726953365  WZ3       1581            0.0000000000
     17065      5689  TIP3      OH2            19.0288796015      -12.8082457466        9.0368153365  WZ3       1582            0.0000000000
     17066      5689  TIP3      H1             19.0700896015      -13.4339157466        9.7600553365  WZ3       1582            0.0000000000
     17067      5689  TIP3      H2             19.7316496015      -12.1843857466        9.2188553365  WZ3       1582            0.0000000000
     17068      5690  TIP3      OH2            30.3663996015       -9.4834157466        5.7453353365  WZ3       1583            0.0000000000
     17069      5690  TIP3      H1             29.9256696015      -10.2038157466        6.1958953365  WZ3       1583            0.0000000000
     17070      5690  TIP3      H2             30.3533696015       -8.7626957466        6.3751053365  WZ3       1583            0.0000000000
     17071      5691  TIP3      OH2            19.9521896015       -8.3583557466        7.5717253365  WZ3       1584            0.0000000000
     17072      5691  TIP3      H1             19.5827096015       -9.1603057466        7.2021553365  WZ3       1584            0.0000000000
     17073      5691  TIP3      H2             20.8932996015       -8.5268657466        7.6180653365  WZ3       1584            0.0000000000
     17074      5692  TIP3      OH2            16.5622396015      -14.6980957466        2.9646053365  WZ3       1585            0.0000000000
     17075      5692  TIP3      H1             16.1145796015      -13.8522257466        2.9462553365  WZ3       1585            0.0000000000
     17076      5692  TIP3      H2             16.0013596015      -15.2776757466        2.4491153365  WZ3       1585            0.0000000000
     17077      5693  TIP3      OH2            17.2728496015      -12.5361357466        5.0904053365  WZ3       1586            0.0000000000
     17078      5693  TIP3      H1             17.4861996015      -13.3059757466        5.6177053365  WZ3       1586            0.0000000000
     17079      5693  TIP3      H2             18.0106096015      -12.4464657466        4.4871653365  WZ3       1586            0.0000000000
     17080      5694  TIP3      OH2            27.4779496015       -4.3792457466        5.9573753365  WZ3       1587            0.0000000000
     17081      5694  TIP3      H1             28.0975896015       -5.0557757466        5.6842953365  WZ3       1587            0.0000000000
     17082      5694  TIP3      H2             27.2696896015       -4.5971657466        6.8658653365  WZ3       1587            0.0000000000
     17083      5695  TIP3      OH2            25.0498196015       -9.9903157466        7.8499253365  WZ3       1588            0.0000000000
     17084      5695  TIP3      H1             25.3536096015      -10.6761757466        7.2553353365  WZ3       1588            0.0000000000
     17085      5695  TIP3      H2             25.7712196015       -9.8714457466        8.4677253365  WZ3       1588            0.0000000000
     17086      5696  TIP3      OH2            28.1905196015      -15.5960757466        8.1774053365  WZ3       1590            0.0000000000
     17087      5696  TIP3      H1             28.3331096015      -16.5423757466        8.1975653365  WZ3       1590            0.0000000000
     17088      5696  TIP3      H2             28.0844196015      -15.3890957466        7.2488953365  WZ3       1590            0.0000000000
     17089      5697  TIP3      OH2            21.3453496015      -17.4944357466        5.4498853365  WZ3       1591            0.0000000000
     17090      5697  TIP3      H1             21.3884596015      -16.6345857466        5.0315153365  WZ3       1591            0.0000000000
     17091      5697  TIP3      H2             20.8877596015      -18.0469657466        4.8162053365  WZ3       1591            0.0000000000
     17092      5698  TIP3      OH2            29.0676196015      -17.3638757466        3.8507153365  WZ3       1592            0.0000000000
     17093      5698  TIP3      H1             29.7140496015      -17.6925557466        4.4754753365  WZ3       1592            0.0000000000
     17094      5698  TIP3      H2             29.5775596015      -16.8459757466        3.2278553365  WZ3       1592            0.0000000000
     17095      5699  TIP3      OH2            17.9654996015      -15.0978557466        6.2120253365  WZ3       1593            0.0000000000
     17096      5699  TIP3      H1             18.6191596015      -15.6476857466        6.6440353365  WZ3       1593            0.0000000000
     17097      5699  TIP3      H2             17.9894296015      -15.3719557466        5.2952253365  WZ3       1593            0.0000000000
     17098      5700  TIP3      OH2            23.1219496015      -13.5477257466        5.4271753365  WZ3       1594            0.0000000000
     17099      5700  TIP3      H1             23.7380496015      -14.0741857466        5.9365753365  WZ3       1594            0.0000000000
     17100      5700  TIP3      H2             22.5358296015      -14.1878557466        5.0235353365  WZ3       1594            0.0000000000
     17101      5701  TIP3      OH2            20.1555396015      -18.5765957466        9.5239653365  WZ3       1596            0.0000000000
     17102      5701  TIP3      H1             19.9367096015      -18.0465357466        8.7575653365  WZ3       1596            0.0000000000
     17103      5701  TIP3      H2             19.4876296015      -18.3500457466       10.1711053365  WZ3       1596            0.0000000000
     17104      5702  TIP3      OH2            27.5245196015       -9.0764857466        3.0678753365  WZ3       1597            0.0000000000
     17105      5702  TIP3      H1             27.2290296015       -9.3992557466        2.2165653365  WZ3       1597            0.0000000000
     17106      5702  TIP3      H2             27.2002996015       -8.1768157466        3.1091353365  WZ3       1597            0.0000000000
     17107      5703  TIP3      OH2            22.7246796015      -10.9010257466        9.8113353365  WZ3       1598            0.0000000000
     17108      5703  TIP3      H1             21.9845896015      -10.3028757466        9.9148553365  WZ3       1598            0.0000000000
     17109      5703  TIP3      H2             23.4386296015      -10.3470657466        9.4956953365  WZ3       1598            0.0000000000
     17110      5704  TIP3      OH2            30.8314596015      -18.0729457466        5.8313053365  WZ3       1599            0.0000000000
     17111      5704  TIP3      H1             30.6162596015      -18.8386057466        6.3639053365  WZ3       1599            0.0000000000
     17112      5704  TIP3      H2             31.4871996015      -17.6004857466        6.3441553365  WZ3       1599            0.0000000000
     17113      5705  TIP3      OH2            19.7492696015      -16.6844157466        7.4761853365  WZ3       1600            0.0000000000
     17114      5705  TIP3      H1             20.3628996015      -16.0516557466        7.8494253365  WZ3       1600            0.0000000000
     17115      5705  TIP3      H2             20.2613396015      -17.1569157466        6.8198753365  WZ3       1600            0.0000000000
     17116      5706  TIP3      OH2            21.1321096015       -8.9367257466       10.5984853365  WZ3       1601            0.0000000000
     17117      5706  TIP3      H1             21.1268696015       -8.0573757466       10.2204153365  WZ3       1601            0.0000000000
     17118      5706  TIP3      H2             20.2785196015       -9.0203157466       11.0234753365  WZ3       1601            0.0000000000
     17119      5707  TIP3      OH2            17.2531996015       -9.2659357466        1.3804153365  WZ3       1602            0.0000000000
     17120      5707  TIP3      H1             16.9812896015       -9.0368357466        0.4917053365  WZ3       1602            0.0000000000
     17121      5707  TIP3      H2             17.2987696015       -8.4280557466        1.8409453365  WZ3       1602            0.0000000000
     17122      5708  TIP3      OH2            30.8781696015       -7.6443457466        8.0932653365  WZ3       1603            0.0000000000
     17123      5708  TIP3      H1             29.9365396015       -7.5859557466        8.2549553365  WZ3       1603            0.0000000000
     17124      5708  TIP3      H2             31.1547796015       -6.7382957466        7.9562353365  WZ3       1603            0.0000000000
     17125      5709  TIP3      OH2            31.1788696015      -19.3578157466        9.5106553365  WZ3       1604            0.0000000000
     17126      5709  TIP3      H1             30.4427896015      -18.7471057466        9.4727853365  WZ3       1604            0.0000000000
     17127      5709  TIP3      H2             31.8622696015      -18.9429157466        8.9842953365  WZ3       1604            0.0000000000
     17128      5710  TIP3      OH2            24.1820096015      -21.2710857466        6.9764553365  WZ3       1605            0.0000000000
     17129      5710  TIP3      H1             24.0644296015      -22.2194857466        6.9222853365  WZ3       1605            0.0000000000
     17130      5710  TIP3      H2             23.3270196015      -20.9384757466        7.2495653365  WZ3       1605            0.0000000000
     17131      5711  TIP3      OH2            29.1302896015       -5.8629957466        4.7184253365  WZ3       1606            0.0000000000
     17132      5711  TIP3      H1             29.5555196015       -6.5702057466        4.2333853365  WZ3       1606            0.0000000000
     17133      5711  TIP3      H2             29.4472896015       -5.0617257466        4.3016453365  WZ3       1606            0.0000000000
     17134      5712  TIP3      OH2            30.2899396015       -7.9621457466        3.2270853365  WZ3       1607            0.0000000000
     17135      5712  TIP3      H1             30.0324196015       -8.6521357466        2.6156753365  WZ3       1607            0.0000000000
     17136      5712  TIP3      H2             30.3610196015       -8.4050257466        4.0726753365  WZ3       1607            0.0000000000
     17137      5713  TIP3      OH2            31.9759596015       -9.3954757466       11.7044353365  WZ3       1608            0.0000000000
     17138      5713  TIP3      H1             32.1155896015       -9.9872257466       10.9651353365  WZ3       1608            0.0000000000
     17139      5713  TIP3      H2             32.1432396015       -8.5228857466       11.3483153365  WZ3       1608            0.0000000000
     17140      5714  TIP3      OH2            26.4484996015      -12.4335257466        1.4770353365  WZ3       1609            0.0000000000
     17141      5714  TIP3      H1             25.7370496015      -11.8985557466        1.1250853365  WZ3       1609            0.0000000000
     17142      5714  TIP3      H2             27.1394596015      -12.3783157466        0.8169253365  WZ3       1609            0.0000000000
     17143      5715  TIP3      OH2            26.5024196015      -13.9760957466       -1.4844646635  WZ3       1610            0.0000000000
     17144      5715  TIP3      H1             27.2034096015      -13.9534057466       -0.8330646635  WZ3       1610            0.0000000000
     17145      5715  TIP3      H2             26.8047096015      -14.6041257466       -2.1405346635  WZ3       1610            0.0000000000
     17146      5716  TIP3      OH2            33.8178896015      -13.0556757466        9.7704753365  WZ3       1611            0.0000000000
     17147      5716  TIP3      H1             33.1652996015      -12.3611157466        9.8595653365  WZ3       1611            0.0000000000
     17148      5716  TIP3      H2             34.2829196015      -12.8455857466        8.9606353365  WZ3       1611            0.0000000000
     17149      5717  TIP3      OH2            29.8542696015      -12.2241957466        2.4286253365  WZ3       1612            0.0000000000
     17150      5717  TIP3      H1             29.1223696015      -11.9958257466        3.0016853365  WZ3       1612            0.0000000000
     17151      5717  TIP3      H2             30.3014896015      -12.9379257466        2.8833753365  WZ3       1612            0.0000000000
     17152      5718  TIP3      OH2            29.7516196015      -14.0499357466       11.4963253365  WZ3       1613            0.0000000000
     17153      5718  TIP3      H1             29.8315296015      -13.2864957466       12.0681753365  WZ3       1613            0.0000000000
     17154      5718  TIP3      H2             29.1503896015      -13.7706957466       10.8058353365  WZ3       1613            0.0000000000
     17155      5719  TIP3      OH2            21.4996396015      -11.5935757466        4.3111253365  WZ3       1614            0.0000000000
     17156      5719  TIP3      H1             21.1691596015      -11.9642357466        3.4928253365  WZ3       1614            0.0000000000
     17157      5719  TIP3      H2             22.0880496015      -12.2641757466        4.6579553365  WZ3       1614            0.0000000000
     17158      5720  TIP3      OH2            22.8663896015       -8.1655157466        6.9923453365  WZ3       1615            0.0000000000
     17159      5720  TIP3      H1             22.7715196015       -8.7442057466        6.2358053365  WZ3       1615            0.0000000000
     17160      5720  TIP3      H2             23.5957496015       -8.5369457466        7.4886253365  WZ3       1615            0.0000000000
     17161      5721  TIP3      OH2            21.8661896015      -12.8250157466        7.9446253365  WZ3       1616            0.0000000000
     17162      5721  TIP3      H1             22.4314396015      -12.7035957466        7.1817453365  WZ3       1616            0.0000000000
     17163      5721  TIP3      H2             22.1850796015      -12.1875157466        8.5834753365  WZ3       1616            0.0000000000
     17164      5722  TIP3      OH2            28.1754096015       -7.3218257466        8.6786753365  WZ3       1617            0.0000000000
     17165      5722  TIP3      H1             27.9350696015       -6.6595157466        9.3265953365  WZ3       1617            0.0000000000
     17166      5722  TIP3      H2             27.9772296015       -8.1563057466        9.1036353365  WZ3       1617            0.0000000000
     17167      5723  TIP3      OH2            22.7462596015       -8.4257457466       12.6618153365  WZ3       1618            0.0000000000
     17168      5723  TIP3      H1             22.4350096015       -7.6434257466       13.1171353365  WZ3       1618            0.0000000000
     17169      5723  TIP3      H2             22.0962796015       -8.5788357466       11.9760153365  WZ3       1618            0.0000000000
     17170      5724  TIP3      OH2            28.7252196015      -13.0619057466        0.1137453365  WZ3       1619            0.0000000000
     17171      5724  TIP3      H1             29.3047696015      -12.9118757466        0.8606353365  WZ3       1619            0.0000000000
     17172      5724  TIP3      H2             29.1392196015      -12.5911657466       -0.6096146635  WZ3       1619            0.0000000000
     17173      5725  TIP3      OH2            19.6662496015      -12.2276357466       11.8903853365  WZ3       1620            0.0000000000
     17174      5725  TIP3      H1             19.7365696015      -11.5769557466       12.5888853365  WZ3       1620            0.0000000000
     17175      5725  TIP3      H2             18.7754696015      -12.1248857466       11.5554753365  WZ3       1620            0.0000000000
     17176      5726  TIP3      OH2            26.4517096015       -6.3250557466        3.5490553365  WZ3       1621            0.0000000000
     17177      5726  TIP3      H1             26.9254696015       -6.0294257466        4.3264753365  WZ3       1621            0.0000000000
     17178      5726  TIP3      H2             25.8886396015       -5.5868957466        3.3160153365  WZ3       1621            0.0000000000
     17179      5727  TIP3      OH2            20.9858496015       -6.3542457466       13.4251953365  WZ3       1622            0.0000000000
     17180      5727  TIP3      H1             20.9933796015       -6.4902757466       12.4777453365  WZ3       1622            0.0000000000
     17181      5727  TIP3      H2             20.0698896015       -6.4714357466       13.6771953365  WZ3       1622            0.0000000000
     17182      5728  TIP3      OH2            20.4899096015      -12.5241457466        1.9004053365  WZ3       1624            0.0000000000
     17183      5728  TIP3      H1             20.1980396015      -11.7559757466        1.4095353365  WZ3       1624            0.0000000000
     17184      5728  TIP3      H2             19.8154296015      -13.1835257466        1.7375453365  WZ3       1624            0.0000000000
     17185      5729  TIP3      OH2            33.6131996015       -6.9456257466       -1.6968946635  WZ3       1625            0.0000000000
     17186      5729  TIP3      H1             33.6865496015       -6.0066057466       -1.5263646635  WZ3       1625            0.0000000000
     17187      5729  TIP3      H2             34.5187096015       -7.2507657466       -1.7531646635  WZ3       1625            0.0000000000
     17188      5730  TIP3      OH2            16.5829196015      -10.1612257466       10.7153853365  WZ3       1626            0.0000000000
     17189      5730  TIP3      H1             16.0817596015      -10.1892857466        9.9003553365  WZ3       1626            0.0000000000
     17190      5730  TIP3      H2             16.5882896015      -11.0669057466       11.0251153365  WZ3       1626            0.0000000000
     17191      5731  TIP3      OH2            16.3331896015       -7.3808457466        7.5994053365  WZ3       1627            0.0000000000
     17192      5731  TIP3      H1             17.2792496015       -7.5251457466        7.5803553365  WZ3       1627            0.0000000000
     17193      5731  TIP3      H2             16.2208196015       -6.5965657466        8.1365253365  WZ3       1627            0.0000000000
     17194      5732  TIP3      OH2            34.5310396015       -6.7148757466       13.2817753365  WZ3       1628            0.0000000000
     17195      5732  TIP3      H1             34.4817196015       -7.6700657466       13.2445353365  WZ3       1628            0.0000000000
     17196      5732  TIP3      H2             33.7042696015       -6.4473457466       13.6831553365  WZ3       1628            0.0000000000
     17197      5733  TIP3      OH2            25.5094396015       -7.1409557466       12.1579153365  WZ3       1629            0.0000000000
     17198      5733  TIP3      H1             25.5968996015       -6.3144957466       12.6328253365  WZ3       1629            0.0000000000
     17199      5733  TIP3      H2             24.6459496015       -7.4705757466       12.4068453365  WZ3       1629            0.0000000000
     17200      5734  TIP3      OH2            25.9240196015       -3.3685857466        1.9639753365  WZ3       1630            0.0000000000
     17201      5734  TIP3      H1             25.8486196015       -3.4898657466        1.0174953365  WZ3       1630            0.0000000000
     17202      5734  TIP3      H2             25.9568896015       -2.4193157466        2.0824353365  WZ3       1630            0.0000000000
     17203      5735  TIP3      OH2            19.5773996015       -4.5798857466        3.7448753365  WZ3       1631            0.0000000000
     17204      5735  TIP3      H1             19.7294396015       -4.9278457466        4.6235253365  WZ3       1631            0.0000000000
     17205      5735  TIP3      H2             18.7264396015       -4.9361557466        3.4895953365  WZ3       1631            0.0000000000
     17206      5736  TIP3      OH2            29.0256196015       -4.2145657466       -1.0337846635  WZ3       1632            0.0000000000
     17207      5736  TIP3      H1             29.4004596015       -4.9589557466       -1.5045246635  WZ3       1632            0.0000000000
     17208      5736  TIP3      H2             29.0299896015       -4.4845057466       -0.1154546635  WZ3       1632            0.0000000000
     17209      5737  TIP3      OH2            28.6944296015       -4.2888557466        1.7154353365  WZ3       1633            0.0000000000
     17210      5737  TIP3      H1             27.7594096015       -4.1886657466        1.8941353365  WZ3       1633            0.0000000000
     17211      5737  TIP3      H2             28.9746196015       -4.9982557466        2.2937553365  WZ3       1633            0.0000000000
     17212      5738  TIP3      OH2            31.6830196015      -15.2216257466       13.7619953365  WZ3       1634            0.0000000000
     17213      5738  TIP3      H1             31.2756996015      -14.7410657466       13.0413253365  WZ3       1634            0.0000000000
     17214      5738  TIP3      H2             31.7235896015      -16.1270257466       13.4540753365  WZ3       1634            0.0000000000
     17215      5739  TIP3      OH2            18.8319696015       -8.8376857466       11.7586653365  WZ3       1635            0.0000000000
     17216      5739  TIP3      H1             19.0480996015       -9.1991257466       12.6182453365  WZ3       1635            0.0000000000
     17217      5739  TIP3      H2             17.9764396015       -9.2123057466       11.5490153365  WZ3       1635            0.0000000000
     17218      5740  TIP3      OH2            21.4507696015      -20.3676357466        7.7540853365  WZ3       1636            0.0000000000
     17219      5740  TIP3      H1             20.5891396015      -20.4548157466        7.3463753365  WZ3       1636            0.0000000000
     17220      5740  TIP3      H2             21.4283396015      -19.5116257466        8.1818453365  WZ3       1636            0.0000000000
     17221      5741  TIP3      OH2            26.1135496015      -20.6455957466       11.1287853365  WZ3       1637            0.0000000000
     17222      5741  TIP3      H1             26.5338596015      -21.0608857466       11.8818453365  WZ3       1637            0.0000000000
     17223      5741  TIP3      H2             25.1805096015      -20.8242657466       11.2459853365  WZ3       1637            0.0000000000
     17224      5742  TIP3      OH2            29.4400396015      -16.8900757466       11.9822353365  WZ3       1638            0.0000000000
     17225      5742  TIP3      H1             28.9259896015      -17.0158557466       12.7798353365  WZ3       1638            0.0000000000
     17226      5742  TIP3      H2             29.2845096015      -15.9777657466       11.7378553365  WZ3       1638            0.0000000000
     17227      5743  TIP3      OH2            30.2025296015      -12.0290757466       -2.2564646635  WZ3       1639            0.0000000000
     17228      5743  TIP3      H1             30.2446096015      -12.2516857466       -3.1864646635  WZ3       1639            0.0000000000
     17229      5743  TIP3      H2             31.0517396015      -11.6303657466       -2.0664746635  WZ3       1639            0.0000000000
     17230      5744  TIP3      OH2            25.7752796015      -18.1532557466       -1.5861346635  WZ3       1640            0.0000000000
     17231      5744  TIP3      H1             25.5217596015      -18.1340957466       -0.6633246635  WZ3       1640            0.0000000000
     17232      5744  TIP3      H2             25.5184896015      -19.0247157466       -1.8875146635  WZ3       1640            0.0000000000
     17233      5745  TIP3      OH2            21.5417796015      -15.4021857466        8.8491053365  WZ3       1641            0.0000000000
     17234      5745  TIP3      H1             20.8999896015      -15.4424557466        9.5581153365  WZ3       1641            0.0000000000
     17235      5745  TIP3      H2             21.5789796015      -14.4757157466        8.6114053365  WZ3       1641            0.0000000000
     17236      5746  TIP3      OH2            21.5386896015      -15.1811757466        3.7611053365  WZ3       1642            0.0000000000
     17237      5746  TIP3      H1             20.6459796015      -15.5215657466        3.7024853365  WZ3       1642            0.0000000000
     17238      5746  TIP3      H2             21.9893496015      -15.5580857466        3.0054253365  WZ3       1642            0.0000000000
     17239      5747  TIP3      OH2            27.0742396015      -14.7651457466        2.5781853365  WZ3       1643            0.0000000000
     17240      5747  TIP3      H1             26.6652696015      -13.9502857466        2.2866653365  WZ3       1643            0.0000000000
     17241      5747  TIP3      H2             27.7948596015      -14.9051357466        1.9638953365  WZ3       1643            0.0000000000
     17242      5748  TIP3      OH2            26.1763996015      -14.5895057466       14.0662553365  WZ3       1644            0.0000000000
     17243      5748  TIP3      H1             25.6137796015      -15.2943457466       14.3870353365  WZ3       1644            0.0000000000
     17244      5748  TIP3      H2             27.0027396015      -14.7103157466       14.5340153365  WZ3       1644            0.0000000000
     17245      5749  TIP3      OH2            28.0790096015      -15.3191057466        5.3921553365  WZ3       1645            0.0000000000
     17246      5749  TIP3      H1             27.8834596015      -14.7134257466        4.6772153365  WZ3       1645            0.0000000000
     17247      5749  TIP3      H2             28.2602696015      -16.1525857466        4.9577853365  WZ3       1645            0.0000000000
     17248      5750  TIP3      OH2            19.2918296015      -15.0818357466       10.7163053365  WZ3       1646            0.0000000000
     17249      5750  TIP3      H1             19.2537696015      -14.6816757466       11.5850153365  WZ3       1646            0.0000000000
     17250      5750  TIP3      H2             18.8009396015      -15.8985957466       10.8065953365  WZ3       1646            0.0000000000
     17251      5751  TIP3      OH2            22.6575696015      -17.7076057466       -2.4850946635  WZ3       1647            0.0000000000
     17252      5751  TIP3      H1             22.2266396015      -18.1525957466       -1.7553546635  WZ3       1647            0.0000000000
     17253      5751  TIP3      H2             21.9394396015      -17.3359757466       -2.9973446635  WZ3       1647            0.0000000000
     17254      5752  TIP3      OH2            15.8999096015      -17.9656557466        4.5667753365  WZ3       1648            0.0000000000
     17255      5752  TIP3      H1             16.5306796015      -17.9944457466        5.2861653365  WZ3       1648            0.0000000000
     17256      5752  TIP3      H2             16.3493396015      -18.3907857466        3.8363653365  WZ3       1648            0.0000000000
     17257      5753  TIP3      OH2            17.1741196015      -17.2194557466       -0.0091846635  WZ3       1649            0.0000000000
     17258      5753  TIP3      H1             17.6482896015      -16.6284657466       -0.5940946635  WZ3       1649            0.0000000000
     17259      5753  TIP3      H2             16.4567596015      -16.6891657466        0.3378253365  WZ3       1649            0.0000000000
     17260      5754  TIP3      OH2            27.3429296015      -13.6809757466       10.0633953365  WZ3       1650            0.0000000000
     17261      5754  TIP3      H1             27.6664096015      -14.3120057466        9.4204453365  WZ3       1650            0.0000000000
     17262      5754  TIP3      H2             26.9028596015      -14.2157557466       10.7241353365  WZ3       1650            0.0000000000
     17263      5755  TIP3      OH2            24.1202196015      -17.7534257466        4.8475153365  WZ3       1651            0.0000000000
     17264      5755  TIP3      H1             23.2093296015      -17.6967457466        5.1361153365  WZ3       1651            0.0000000000
     17265      5755  TIP3      H2             24.6255096015      -17.8138757466        5.6582353365  WZ3       1651            0.0000000000
     17266      5756  TIP3      OH2            18.9485596015      -16.1247957466        3.6742753365  WZ3       1652            0.0000000000
     17267      5756  TIP3      H1             18.0593596015      -16.0252457466        3.3342353365  WZ3       1652            0.0000000000
     17268      5756  TIP3      H2             19.2450496015      -16.9664957466        3.3280653365  WZ3       1652            0.0000000000
     17269      5757  TIP3      OH2            22.6017396015      -16.1245357466        1.3307353365  WZ3       1653            0.0000000000
     17270      5757  TIP3      H1             23.5332896015      -15.9955357466        1.5090453365  WZ3       1653            0.0000000000
     17271      5757  TIP3      H2             22.3867696015      -15.4551057466        0.6812053365  WZ3       1653            0.0000000000
     17272      5758  TIP3      OH2            28.5254096015      -18.5187957466        8.1116953365  WZ3       1654            0.0000000000
     17273      5758  TIP3      H1             27.8485696015      -18.3874857466        8.7756653365  WZ3       1654            0.0000000000
     17274      5758  TIP3      H2             28.0398996015      -18.6738457466        7.3014653365  WZ3       1654            0.0000000000
     17275      5759  TIP3      OH2            21.2757596015      -14.9303157466       -1.1026546635  WZ3       1655            0.0000000000
     17276      5759  TIP3      H1             20.7332696015      -15.3099357466       -1.7938946635  WZ3       1655            0.0000000000
     17277      5759  TIP3      H2             22.1092496015      -14.7358457466       -1.5312446635  WZ3       1655            0.0000000000
     17278      5760  TIP3      OH2            31.8129196015       -2.8472557466       14.3884553365  WZ3       1656            0.0000000000
     17279      5760  TIP3      H1             32.0127896015       -2.4230657466       13.5539853365  WZ3       1656            0.0000000000
     17280      5760  TIP3      H2             32.4682896015       -2.5034357466       14.9954953365  WZ3       1656            0.0000000000
     17281      5761  TIP3      OH2            19.4108996015      -10.3731257466       13.9965053365  WZ3       1657            0.0000000000
     17282      5761  TIP3      H1             20.1431396015      -10.1185357466       14.5579553365  WZ3       1657            0.0000000000
     17283      5761  TIP3      H2             18.6307696015      -10.1685857466       14.5120453365  WZ3       1657            0.0000000000
     17284      5762  TIP3      OH2            25.4401896015      -14.9661257466        6.7344753365  WZ3       1658            0.0000000000
     17285      5762  TIP3      H1             26.0045296015      -15.5124657466        6.1874353365  WZ3       1658            0.0000000000
     17286      5762  TIP3      H2             25.2925296015      -15.4879357466        7.5232353365  WZ3       1658            0.0000000000
     17287      5763  TIP3      OH2            20.4421596015      -18.8295157466        3.1529553365  WZ3       1659            0.0000000000
     17288      5763  TIP3      H1             20.1251096015      -19.7319857466        3.1174953365  WZ3       1659            0.0000000000
     17289      5763  TIP3      H2             21.2235696015      -18.8277757466        2.6001153365  WZ3       1659            0.0000000000
     17290      5764  TIP3      OH2            24.0667796015      -16.5775157466        9.1485153365  WZ3       1660            0.0000000000
     17291      5764  TIP3      H1             23.2313096015      -16.1235657466        9.2587553365  WZ3       1660            0.0000000000
     17292      5764  TIP3      H2             24.5908396015      -16.3016657466        9.9005053365  WZ3       1660            0.0000000000
     17293      5765  TIP3      OH2            24.6110396015      -10.3647457466        0.8331553365  WZ3       1661            0.0000000000
     17294      5765  TIP3      H1             23.8661396015      -10.8722157466        0.5109453365  WZ3       1661            0.0000000000
     17295      5765  TIP3      H2             24.4767596015      -10.3159457466        1.7796353365  WZ3       1661            0.0000000000
     17296      5766  TIP3      OH2            31.7609296015      -11.2319257466        9.6199153365  WZ3       1662            0.0000000000
     17297      5766  TIP3      H1             32.4028096015      -10.7752957466        9.0761353365  WZ3       1662            0.0000000000
     17298      5766  TIP3      H2             30.9306196015      -11.1186857466        9.1573253365  WZ3       1662            0.0000000000
     17299      5767  TIP3      OH2            28.5087196015      -17.5507557466       -0.9675846635  WZ3       1663            0.0000000000
     17300      5767  TIP3      H1             27.5701396015      -17.4391957466       -1.1187046635  WZ3       1663            0.0000000000
     17301      5767  TIP3      H2             28.8059296015      -16.6940657466       -0.6610146635  WZ3       1663            0.0000000000
     17302      5768  TIP3      OH2            26.1302496015      -10.1804157466       12.0700653365  WZ3       1664            0.0000000000
     17303      5768  TIP3      H1             25.7848596015      -10.5621757466       12.8770253365  WZ3       1664            0.0000000000
     17304      5768  TIP3      H2             25.9302596015       -9.2470557466       12.1413553365  WZ3       1664            0.0000000000
     17305      5769  TIP3      OH2            29.2270696015      -15.6834857466        0.6931553365  WZ3       1665            0.0000000000
     17306      5769  TIP3      H1             30.1189696015      -15.8209857466        1.0122753365  WZ3       1665            0.0000000000
     17307      5769  TIP3      H2             29.2834296015      -14.8928757466        0.1565053365  WZ3       1665            0.0000000000
     17308      5770  TIP3      OH2            19.7358696015      -11.0697457466        6.6029453365  WZ3       1666            0.0000000000
     17309      5770  TIP3      H1             20.4805896015      -11.0721757466        6.0015953365  WZ3       1666            0.0000000000
     17310      5770  TIP3      H2             19.8135296015      -11.8933657466        7.0844553365  WZ3       1666            0.0000000000
     17311      5771  TIP3      OH2            26.7364496015       -8.9063157466       -0.1413846635  WZ3       1667            0.0000000000
     17312      5771  TIP3      H1             26.4412896015       -8.0795257466        0.2400953365  WZ3       1667            0.0000000000
     17313      5771  TIP3      H2             26.0334496015       -9.5256257466        0.0547553365  WZ3       1667            0.0000000000
     17314      5772  TIP3      OH2            16.7438396015      -12.6090557466       11.9177953365  WZ3       1668            0.0000000000
     17315      5772  TIP3      H1             16.9666996015      -13.0270957466       12.7495453365  WZ3       1668            0.0000000000
     17316      5772  TIP3      H2             16.1418496015      -13.2215557466       11.4950753365  WZ3       1668            0.0000000000
     17317      5773  TIP3      OH2            23.7603296015      -13.0920657466       14.1307653365  WZ3       1669            0.0000000000
     17318      5773  TIP3      H1             23.4644096015      -13.2577657466       13.2356753365  WZ3       1669            0.0000000000
     17319      5773  TIP3      H2             24.6918496015      -13.3120357466       14.1201553365  WZ3       1669            0.0000000000
     17320      5774  TIP3      OH2            28.3806096015       -7.7188657466       12.0205653365  WZ3       1670            0.0000000000
     17321      5774  TIP3      H1             27.4800396015       -7.5356057466       11.7529553365  WZ3       1670            0.0000000000
     17322      5774  TIP3      H2             28.4147196015       -7.4599357466       12.9414453365  WZ3       1670            0.0000000000
     17323      5775  TIP3      OH2            34.0751396015       -9.6739057466       13.2249753365  WZ3       1672            0.0000000000
     17324      5775  TIP3      H1             33.2239896015       -9.4355257466       12.8576153365  WZ3       1672            0.0000000000
     17325      5775  TIP3      H2             34.6654796015       -9.6905857466       12.4716853365  WZ3       1672            0.0000000000
     17326      5776  TIP3      OH2            32.4071096015       -6.6880357466        0.8530353365  WZ3       1673            0.0000000000
     17327      5776  TIP3      H1             32.0342196015       -7.5136557466        1.1620953365  WZ3       1673            0.0000000000
     17328      5776  TIP3      H2             32.6844596015       -6.8710957466       -0.0446246635  WZ3       1673            0.0000000000
     17329      5777  TIP3      OH2            29.5674996015      -11.8800857466        7.8742253365  WZ3       1674            0.0000000000
     17330      5777  TIP3      H1             28.6391896015      -12.1118957466        7.8471553365  WZ3       1674            0.0000000000
     17331      5777  TIP3      H2             30.0186096015      -12.6571057466        7.5441053365  WZ3       1674            0.0000000000
     17332      5778  TIP3      OH2            22.1108096015       -7.5519257466        4.0070953365  WZ3       1675            0.0000000000
     17333      5778  TIP3      H1             22.6380296015       -6.7784857466        3.8069753365  WZ3       1675            0.0000000000
     17334      5778  TIP3      H2             21.2306596015       -7.3270057466        3.7054953365  WZ3       1675            0.0000000000
     17335      5779  TIP3      OH2            17.8655796015      -12.6895157466       -1.4056646635  WZ3       1676            0.0000000000
     17336      5779  TIP3      H1             18.4815696015      -12.0627957466       -1.0261846635  WZ3       1676            0.0000000000
     17337      5779  TIP3      H2             17.0038396015      -12.3735357466       -1.1340146635  WZ3       1676            0.0000000000
     17338      5780  TIP3      OH2            23.5380396015       -9.8889357466        3.5835253365  WZ3       1677            0.0000000000
     17339      5780  TIP3      H1             23.2970396015       -8.9634957466        3.6250553365  WZ3       1677            0.0000000000
     17340      5780  TIP3      H2             22.7973996015      -10.3478057466        3.9799153365  WZ3       1677            0.0000000000
     17341      5781  TIP3      OH2            24.0526996015       -5.7395757466        9.8986353365  WZ3       1678            0.0000000000
     17342      5781  TIP3      H1             24.4151696015       -4.8850157466        9.6650753365  WZ3       1678            0.0000000000
     17343      5781  TIP3      H2             24.5842196015       -6.0314157466       10.6392653365  WZ3       1678            0.0000000000
     17344      5782  TIP3      OH2            22.2211196015       -4.8671757466        3.1287453365  WZ3       1679            0.0000000000
     17345      5782  TIP3      H1             21.2711696015       -4.7614357466        3.1800753365  WZ3       1679            0.0000000000
     17346      5782  TIP3      H2             22.5729296015       -4.0464357466        3.4734953365  WZ3       1679            0.0000000000
     17347      5783  TIP3      OH2            27.5967796015       -9.6405057466        9.5991953365  WZ3       1680            0.0000000000
     17348      5783  TIP3      H1             27.1709096015       -9.8683357466       10.4255953365  WZ3       1680            0.0000000000
     17349      5783  TIP3      H2             28.1773596015      -10.3793257466        9.4167253365  WZ3       1680            0.0000000000
     17350      5784  TIP3      OH2            29.7996696015       -8.7114557466       -1.3269046635  WZ3       1681            0.0000000000
     17351      5784  TIP3      H1             30.1529796015       -9.0914757466       -0.5225546635  WZ3       1681            0.0000000000
     17352      5784  TIP3      H2             28.8510196015       -8.8049757466       -1.2399746635  WZ3       1681            0.0000000000
     17353      5785  TIP3      OH2            30.2551996015       -5.0885557466       12.0686753365  WZ3       1682            0.0000000000
     17354      5785  TIP3      H1             29.6535196015       -5.6442657466       11.5733053365  WZ3       1682            0.0000000000
     17355      5785  TIP3      H2             30.5365696015       -4.4215757466       11.4424153365  WZ3       1682            0.0000000000
     17356      5786  TIP3      OH2            34.3031096015       -4.2322057466       -1.1258846635  WZ3       1683            0.0000000000
     17357      5786  TIP3      H1             35.0468996015       -3.6461557466       -1.2657246635  WZ3       1683            0.0000000000
     17358      5786  TIP3      H2             33.6089196015       -3.6636257466       -0.7926446635  WZ3       1683            0.0000000000
     17359      5787  TIP3      OH2            18.3777896015      -17.8557857466       11.4759353365  WZ3       1684            0.0000000000
     17360      5787  TIP3      H1             17.4850196015      -17.5172457466       11.4083353365  WZ3       1684            0.0000000000
     17361      5787  TIP3      H2             18.2790696015      -18.7111757466       11.8940153365  WZ3       1684            0.0000000000
     17362      5788  TIP3      OH2            30.6655996015      -10.0392557466        0.8998853365  WZ3       1685            0.0000000000
     17363      5788  TIP3      H1             30.3883596015      -10.7673257466        1.4559953365  WZ3       1685            0.0000000000
     17364      5788  TIP3      H2             31.5928996015       -9.9200557466        1.1051453365  WZ3       1685            0.0000000000
     17365      5789  TIP3      OH2            18.0289896015       -6.0513457466        9.9108753365  WZ3       1686            0.0000000000
     17366      5789  TIP3      H1             18.2460196015       -6.9831057466        9.8798453365  WZ3       1686            0.0000000000
     17367      5789  TIP3      H2             18.2753396015       -5.7768457466       10.7941553365  WZ3       1686            0.0000000000
     17368      5790  TIP3      OH2            23.8904496015       -7.5998457466       -2.8799046635  WZ3       1687            0.0000000000
     17369      5790  TIP3      H1             24.1294296015       -8.3480357466       -3.4270146635  WZ3       1687            0.0000000000
     17370      5790  TIP3      H2             23.6215796015       -7.9876757466       -2.0471246635  WZ3       1687            0.0000000000
     17371      5791  TIP3      OH2            22.8275096015       -8.0294657466       -0.4236446635  WZ3       1688            0.0000000000
     17372      5791  TIP3      H1             22.9743096015       -8.5494857466        0.3664453365  WZ3       1688            0.0000000000
     17373      5791  TIP3      H2             22.8246796015       -7.1227057466       -0.1170546635  WZ3       1688            0.0000000000
     17374      5792  TIP3      OH2            19.2806196015      -10.7771357466        0.0868953365  WZ3       1689            0.0000000000
     17375      5792  TIP3      H1             18.5945496015      -10.4248857466        0.6538653365  WZ3       1689            0.0000000000
     17376      5792  TIP3      H2             19.8034096015      -10.0141757466       -0.1596746635  WZ3       1689            0.0000000000
     17377      5793  TIP3      OH2            27.1121296015      -18.1147557466       10.3657953365  WZ3       1690            0.0000000000
     17378      5793  TIP3      H1             27.8109196015      -18.0408857466       11.0157653365  WZ3       1690            0.0000000000
     17379      5793  TIP3      H2             26.7312696015      -18.9792557466       10.5200853365  WZ3       1690            0.0000000000
     17380      5794  TIP3      OH2            27.8966196015      -18.4625857466        1.4630253365  WZ3       1691            0.0000000000
     17381      5794  TIP3      H1             28.1164496015      -17.9910457466        0.6595653365  WZ3       1691            0.0000000000
     17382      5794  TIP3      H2             28.4550196015      -18.0683257466        2.1330853365  WZ3       1691            0.0000000000
     17383      5795  TIP3      OH2            25.5652296015       -6.3321057466        0.3257753365  WZ3       1692            0.0000000000
     17384      5795  TIP3      H1             24.7488396015       -5.8351357466        0.3782053365  WZ3       1692            0.0000000000
     17385      5795  TIP3      H2             26.0948596015       -5.8567557466       -0.3143446635  WZ3       1692            0.0000000000
     17386      5796  TIP3      OH2            25.0966096015      -16.7347057466        2.2978653365  WZ3       1693            0.0000000000
     17387      5796  TIP3      H1             25.9088696015      -16.2303857466        2.3440353365  WZ3       1693            0.0000000000
     17388      5796  TIP3      H2             24.8519096015      -16.8797357466        3.2118253365  WZ3       1693            0.0000000000
     17389      5797  TIP3      OH2            25.6322496015      -15.7484357466       11.4825253365  WZ3       1694            0.0000000000
     17390      5797  TIP3      H1             25.7512796015      -15.1748957466       12.2395653365  WZ3       1694            0.0000000000
     17391      5797  TIP3      H2             26.2877096015      -16.4364957466       11.5973053365  WZ3       1694            0.0000000000
     17392      5798  TIP3      OH2            25.9802796015      -19.6534057466        3.2359753365  WZ3       1695            0.0000000000
     17393      5798  TIP3      H1             25.6336296015      -19.0363457466        3.8804053365  WZ3       1695            0.0000000000
     17394      5798  TIP3      H2             26.6389696015      -19.1528357466        2.7545253365  WZ3       1695            0.0000000000
     17395      5799  TIP3      OH2            22.9035396015       -5.2883857466        0.3074653365  WZ3       1696            0.0000000000
     17396      5799  TIP3      H1             23.0644096015       -4.4886357466       -0.1932746635  WZ3       1696            0.0000000000
     17397      5799  TIP3      H2             22.7063196015       -4.9817857466        1.1925253365  WZ3       1696            0.0000000000
     17398      5800  TIP3      OH2            21.6379796015      -18.5904657466       -0.0767746635  WZ3       1697            0.0000000000
     17399      5800  TIP3      H1             21.5544596015      -17.7021557466        0.2698653365  WZ3       1697            0.0000000000
     17400      5800  TIP3      H2             22.5280096015      -18.8557957466        0.1549053365  WZ3       1697            0.0000000000
     17401      5801  TIP3      OH2            31.8368296015      -17.8414057466       12.3174953365  WZ3       1698            0.0000000000
     17402      5801  TIP3      H1             30.9204096015      -17.5792357466       12.2298653365  WZ3       1698            0.0000000000
     17403      5801  TIP3      H2             32.1723296015      -17.8445057466       11.4210253365  WZ3       1698            0.0000000000
     17404      5802  TIP3      OH2            30.4389296015      -14.0913057466        6.4132253365  WZ3       1699            0.0000000000
     17405      5802  TIP3      H1             29.6413696015      -14.5062857466        6.0847253365  WZ3       1699            0.0000000000
     17406      5802  TIP3      H2             30.8840396015      -14.7819357466        6.9042753365  WZ3       1699            0.0000000000
     17407      5803  TIP3      OH2            19.8965096015       -8.1632457466       -1.0163246635  WZ3       1700            0.0000000000
     17408      5803  TIP3      H1             20.4886596015       -7.4637657466       -0.7400846635  WZ3       1700            0.0000000000
     17409      5803  TIP3      H2             20.3558096015       -8.5962957466       -1.7358646635  WZ3       1700            0.0000000000
     17410      5804  TIP3      OH2            18.2124296015      -15.4989457466       -1.9003846635  WZ3       1701            0.0000000000
     17411      5804  TIP3      H1             18.1676896015      -14.5596357466       -1.7216846635  WZ3       1701            0.0000000000
     17412      5804  TIP3      H2             17.3247496015      -15.7344557466       -2.1701746635  WZ3       1701            0.0000000000
     17413      5805  TIP3      OH2            31.5253896015       -4.8350557466        8.0355753365  WZ3       1702            0.0000000000
     17414      5805  TIP3      H1             31.3698196015       -4.1566157466        7.3785053365  WZ3       1702            0.0000000000
     17415      5805  TIP3      H2             32.4580296015       -4.7631257466        8.2386353365  WZ3       1702            0.0000000000
     17416      5806  TIP3      OH2            19.0206296015      -20.7172857466        6.7727153365  WZ3       1703            0.0000000000
     17417      5806  TIP3      H1             18.7916096015      -20.6580357466        5.8452153365  WZ3       1703            0.0000000000
     17418      5806  TIP3      H2             18.5779696015      -21.5087357466        7.0791253365  WZ3       1703            0.0000000000
     17419      5807  TIP3      OH2            17.9509596015       -6.7765757466        2.9332953365  WZ3       1704            0.0000000000
     17420      5807  TIP3      H1             17.1188196015       -6.3043057466        2.9604353365  WZ3       1704            0.0000000000
     17421      5807  TIP3      H2             18.4967896015       -6.2668157466        2.3346053365  WZ3       1704            0.0000000000
     17422      5808  TIP3      OH2            17.2393296015       -4.1642057466       14.2630953365  WZ3       1705            0.0000000000
     17423      5808  TIP3      H1             17.7795496015       -4.3808057466       15.0230153365  WZ3       1705            0.0000000000
     17424      5808  TIP3      H2             16.7581296015       -4.9696057466       14.0733453365  WZ3       1705            0.0000000000
     17425      5809  TIP3      OH2            21.8366696015       -5.2447657466       15.8835153365  WZ3       1706            0.0000000000
     17426      5809  TIP3      H1             22.6043896015       -5.7036857466       16.2244353365  WZ3       1706            0.0000000000
     17427      5809  TIP3      H2             21.8152896015       -5.4707857466       14.9536353365  WZ3       1706            0.0000000000
     17428      5810  TIP3      OH2            25.9286296015       -5.7367057466       -2.7413046635  WZ3       1707            0.0000000000
     17429      5810  TIP3      H1             25.2847296015       -6.3678457466       -2.4199346635  WZ3       1707            0.0000000000
     17430      5810  TIP3      H2             26.6904596015       -6.2679057466       -2.9729546635  WZ3       1707            0.0000000000
     17431      5811  TIP3      OH2            28.4135396015       -6.8646557466       14.6126653365  WZ3       1708            0.0000000000
     17432      5811  TIP3      H1             28.0624896015       -7.7213557466       14.8557053365  WZ3       1708            0.0000000000
     17433      5811  TIP3      H2             29.1398596015       -6.7219857466       15.2195653365  WZ3       1708            0.0000000000
     17434      5812  TIP3      OH2            30.5329196015       -5.9197157466       -2.5075046635  WZ3       1709            0.0000000000
     17435      5812  TIP3      H1             30.8159596015       -6.7141957466       -2.0548146635  WZ3       1709            0.0000000000
     17436      5812  TIP3      H2             31.2727096015       -5.6866157466       -3.0683946635  WZ3       1709            0.0000000000
     17437      5813  TIP3      OH2            17.1462796015      -10.3537957466       15.2175253365  WZ3       1710            0.0000000000
     17438      5813  TIP3      H1             17.2903296015      -11.2557257466       14.9311953365  WZ3       1710            0.0000000000
     17439      5813  TIP3      H2             16.3740196015      -10.0675857466       14.7297553365  WZ3       1710            0.0000000000
     17440      5814  TIP3      OH2            21.4876496015      -10.0102257466       -2.6500146635  WZ3       1711            0.0000000000
     17441      5814  TIP3      H1             21.5520596015      -10.8042657466       -2.1193746635  WZ3       1711            0.0000000000
     17442      5814  TIP3      H2             22.1405696015      -10.1289457466       -3.3398146635  WZ3       1711            0.0000000000
     17443      5815  TIP3      OH2            23.8018896015      -10.3839857466       14.6501653365  WZ3       1712            0.0000000000
     17444      5815  TIP3      H1             23.4732696015      -10.1131757466       13.7929053365  WZ3       1712            0.0000000000
     17445      5815  TIP3      H2             23.9537096015      -11.3250057466       14.5626653365  WZ3       1712            0.0000000000
     17446      5816  TIP3      OH2            26.8399896015       -8.9630557466       -2.9142146635  WZ3       1713            0.0000000000
     17447      5816  TIP3      H1             26.5713996015       -8.7828457466       -2.0133246635  WZ3       1713            0.0000000000
     17448      5816  TIP3      H2             26.6335496015       -9.8884357466       -3.0456346635  WZ3       1713            0.0000000000
     17449      5817  TIP3      OH2            29.5364096015      -10.4682557466       12.0333953365  WZ3       1714            0.0000000000
     17450      5817  TIP3      H1             30.2818896015       -9.8798857466       11.9137953365  WZ3       1714            0.0000000000
     17451      5817  TIP3      H2             28.7790896015       -9.8862857466       12.0967053365  WZ3       1714            0.0000000000
     17452      5818  TIP3      OH2            17.9789296015      -13.1534657466       14.6374553365  WZ3       1715            0.0000000000
     17453      5818  TIP3      H1             18.3870496015      -14.0108057466       14.5165153365  WZ3       1715            0.0000000000
     17454      5818  TIP3      H2             17.7186896015      -13.1393357466       15.5584853365  WZ3       1715            0.0000000000
     17455      5819  TIP3      OH2            22.6370296015      -12.0376057466       -0.3442146635  WZ3       1716            0.0000000000
     17456      5819  TIP3      H1             22.1772296015      -12.5217757466        0.3416353365  WZ3       1716            0.0000000000
     17457      5819  TIP3      H2             22.8918996015      -12.7060657466       -0.9801646635  WZ3       1716            0.0000000000
     17458      5820  TIP3      OH2            21.9259596015      -14.1448957466       12.0117453365  WZ3       1717            0.0000000000
     17459      5820  TIP3      H1             21.3075696015      -13.4702357466       12.2922153365  WZ3       1717            0.0000000000
     17460      5820  TIP3      H2             22.2700796015      -13.8235057466       11.1783653365  WZ3       1717            0.0000000000
     17461      5821  TIP3      OH2            23.7080696015      -13.7944257466       -2.0818946635  WZ3       1718            0.0000000000
     17462      5821  TIP3      H1             23.5275696015      -13.9493057466       -3.0090646635  WZ3       1718            0.0000000000
     17463      5821  TIP3      H2             24.6581196015      -13.6865557466       -2.0371046635  WZ3       1718            0.0000000000
     17464      5822  TIP3      OH2            26.9457796015      -11.6733657466       15.2892253365  WZ3       1719            0.0000000000
     17465      5822  TIP3      H1             27.8988996015      -11.5894557466       15.2618253365  WZ3       1719            0.0000000000
     17466      5822  TIP3      H2             26.7852396015      -12.3851857466       15.9087153365  WZ3       1719            0.0000000000
     17467      5823  TIP3      OH2            33.0978996015      -11.4400057466       -2.6360846635  WZ3       1720            0.0000000000
     17468      5823  TIP3      H1             32.8243796015      -11.8644557466       -3.4492546635  WZ3       1720            0.0000000000
     17469      5823  TIP3      H2             33.1373096015      -10.5085557466       -2.8530446635  WZ3       1720            0.0000000000
     17470      5824  TIP3      OH2            22.2653296015      -16.7898157466       13.0940553365  WZ3       1721            0.0000000000
     17471      5824  TIP3      H1             22.4154196015      -17.5186857466       12.4920253365  WZ3       1721            0.0000000000
     17472      5824  TIP3      H2             22.2675696015      -16.0126457466       12.5352753365  WZ3       1721            0.0000000000
     17473      5825  TIP3      OH2            22.6778996015      -18.4202357466       10.5867953365  WZ3       1722            0.0000000000
     17474      5825  TIP3      H1             23.2136496015      -17.9685657466        9.9347253365  WZ3       1722            0.0000000000
     17475      5825  TIP3      H2             21.8258596015      -18.5282557466       10.1642053365  WZ3       1722            0.0000000000
     17476      5826  TIP3      OH2            24.2597396015      -12.9806157466       10.8263153365  WZ3       1723            0.0000000000
     17477      5826  TIP3      H1             25.0102196015      -13.1368657466       10.2530953365  WZ3       1723            0.0000000000
     17478      5826  TIP3      H2             23.9205696015      -12.1289557466       10.5508653365  WZ3       1723            0.0000000000
     17479      5827  TIP3      OH2            28.6753596015      -15.1654357466       15.8548453365  WZ3       1724            0.0000000000
     17480      5827  TIP3      H1             28.8674896015      -16.0964957466       15.7432953365  WZ3       1724            0.0000000000
     17481      5827  TIP3      H2             29.5329896015      -14.7404857466       15.8443853365  WZ3       1724            0.0000000000
     17482      5828  TIP3      OH2            29.9920796015      -12.3769157466       13.9321153365  WZ3       1725            0.0000000000
     17483      5828  TIP3      H1             29.7105796015      -11.6674557466       13.3544953365  WZ3       1725            0.0000000000
     17484      5828  TIP3      H2             30.9345096015      -12.4496157466       13.7812353365  WZ3       1725            0.0000000000
     17485      5829  TIP3      OH2            20.7439596015      -15.5914657466       15.0056153365  WZ3       1726            0.0000000000
     17486      5829  TIP3      H1             19.9768596015      -16.1239857466       14.7953753365  WZ3       1726            0.0000000000
     17487      5829  TIP3      H2             21.4228596015      -15.9014257466       14.4062453365  WZ3       1726            0.0000000000
     17488      5830  TIP3      OH2            23.4834496015      -20.9636657466       11.0181553365  WZ3       1727            0.0000000000
     17489      5830  TIP3      H1             23.3854096015      -20.0173457466       10.9127753365  WZ3       1727            0.0000000000
     17490      5830  TIP3      H2             22.7410696015      -21.3362857466       10.5425053365  WZ3       1727            0.0000000000
     17491      5831  TIP3      OH2            24.7474996015      -16.6421257466       14.5819953365  WZ3       1728            0.0000000000
     17492      5831  TIP3      H1             24.5120396015      -16.8614557466       15.4834853365  WZ3       1728            0.0000000000
     17493      5831  TIP3      H2             23.9641896015      -16.8490057466       14.0722453365  WZ3       1728            0.0000000000
     17494      5832  TIP3      OH2            27.4631596015      -17.5147757466       13.6573453365  WZ3       1729            0.0000000000
     17495      5832  TIP3      H1             26.5156996015      -17.4828057466       13.7896753365  WZ3       1729            0.0000000000
     17496      5832  TIP3      H2             27.7758296015      -18.1400657466       14.3111653365  WZ3       1729            0.0000000000
     17497      5833  TIP3      OH2            29.0973096015      -18.8806657466       15.6625353365  WZ3       1730            0.0000000000
     17498      5833  TIP3      H1             29.0004896015      -19.8329357466       15.6567253365  WZ3       1730            0.0000000000
     17499      5833  TIP3      H2             28.7756196015      -18.6119857466       16.5230853365  WZ3       1730            0.0000000000
     17500      5834  TIP3      OH2            18.9242396015      -17.6710857466       14.7100853365  WZ3       1731            0.0000000000
     17501      5834  TIP3      H1             19.1359796015      -18.3774757466       14.0998353365  WZ3       1731            0.0000000000
     17502      5834  TIP3      H2             18.8129896015      -18.1084857466       15.5542053365  WZ3       1731            0.0000000000
     17503      5835  TIP3      OH2            23.7052596015      -21.6699257466       13.6894353365  WZ3       1732            0.0000000000
     17504      5835  TIP3      H1             24.4170996015      -22.3097057466       13.6753453365  WZ3       1732            0.0000000000
     17505      5835  TIP3      H2             23.6042996015      -21.4030957466       12.7757453365  WZ3       1732            0.0000000000
     17506      5836  TIP3      OH2            24.0590096015      -19.9870857466       15.7430653365  WZ3       1733            0.0000000000
     17507      5836  TIP3      H1             23.9272296015      -20.4627057466       14.9229153365  WZ3       1733            0.0000000000
     17508      5836  TIP3      H2             23.4597496015      -19.2427257466       15.6877753365  WZ3       1733            0.0000000000
     17509      5837  TIP3      OH2            23.6052396015       -3.1040557466       -1.0805346635  WZ3       1734            0.0000000000
     17510      5837  TIP3      H1             24.5383096015       -2.9461857466       -0.9366946635  WZ3       1734            0.0000000000
     17511      5837  TIP3      H2             23.3411196015       -2.4287557466       -1.7053846635  WZ3       1734            0.0000000000
     17512      5838  TIP3      OH2            17.1737296015       -8.4676757466       -1.5977246635  WZ3       1735            0.0000000000
     17513      5838  TIP3      H1             18.0876496015       -8.3887857466       -1.3243346635  WZ3       1735            0.0000000000
     17514      5838  TIP3      H2             17.1810396015       -9.1547157466       -2.2641646635  WZ3       1735            0.0000000000
     17515      5839  TIP3      OH2            15.8227896015       -3.0748257466        3.4796653365  WZ3       1736            0.0000000000
     17516      5839  TIP3      H1             15.1754996015       -3.5366557466        2.9467853365  WZ3       1736            0.0000000000
     17517      5839  TIP3      H2             16.1772496015       -3.7464957466        4.0622853365  WZ3       1736            0.0000000000
     17518      5840  TIP3      OH2            16.6927096015       -4.9941257466        5.2842853365  WZ3       1737            0.0000000000
     17519      5840  TIP3      H1             16.3583896015       -5.8743957466        5.4563053365  WZ3       1737            0.0000000000
     17520      5840  TIP3      H2             16.9149496015       -4.6486257466        6.1488453365  WZ3       1737            0.0000000000
     17521      5841  TIP3      OH2            34.2411896015       -4.1844857466        8.2647653365  WZ3       1738            0.0000000000
     17522      5841  TIP3      H1             34.2198596015       -3.9996457466        9.2037053365  WZ3       1738            0.0000000000
     17523      5841  TIP3      H2             34.9318096015       -3.6160857466        7.9239053365  WZ3       1738            0.0000000000
     17524      5842  TIP3      OH2            33.8044796015       -4.6173757466       11.1866753365  WZ3       1739            0.0000000000
     17525      5842  TIP3      H1             33.3173496015       -5.3529657466       10.8154153365  WZ3       1739            0.0000000000
     17526      5842  TIP3      H2             34.3537496015       -5.0109857466       11.8646153365  WZ3       1739            0.0000000000
     17527      5843  TIP3      OH2            32.2552096015       -8.8275657466       15.8247053365  WZ3       1740            0.0000000000
     17528      5843  TIP3      H1             31.3893196015       -8.9325957466       16.2189353365  WZ3       1740            0.0000000000
     17529      5843  TIP3      H2             32.6317996015       -8.0692357466       16.2711753365  WZ3       1740            0.0000000000
     17530      5844  TIP3      OH2            33.5561796015      -10.5711957466        1.3389553365  WZ3       1741            0.0000000000
     17531      5844  TIP3      H1             34.4063196015      -10.1501057466        1.4661153365  WZ3       1741            0.0000000000
     17532      5844  TIP3      H2             33.5616896015      -11.3111857466        1.9460953365  WZ3       1741            0.0000000000
     17533      5845  TIP3      OH2            33.9507396015      -12.5174557466        3.1625253365  WZ3       1742            0.0000000000
     17534      5845  TIP3      H1             33.2241996015      -12.9971957466        3.5602853365  WZ3       1742            0.0000000000
     17535      5845  TIP3      H2             34.5320696015      -12.3119857466        3.8946853365  WZ3       1742            0.0000000000
     17536      5846  TIP3      OH2            33.7098596015       -9.7327057466        8.1102853365  WZ3       1743            0.0000000000
     17537      5846  TIP3      H1             34.5432796015      -10.1107057466        7.8296453365  WZ3       1743            0.0000000000
     17538      5846  TIP3      H2             33.8218896015       -8.7895857466        7.9911953365  WZ3       1743            0.0000000000
     17539      5847  TIP3      OH2            32.1960896015       -6.8549557466       10.4171253365  WZ3       1744            0.0000000000
     17540      5847  TIP3      H1             31.5486196015       -6.5298057466       11.0426453365  WZ3       1744            0.0000000000
     17541      5847  TIP3      H2             31.6784896015       -7.2951857466        9.7429553365  WZ3       1744            0.0000000000
     17542      5848  TIP3      OH2            34.2190496015      -12.6166057466       -0.4463446635  WZ3       1745            0.0000000000
     17543      5848  TIP3      H1             33.6971596015      -12.2601957466       -1.1652546635  WZ3       1745            0.0000000000
     17544      5848  TIP3      H2             34.1859696015      -11.9418257466        0.2317453365  WZ3       1745            0.0000000000
     17545      5849  TIP3      OH2            32.5679496015      -15.3770457466       -1.8956346635  WZ3       1746            0.0000000000
     17546      5849  TIP3      H1             32.6643896015      -14.7103457466       -2.5756646635  WZ3       1746            0.0000000000
     17547      5849  TIP3      H2             32.4279096015      -16.1924157466       -2.3770846635  WZ3       1746            0.0000000000
     17548      5850  TIP3      OH2            31.7374196015      -13.9968057466        3.7253953365  WZ3       1747            0.0000000000
     17549      5850  TIP3      H1             31.5872996015      -14.9419457466        3.7051753365  WZ3       1747            0.0000000000
     17550      5850  TIP3      H2             31.3838696015      -13.7156657466        4.5693053365  WZ3       1747            0.0000000000
     17551      5851  TIP3      OH2            16.7726596015      -11.9185857466        7.7357753365  WZ3       1748            0.0000000000
     17552      5851  TIP3      H1             16.9569496015      -12.0004157466        6.8000653365  WZ3       1748            0.0000000000
     17553      5851  TIP3      H2             17.6219496015      -12.0428857466        8.1594153365  WZ3       1748            0.0000000000
     17554      5852  TIP3      OH2            32.5937096015      -12.0264757466       13.3642253365  WZ3       1749            0.0000000000
     17555      5852  TIP3      H1             33.1764396015      -12.7612457466       13.5559453365  WZ3       1749            0.0000000000
     17556      5852  TIP3      H2             33.1576396015      -11.2544457466       13.4108053365  WZ3       1749            0.0000000000
     17557      5853  TIP3      OH2            34.0904196015      -14.1238957466       14.0487653365  WZ3       1750            0.0000000000
     17558      5853  TIP3      H1             33.2270896015      -14.5026857466       13.8832353365  WZ3       1750            0.0000000000
     17559      5853  TIP3      H2             34.6947896015      -14.8624157466       13.9743453365  WZ3       1750            0.0000000000
     17560      5854  TIP3      OH2            31.8153296015      -17.9690657466       -2.7780846635  WZ3       1751            0.0000000000
     17561      5854  TIP3      H1             32.4259096015      -18.3403857466       -2.1412646635  WZ3       1751            0.0000000000
     17562      5854  TIP3      H2             30.9784796015      -18.3903757466       -2.5820846635  WZ3       1751            0.0000000000
     17563      5855  TIP3      OH2            31.4478996015      -16.4142257466        2.1879053365  WZ3       1752            0.0000000000
     17564      5855  TIP3      H1             31.7276096015      -17.3211857466        2.3120753365  WZ3       1752            0.0000000000
     17565      5855  TIP3      H2             32.2070696015      -15.9800757466        1.7988253365  WZ3       1752            0.0000000000
     17566      5856  TIP3      OH2            32.0597296015      -15.8324857466        7.6237953365  WZ3       1753            0.0000000000
     17567      5856  TIP3      H1             32.9925296015      -15.6204957466        7.5893953365  WZ3       1753            0.0000000000
     17568      5856  TIP3      H2             31.8244796015      -15.7312757466        8.5460953365  WZ3       1753            0.0000000000
     17569      5857  TIP3      OH2            32.0889196015      -15.0959557466       10.3997353365  WZ3       1754            0.0000000000
     17570      5857  TIP3      H1             31.2460496015      -14.8279157466       10.7657153365  WZ3       1754            0.0000000000
     17571      5857  TIP3      H2             32.5313496015      -14.2737657466       10.1888453365  WZ3       1754            0.0000000000
     17572      5858  TIP3      OH2            16.3701396015      -16.6480857466       13.8766553365  WZ3       1755            0.0000000000
     17573      5858  TIP3      H1             17.2896296015      -16.7702557466       14.1129653365  WZ3       1755            0.0000000000
     17574      5858  TIP3      H2             15.9205896015      -17.3981157466       14.2660053365  WZ3       1755            0.0000000000
     17575      5859  TIP3      OH2            32.0613796015      -19.1512957466        2.2361053365  WZ3       1757            0.0000000000
     17576      5859  TIP3      H1             32.2438796015      -19.6001457466        3.0616053365  WZ3       1757            0.0000000000
     17577      5859  TIP3      H2             31.4616696015      -19.7358557466        1.7725653365  WZ3       1757            0.0000000000
     17578      5860  TIP3      OH2            17.5913896015      -18.3359257466        6.7679453365  WZ3       1758            0.0000000000
     17579      5860  TIP3      H1             18.0365496015      -19.1276757466        7.0699153365  WZ3       1758            0.0000000000
     17580      5860  TIP3      H2             18.0576896015      -17.6194057466        7.1985053365  WZ3       1758            0.0000000000
     17581      5861  TIP3      OH2            15.8954196015      -15.3366257466        7.8369653365  WZ3       1759            0.0000000000
     17582      5861  TIP3      H1             16.3873996015      -15.5575757466        7.0461653365  WZ3       1759            0.0000000000
     17583      5861  TIP3      H2             16.2575096015      -14.4962857466        8.1179153365  WZ3       1759            0.0000000000
     17584      5862  TIP3      OH2            16.2090696015      -19.0787157466        1.8912053365  WZ3       1762            0.0000000000
     17585      5862  TIP3      H1             15.2839096015      -18.8700557466        1.7617553365  WZ3       1762            0.0000000000
     17586      5862  TIP3      H2             16.6630596015      -18.5946357466        1.2014353365  WZ3       1762            0.0000000000
     17587      5863  TIP3      OH2            30.9797896015       -4.0945457466        3.8369453365  WZ3       1763            0.0000000000
     17588      5863  TIP3      H1             31.6320796015       -4.4423357466        3.2288553365  WZ3       1763            0.0000000000
     17589      5863  TIP3      H2             31.4901696015       -3.6062257466        4.4829153365  WZ3       1763            0.0000000000
     17590      5864  TIP3      OH2            16.1726096015      -20.3408157466       10.2354553365  WZ3       1764            0.0000000000
     17591      5864  TIP3      H1             15.5076596015      -20.5867857466       10.8785453365  WZ3       1764            0.0000000000
     17592      5864  TIP3      H2             15.7297396015      -19.7187757466        9.6582553365  WZ3       1764            0.0000000000
     17593      5865  TIP3      OH2            18.3645396015       -7.1654057466       14.3800353365  WZ3       1765            0.0000000000
     17594      5865  TIP3      H1             17.5437896015       -6.9907557466       13.9195053365  WZ3       1765            0.0000000000
     17595      5865  TIP3      H2             18.1123196015       -7.2389357466       15.3004753365  WZ3       1765            0.0000000000
     17596      5866  TIP3      OH2            21.3188296015       -6.1912857466       10.6384353365  WZ3       1766            0.0000000000
     17597      5866  TIP3      H1             20.8939396015       -5.3814357466       10.3558953365  WZ3       1766            0.0000000000
     17598      5866  TIP3      H2             22.2231096015       -6.1058757466       10.3364153365  WZ3       1766            0.0000000000
     17599      5867  TIP3      OH2            25.6299696015       -4.7922857466       13.5978053365  WZ3       1767            0.0000000000
     17600      5867  TIP3      H1             25.8147196015       -5.1256757466       14.4758353365  WZ3       1767            0.0000000000
     17601      5867  TIP3      H2             26.4764196015       -4.4824257466       13.2757253365  WZ3       1767            0.0000000000
     17602      5868  TIP3      OH2            27.9750096015       -3.5063957466       12.8419453365  WZ3       1768            0.0000000000
     17603      5868  TIP3      H1             28.6518996015       -4.1391657466       12.6018653365  WZ3       1768            0.0000000000
     17604      5868  TIP3      H2             28.2968896015       -3.1053457466       13.6492753365  WZ3       1768            0.0000000000
     17605      5869  TIP3      OH2            18.7204996015       -2.9348957466       10.6859653365  WZ3       1770            0.0000000000
     17606      5869  TIP3      H1             18.0001396015       -2.4947957466       10.2347353365  WZ3       1770            0.0000000000
     17607      5869  TIP3      H2             18.3548996015       -3.1854257466       11.5343653365  WZ3       1770            0.0000000000
     17608      5870  TIP3      OH2            21.1877596015       -3.3345057466        9.7156853365  WZ3       1771            0.0000000000
     17609      5870  TIP3      H1             20.3229796015       -3.2626557466       10.1196953365  WZ3       1771            0.0000000000
     17610      5870  TIP3      H2             21.1326596015       -2.7877757466        8.9319353365  WZ3       1771            0.0000000000
     17611      5871  TIP3      OH2            25.8983196015       -3.4466157466        8.8912853365  WZ3       1772            0.0000000000
     17612      5871  TIP3      H1             25.4417196015       -2.9176457466        8.2371253365  WZ3       1772            0.0000000000
     17613      5871  TIP3      H2             26.0611196015       -2.8434757466        9.6165153365  WZ3       1772            0.0000000000
     17614      5872  TIP3      OH2            28.2259496015       -4.5686557466        9.8363153365  WZ3       1773            0.0000000000
     17615      5872  TIP3      H1             27.3213196015       -4.4036357466        9.5705253365  WZ3       1773            0.0000000000
     17616      5872  TIP3      H2             28.6548096015       -3.7154357466        9.7706553365  WZ3       1773            0.0000000000
     17617      5873  TIP3      OH2            30.8301396015       -2.9987457466       10.1310953365  WZ3       1774            0.0000000000
     17618      5873  TIP3      H1             30.6483396015       -2.0828557466        9.9205853365  WZ3       1774            0.0000000000
     17619      5873  TIP3      H2             31.0069196015       -3.4090357466        9.2845553365  WZ3       1774            0.0000000000
     17620      5874  TIP3      OH2            18.1353096015       -4.3116457466        7.5961453365  WZ3       1775            0.0000000000
     17621      5874  TIP3      H1             18.1169096015       -4.7371357466        8.4533753365  WZ3       1775            0.0000000000
     17622      5874  TIP3      H2             18.9400996015       -4.6301457466        7.1873653365  WZ3       1775            0.0000000000
     17623      5875  TIP3      OH2            20.2766196015       -5.6017757466        6.2511353365  WZ3       1776            0.0000000000
     17624      5875  TIP3      H1             20.0576896015       -6.5180357466        6.4207353365  WZ3       1776            0.0000000000
     17625      5875  TIP3      H2             21.1008396015       -5.4617357466        6.7172753365  WZ3       1776            0.0000000000
     17626      5876  TIP3      OH2            22.8138696015       -5.1318457466        7.0999353365  WZ3       1777            0.0000000000
     17627      5876  TIP3      H1             23.0264396015       -6.0199457466        6.8130253365  WZ3       1777            0.0000000000
     17628      5876  TIP3      H2             22.8783796015       -5.1660757466        8.0543353365  WZ3       1777            0.0000000000
     17629      5877  TIP3      OH2            26.3222396015      -19.4677857466        6.2442653365  WZ3       1778            0.0000000000
     17630      5877  TIP3      H1             25.6479196015      -20.0972257466        6.4998453365  WZ3       1778            0.0000000000
     17631      5877  TIP3      H2             26.8861596015      -19.9518957466        5.6410553365  WZ3       1778            0.0000000000
     17632      5878  TIP3      OH2            31.4649596015      -21.3603857466        6.3569753365  WZ3       1779            0.0000000000
     17633      5878  TIP3      H1             32.0687196015      -20.8128457466        5.8550753365  WZ3       1779            0.0000000000
     17634      5878  TIP3      H2             30.5951596015      -21.0413457466        6.1163853365  WZ3       1779            0.0000000000
     17635      5879  TIP3      OH2            18.6489896015      -20.8337557466        4.0662553365  WZ3       1781            0.0000000000
     17636      5879  TIP3      H1             17.8719696015      -21.0682657466        3.5588453365  WZ3       1781            0.0000000000
     17637      5879  TIP3      H2             19.1793496015      -21.6305457466        4.0750553365  WZ3       1781            0.0000000000
     17638      5880  TIP3      OH2            17.4853296015      -21.0359457466       -0.1301346635  WZ3       1782            0.0000000000
     17639      5880  TIP3      H1             17.9243996015      -20.4248957466       -0.7217846635  WZ3       1782            0.0000000000
     17640      5880  TIP3      H2             16.8515696015      -20.4975357466        0.3438653365  WZ3       1782            0.0000000000
     17641      5881  TIP3      OH2            23.2282496015      -20.9070457466        3.8795653365  WZ3       1783            0.0000000000
     17642      5881  TIP3      H1             24.1025896015      -20.5186157466        3.8499953365  WZ3       1783            0.0000000000
     17643      5881  TIP3      H2             23.0923296015      -21.1222657466        4.8022853365  WZ3       1783            0.0000000000
     17644      5882  TIP3      OH2            28.7850896015      -20.8770657466        5.5287353365  WZ3       1784            0.0000000000
     17645      5882  TIP3      H1             28.8612496015      -20.7819057466        4.5793353365  WZ3       1784            0.0000000000
     17646      5882  TIP3      H2             28.5100096015      -21.7847757466        5.6576453365  WZ3       1784            0.0000000000
     17647      5883  TIP3      OH2            30.1383496015      -20.8512857466        1.2212353365  WZ3       1785            0.0000000000
     17648      5883  TIP3      H1             29.4354596015      -20.2363657466        1.0113753365  WZ3       1785            0.0000000000
     17649      5883  TIP3      H2             29.6934896015      -21.6886157466        1.3523253365  WZ3       1785            0.0000000000
     17650      5884  TIP3      OH2            17.3862796015       -5.0877257466        0.7673753365  WZ3       1786            0.0000000000
     17651      5884  TIP3      H1             16.7012696015       -5.1258357466        0.0998853365  WZ3       1786            0.0000000000
     17652      5884  TIP3      H2             17.3899996015       -4.1749657466        1.0555853365  WZ3       1786            0.0000000000
     17653      5885  TIP3      OH2            19.3462396015      -19.1197957466       -1.6877246635  WZ3       1787            0.0000000000
     17654      5885  TIP3      H1             19.8375796015      -19.7495557466       -2.2151746635  WZ3       1787            0.0000000000
     17655      5885  TIP3      H2             19.9698696015      -18.8238557466       -1.0246046635  WZ3       1787            0.0000000000
     17656      5886  TIP3      OH2            24.3722496015      -18.8266457466        0.7693253365  WZ3       1788            0.0000000000
     17657      5886  TIP3      H1             24.5503796015      -19.4733257466        1.4521853365  WZ3       1788            0.0000000000
     17658      5886  TIP3      H2             24.3188696015      -17.9928757466        1.2364353365  WZ3       1788            0.0000000000
     17659      5887  TIP3      OH2            26.2506296015       -3.8782357466       -0.8350046635  WZ3       1789            0.0000000000
     17660      5887  TIP3      H1             27.1166496015       -3.5114957466       -1.0131846635  WZ3       1789            0.0000000000
     17661      5887  TIP3      H2             26.0039096015       -4.3174357466       -1.6489246635  WZ3       1789            0.0000000000
     17662      5888  TIP3      OH2            32.9595896015       -4.3152057466        1.8441053365  WZ3       1790            0.0000000000
     17663      5888  TIP3      H1             32.7652996015       -5.0629957466        1.2790653365  WZ3       1790            0.0000000000
     17664      5888  TIP3      H2             32.9205996015       -3.5571957466        1.2608953365  WZ3       1790            0.0000000000
     17665      5889  TIP3      OH2            18.6067896015      -20.3195657466       13.5838753365  WZ3       1791            0.0000000000
     17666      5889  TIP3      H1             18.2406096015      -21.0853057466       14.0263453365  WZ3       1791            0.0000000000
     17667      5889  TIP3      H2             19.5196396015      -20.2905457466       13.8703853365  WZ3       1791            0.0000000000
     17668      5890  TIP3      OH2            20.5798696015      -20.9691257466       15.1195853365  WZ3       1792            0.0000000000
     17669      5890  TIP3      H1             21.4782296015      -21.2431057466       14.9349253365  WZ3       1792            0.0000000000
     17670      5890  TIP3      H2             20.1931796015      -21.7115257466       15.5838453365  WZ3       1792            0.0000000000
     17671      5891  TIP3      OH2            19.2043996015       -4.1676457466       -2.2074146635  WZ3       1793            0.0000000000
     17672      5891  TIP3      H1             18.9368596015       -3.8813557466       -1.3341046635  WZ3       1793            0.0000000000
     17673      5891  TIP3      H2             19.9756596015       -4.7137257466       -2.0551646635  WZ3       1793            0.0000000000
     17674      5892  TIP3      OH2            29.0010996015      -21.6365957466       15.3018653365  WZ3       1794            0.0000000000
     17675      5892  TIP3      H1             29.0778196015      -22.0625257466       16.1556353365  WZ3       1794            0.0000000000
     17676      5892  TIP3      H2             29.8947596015      -21.6231257466       14.9592153365  WZ3       1794            0.0000000000
     17677      5893  TIP3      OH2            32.1772096015       -5.5639657466       13.9942853365  WZ3       1795            0.0000000000
     17678      5893  TIP3      H1             31.3953996015       -5.7501657466       13.4743453365  WZ3       1795            0.0000000000
     17679      5893  TIP3      H2             32.1051996015       -4.6345357466       14.2115353365  WZ3       1795            0.0000000000
     17680      5894  TIP3      OH2            36.1091996015       -9.2659357466        1.3804153365  WZ3       1805            0.0000000000
     17681      5894  TIP3      H1             35.8372896015       -9.0368357466        0.4917053365  WZ3       1805            0.0000000000
     17682      5894  TIP3      H2             36.1547696015       -8.4280557466        1.8409453365  WZ3       1805            0.0000000000
     17683      5895  TIP3      OH2            35.4389196015      -10.1612257466       10.7153853365  WZ3       1810            0.0000000000
     17684      5895  TIP3      H1             34.9377596015      -10.1892857466        9.9003553365  WZ3       1810            0.0000000000
     17685      5895  TIP3      H2             35.4442896015      -11.0669057466       11.0251153365  WZ3       1810            0.0000000000
     17686      5896  TIP3      OH2            35.1891896015       -7.3808457466        7.5994053365  WZ3       1811            0.0000000000
     17687      5896  TIP3      H1             36.1352496015       -7.5251457466        7.5803553365  WZ3       1811            0.0000000000
     17688      5896  TIP3      H2             35.0768196015       -6.5965657466        8.1365253365  WZ3       1811            0.0000000000
     17689      5897  TIP3      OH2            36.8849896015       -6.0513457466        9.9108753365  WZ3       1828            0.0000000000
     17690      5897  TIP3      H1             37.1020196015       -6.9831057466        9.8798453365  WZ3       1828            0.0000000000
     17691      5897  TIP3      H2             37.1313396015       -5.7768457466       10.7941553365  WZ3       1828            0.0000000000
     17692      5898  TIP3      OH2            36.8069596015       -6.7765757466        2.9332953365  WZ3       1834            0.0000000000
     17693      5898  TIP3      H1             35.9748196015       -6.3043057466        2.9604353365  WZ3       1834            0.0000000000
     17694      5898  TIP3      H2             37.3527896015       -6.2668157466        2.3346053365  WZ3       1834            0.0000000000
     17695      5899  TIP3      OH2            36.0953296015       -4.1642057466       14.2630953365  WZ3       1835            0.0000000000
     17696      5899  TIP3      H1             36.6355496015       -4.3808057466       15.0230153365  WZ3       1835            0.0000000000
     17697      5899  TIP3      H2             35.6141296015       -4.9696057466       14.0733453365  WZ3       1835            0.0000000000
     17698      5900  TIP3      OH2            34.6787896015       -3.0748257466        3.4796653365  WZ3       1842            0.0000000000
     17699      5900  TIP3      H1             34.0314996015       -3.5366557466        2.9467853365  WZ3       1842            0.0000000000
     17700      5900  TIP3      H2             35.0332496015       -3.7464957466        4.0622853365  WZ3       1842            0.0000000000
     17701      5901  TIP3      OH2            35.5487096015       -4.9941257466        5.2842853365  WZ3       1843            0.0000000000
     17702      5901  TIP3      H1             35.2143896015       -5.8743957466        5.4563053365  WZ3       1843            0.0000000000
     17703      5901  TIP3      H2             35.7709496015       -4.6486257466        6.1488453365  WZ3       1843            0.0000000000
     17704      5902  TIP3      OH2            37.2205396015       -7.1654057466       14.3800353365  WZ3       1850            0.0000000000
     17705      5902  TIP3      H1             36.3997896015       -6.9907557466       13.9195053365  WZ3       1850            0.0000000000
     17706      5902  TIP3      H2             36.9683196015       -7.2389357466       15.3004753365  WZ3       1850            0.0000000000
     17707      5903  TIP3      OH2            37.5764996015       -2.9348957466       10.6859653365  WZ3       1852            0.0000000000
     17708      5903  TIP3      H1             36.8561396015       -2.4947957466       10.2347353365  WZ3       1852            0.0000000000
     17709      5903  TIP3      H2             37.2108996015       -3.1854257466       11.5343653365  WZ3       1852            0.0000000000
     17710      5904  TIP3      OH2            36.9913096015       -4.3116457466        7.5961453365  WZ3       1854            0.0000000000
     17711      5904  TIP3      H1             36.9729096015       -4.7371357466        8.4533753365  WZ3       1854            0.0000000000
     17712      5904  TIP3      H2             37.7960996015       -4.6301457466        7.1873653365  WZ3       1854            0.0000000000
     17713      5905  TIP3      OH2            36.2422796015       -5.0877257466        0.7673753365  WZ3       1858            0.0000000000
     17714      5905  TIP3      H1             35.5572696015       -5.1258357466        0.0998853365  WZ3       1858            0.0000000000
     17715      5905  TIP3      H2             36.2459996015       -4.1749657466        1.0555853365  WZ3       1858            0.0000000000
     17716      5906  TIP3      OH2           -28.8407503985        7.1784742534        4.0250053365  WZ3       1863            0.0000000000
     17717      5906  TIP3      H1            -28.7516403985        8.1222942534        3.8927153365  WZ3       1863            0.0000000000
     17718      5906  TIP3      H2            -29.4789903985        6.9031142534        3.3669453365  WZ3       1863            0.0000000000
     17719      5907  TIP3      OH2           -29.9076203985        6.4335442534        7.4438253365  WZ3       1864            0.0000000000
     17720      5907  TIP3      H1            -29.9458703985        5.7871742534        8.1487853365  WZ3       1864            0.0000000000
     17721      5907  TIP3      H2            -30.2299703985        5.9669842534        6.6726953365  WZ3       1864            0.0000000000
     17722      5908  TIP3      OH2           -26.2016003985        9.3725842534        5.7453353365  WZ3       1866            0.0000000000
     17723      5908  TIP3      H1            -26.6423303985        8.6521842534        6.1958953365  WZ3       1866            0.0000000000
     17724      5908  TIP3      H2            -26.2146303985       10.0933042534        6.3751053365  WZ3       1866            0.0000000000
     17725      5909  TIP3      OH2           -29.0900503985       14.4767542534        5.9573753365  WZ3       1870            0.0000000000
     17726      5909  TIP3      H1            -28.4704103985       13.8002242534        5.6842953365  WZ3       1870            0.0000000000
     17727      5909  TIP3      H2            -29.2983103985       14.2588342534        6.8658653365  WZ3       1870            0.0000000000
     17728      5910  TIP3      OH2           -31.5181803985        8.8656842534        7.8499253365  WZ3       1871            0.0000000000
     17729      5910  TIP3      H1            -31.2143903985        8.1798242534        7.2553353365  WZ3       1871            0.0000000000
     17730      5910  TIP3      H2            -30.7967803985        8.9845542534        8.4677253365  WZ3       1871            0.0000000000
     17731      5911  TIP3      OH2           -22.8552003985        0.4672142534        8.7105453365  WZ3       1872            0.0000000000
     17732      5911  TIP3      H1            -22.8059803985        1.0773342534        9.4464553365  WZ3       1872            0.0000000000
     17733      5911  TIP3      H2            -22.4296903985        0.9283042534        7.9876553365  WZ3       1872            0.0000000000
     17734      5912  TIP3      OH2           -28.3774803985        3.2599242534        8.1774053365  WZ3       1873            0.0000000000
     17735      5912  TIP3      H1            -28.2348903985        2.3136242534        8.1975653365  WZ3       1873            0.0000000000
     17736      5912  TIP3      H2            -28.4835803985        3.4669042534        7.2488953365  WZ3       1873            0.0000000000
     17737      5913  TIP3      OH2           -35.2226503985        1.3615642534        5.4498853365  WZ3       1874            0.0000000000
     17738      5913  TIP3      H1            -35.1795403985        2.2214142534        5.0315153365  WZ3       1874            0.0000000000
     17739      5913  TIP3      H2            -35.6802403985        0.8090342534        4.8162053365  WZ3       1874            0.0000000000
     17740      5914  TIP3      OH2           -27.5003803985        1.4921242534        3.8507153365  WZ3       1875            0.0000000000
     17741      5914  TIP3      H1            -26.8539503985        1.1634442534        4.4754753365  WZ3       1875            0.0000000000
     17742      5914  TIP3      H2            -26.9904403985        2.0100242534        3.2278553365  WZ3       1875            0.0000000000
     17743      5915  TIP3      OH2           -33.4460503985        5.3082742534        5.4271753365  WZ3       1877            0.0000000000
     17744      5915  TIP3      H1            -32.8299503985        4.7818142534        5.9365753365  WZ3       1877            0.0000000000
     17745      5915  TIP3      H2            -34.0321703985        4.6681442534        5.0235353365  WZ3       1877            0.0000000000
     17746      5916  TIP3      OH2           -22.4637403985        1.9451342534       10.9465253365  WZ3       1878            0.0000000000
     17747      5916  TIP3      H1            -23.1522803985        2.6032042534       10.8511853365  WZ3       1878            0.0000000000
     17748      5916  TIP3      H2            -22.4482803985        1.7479242534       11.8830653365  WZ3       1878            0.0000000000
     17749      5917  TIP3      OH2           -36.4124603985        0.2794042534        9.5239653365  WZ3       1879            0.0000000000
     17750      5917  TIP3      H1            -36.6312903985        0.8094642534        8.7575653365  WZ3       1879            0.0000000000
     17751      5917  TIP3      H2            -37.0803703985        0.5059542534       10.1711053365  WZ3       1879            0.0000000000
     17752      5918  TIP3      OH2           -29.0434803985        9.7795142534        3.0678753365  WZ3       1880            0.0000000000
     17753      5918  TIP3      H1            -29.3389703985        9.4567442534        2.2165653365  WZ3       1880            0.0000000000
     17754      5918  TIP3      H2            -29.3677003985       10.6791842534        3.1091353365  WZ3       1880            0.0000000000
     17755      5919  TIP3      OH2           -33.8433203985        7.9549742534        9.8113353365  WZ3       1881            0.0000000000
     17756      5919  TIP3      H1            -34.5834103985        8.5531242534        9.9148553365  WZ3       1881            0.0000000000
     17757      5919  TIP3      H2            -33.1293703985        8.5089342534        9.4956953365  WZ3       1881            0.0000000000
     17758      5920  TIP3      OH2           -25.7365403985        0.7830542534        5.8313053365  WZ3       1882            0.0000000000
     17759      5920  TIP3      H1            -25.9517403985        0.0173942534        6.3639053365  WZ3       1882            0.0000000000
     17760      5920  TIP3      H2            -25.0808003985        1.2555142534        6.3441553365  WZ3       1882            0.0000000000
     17761      5921  TIP3      OH2           -36.8187303985        2.1715842534        7.4761853365  WZ3       1883            0.0000000000
     17762      5921  TIP3      H1            -36.2051003985        2.8043442534        7.8494253365  WZ3       1883            0.0000000000
     17763      5921  TIP3      H2            -36.3066603985        1.6990842534        6.8198753365  WZ3       1883            0.0000000000
     17764      5922  TIP3      OH2           -25.6898303985       11.2116542534        8.0932653365  WZ3       1886            0.0000000000
     17765      5922  TIP3      H1            -26.6314603985       11.2700442534        8.2549553365  WZ3       1886            0.0000000000
     17766      5922  TIP3      H2            -25.4132203985       12.1177042534        7.9562353365  WZ3       1886            0.0000000000
     17767      5923  TIP3      OH2           -25.3891303985       -0.5018157466        9.5106553365  WZ3       1887            0.0000000000
     17768      5923  TIP3      H1            -26.1252103985        0.1088942534        9.4727853365  WZ3       1887            0.0000000000
     17769      5923  TIP3      H2            -24.7057303985       -0.0869157466        8.9842953365  WZ3       1887            0.0000000000
     17770      5924  TIP3      OH2           -32.3859903985       -2.4150857466        6.9764553365  WZ3       1888            0.0000000000
     17771      5924  TIP3      H1            -32.5035703985       -3.3634857466        6.9222853365  WZ3       1888            0.0000000000
     17772      5924  TIP3      H2            -33.2409803985       -2.0824757466        7.2495653365  WZ3       1888            0.0000000000
     17773      5925  TIP3      OH2           -27.4377103985       12.9930042534        4.7184253365  WZ3       1889            0.0000000000
     17774      5925  TIP3      H1            -27.0124803985       12.2857942534        4.2333853365  WZ3       1889            0.0000000000
     17775      5925  TIP3      H2            -27.1207103985       13.7942742534        4.3016453365  WZ3       1889            0.0000000000
     17776      5926  TIP3      OH2           -26.2780603985       10.8938542534        3.2270853365  WZ3       1890            0.0000000000
     17777      5926  TIP3      H1            -26.5355803985       10.2038642534        2.6156753365  WZ3       1890            0.0000000000
     17778      5926  TIP3      H2            -26.2069803985       10.4509742534        4.0726753365  WZ3       1890            0.0000000000
     17779      5927  TIP3      OH2           -24.5920403985        9.4605242534       11.7044353365  WZ3       1891            0.0000000000
     17780      5927  TIP3      H1            -24.4524103985        8.8687742534       10.9651353365  WZ3       1891            0.0000000000
     17781      5927  TIP3      H2            -24.4247603985       10.3331142534       11.3483153365  WZ3       1891            0.0000000000
     17782      5928  TIP3      OH2           -30.1195003985        6.4224742534        1.4770353365  WZ3       1892            0.0000000000
     17783      5928  TIP3      H1            -30.8309503985        6.9574442534        1.1250853365  WZ3       1892            0.0000000000
     17784      5928  TIP3      H2            -29.4285403985        6.4776842534        0.8169253365  WZ3       1892            0.0000000000
     17785      5929  TIP3      OH2           -30.0655803985        4.8799042534       -1.4844646635  WZ3       1893            0.0000000000
     17786      5929  TIP3      H1            -29.3645903985        4.9025942534       -0.8330646635  WZ3       1893            0.0000000000
     17787      5929  TIP3      H2            -29.7632903985        4.2518742534       -2.1405346635  WZ3       1893            0.0000000000
     17788      5930  TIP3      OH2           -22.7501103985        5.8003242534        9.7704753365  WZ3       1894            0.0000000000
     17789      5930  TIP3      H1            -23.4027003985        6.4948842534        9.8595653365  WZ3       1894            0.0000000000
     17790      5930  TIP3      H2            -22.2850803985        6.0104142534        8.9606353365  WZ3       1894            0.0000000000
     17791      5931  TIP3      OH2           -26.7137303985        6.6318042534        2.4286253365  WZ3       1895            0.0000000000
     17792      5931  TIP3      H1            -27.4456303985        6.8601742534        3.0016853365  WZ3       1895            0.0000000000
     17793      5931  TIP3      H2            -26.2665103985        5.9180742534        2.8833753365  WZ3       1895            0.0000000000
     17794      5932  TIP3      OH2           -26.8163803985        4.8060642534       11.4963253365  WZ3       1896            0.0000000000
     17795      5932  TIP3      H1            -26.7364703985        5.5695042534       12.0681753365  WZ3       1896            0.0000000000
     17796      5932  TIP3      H2            -27.4176103985        5.0853042534       10.8058353365  WZ3       1896            0.0000000000
     17797      5933  TIP3      OH2           -35.0683603985        7.2624242534        4.3111253365  WZ3       1897            0.0000000000
     17798      5933  TIP3      H1            -35.3988403985        6.8917642534        3.4928253365  WZ3       1897            0.0000000000
     17799      5933  TIP3      H2            -34.4799503985        6.5918242534        4.6579553365  WZ3       1897            0.0000000000
     17800      5934  TIP3      OH2           -33.7016103985       10.6904842534        6.9923453365  WZ3       1898            0.0000000000
     17801      5934  TIP3      H1            -33.7964803985       10.1117942534        6.2358053365  WZ3       1898            0.0000000000
     17802      5934  TIP3      H2            -32.9722503985       10.3190542534        7.4886253365  WZ3       1898            0.0000000000
     17803      5935  TIP3      OH2           -34.7018103985        6.0309842534        7.9446253365  WZ3       1899            0.0000000000
     17804      5935  TIP3      H1            -34.1365603985        6.1524042534        7.1817453365  WZ3       1899            0.0000000000
     17805      5935  TIP3      H2            -34.3829203985        6.6684842534        8.5834753365  WZ3       1899            0.0000000000
     17806      5936  TIP3      OH2           -28.3925903985       11.5341742534        8.6786753365  WZ3       1900            0.0000000000
     17807      5936  TIP3      H1            -28.6329303985       12.1964842534        9.3265953365  WZ3       1900            0.0000000000
     17808      5936  TIP3      H2            -28.5907703985       10.6996942534        9.1036353365  WZ3       1900            0.0000000000
     17809      5937  TIP3      OH2           -33.8217403985       10.4302542534       12.6618153365  WZ3       1901            0.0000000000
     17810      5937  TIP3      H1            -34.1329903985       11.2125742534       13.1171353365  WZ3       1901            0.0000000000
     17811      5937  TIP3      H2            -34.4717203985       10.2771642534       11.9760153365  WZ3       1901            0.0000000000
     17812      5938  TIP3      OH2           -27.8427803985        5.7940942534        0.1137453365  WZ3       1902            0.0000000000
     17813      5938  TIP3      H1            -27.2632303985        5.9441242534        0.8606353365  WZ3       1902            0.0000000000
     17814      5938  TIP3      H2            -27.4287803985        6.2648342534       -0.6096146635  WZ3       1902            0.0000000000
     17815      5939  TIP3      OH2           -30.1162903985       12.5309442534        3.5490553365  WZ3       1904            0.0000000000
     17816      5939  TIP3      H1            -29.6425303985       12.8265742534        4.3264753365  WZ3       1904            0.0000000000
     17817      5939  TIP3      H2            -30.6793603985       13.2691042534        3.3160153365  WZ3       1904            0.0000000000
     17818      5940  TIP3      OH2           -24.1439403985       -2.4558657466       -0.0732846635  WZ3       1906            0.0000000000
     17819      5940  TIP3      H1            -25.0438703985       -2.3169657466        0.2217753365  WZ3       1906            0.0000000000
     17820      5940  TIP3      H2            -23.8921003985       -1.6244057466       -0.4751146635  WZ3       1906            0.0000000000
     17821      5941  TIP3      OH2           -36.0780903985        6.3318542534        1.9004053365  WZ3       1907            0.0000000000
     17822      5941  TIP3      H1            -36.3699603985        7.1000242534        1.4095353365  WZ3       1907            0.0000000000
     17823      5941  TIP3      H2            -36.7525703985        5.6724742534        1.7375453365  WZ3       1907            0.0000000000
     17824      5942  TIP3      OH2           -22.9548003985       11.9103742534       -1.6968946635  WZ3       1908            0.0000000000
     17825      5942  TIP3      H1            -22.8814503985       12.8493942534       -1.5263646635  WZ3       1908            0.0000000000
     17826      5942  TIP3      H2            -22.0492903985       11.6052342534       -1.7531646635  WZ3       1908            0.0000000000
     17827      5943  TIP3      OH2           -22.0369603985       12.1411242534       13.2817753365  WZ3       1911            0.0000000000
     17828      5943  TIP3      H1            -22.0862803985       11.1859342534       13.2445353365  WZ3       1911            0.0000000000
     17829      5943  TIP3      H2            -22.8637303985       12.4086542534       13.6831553365  WZ3       1911            0.0000000000
     17830      5944  TIP3      OH2           -31.0585603985       11.7150442534       12.1579153365  WZ3       1912            0.0000000000
     17831      5944  TIP3      H1            -30.9711003985       12.5415042534       12.6328253365  WZ3       1912            0.0000000000
     17832      5944  TIP3      H2            -31.9220503985       11.3854242534       12.4068453365  WZ3       1912            0.0000000000
     17833      5945  TIP3      OH2           -30.6439803985       15.4874142534        1.9639753365  WZ3       1913            0.0000000000
     17834      5945  TIP3      H1            -30.7193803985       15.3661342534        1.0174953365  WZ3       1913            0.0000000000
     17835      5945  TIP3      H2            -30.6111103985       16.4366842534        2.0824353365  WZ3       1913            0.0000000000
     17836      5946  TIP3      OH2           -27.5423803985       14.6414342534       -1.0337846635  WZ3       1915            0.0000000000
     17837      5946  TIP3      H1            -27.1675403985       13.8970442534       -1.5045246635  WZ3       1915            0.0000000000
     17838      5946  TIP3      H2            -27.5380103985       14.3714942534       -0.1154546635  WZ3       1915            0.0000000000
     17839      5947  TIP3      OH2           -27.8735703985       14.5671442534        1.7154353365  WZ3       1916            0.0000000000
     17840      5947  TIP3      H1            -28.8085903985       14.6673342534        1.8941353365  WZ3       1916            0.0000000000
     17841      5947  TIP3      H2            -27.5933803985       13.8577442534        2.2937553365  WZ3       1916            0.0000000000
     17842      5948  TIP3      OH2           -24.8849803985        3.6343742534       13.7619953365  WZ3       1917            0.0000000000
     17843      5948  TIP3      H1            -25.2923003985        4.1149342534       13.0413253365  WZ3       1917            0.0000000000
     17844      5948  TIP3      H2            -24.8444103985        2.7289742534       13.4540753365  WZ3       1917            0.0000000000
     17845      5949  TIP3      OH2           -35.1172303985       -1.5116357466        7.7540853365  WZ3       1919            0.0000000000
     17846      5949  TIP3      H1            -35.9788603985       -1.5988157466        7.3463753365  WZ3       1919            0.0000000000
     17847      5949  TIP3      H2            -35.1396603985       -0.6556257466        8.1818453365  WZ3       1919            0.0000000000
     17848      5950  TIP3      OH2           -30.4544503985       -1.7895957466       11.1287853365  WZ3       1920            0.0000000000
     17849      5950  TIP3      H1            -30.0341403985       -2.2048857466       11.8818453365  WZ3       1920            0.0000000000
     17850      5950  TIP3      H2            -31.3874903985       -1.9682657466       11.2459853365  WZ3       1920            0.0000000000
     17851      5951  TIP3      OH2           -27.1279603985        1.9659242534       11.9822353365  WZ3       1921            0.0000000000
     17852      5951  TIP3      H1            -27.6420103985        1.8401442534       12.7798353365  WZ3       1921            0.0000000000
     17853      5951  TIP3      H2            -27.2834903985        2.8782342534       11.7378553365  WZ3       1921            0.0000000000
     17854      5952  TIP3      OH2           -26.3654703985        6.8269242534       -2.2564646635  WZ3       1922            0.0000000000
     17855      5952  TIP3      H1            -26.3233903985        6.6043142534       -3.1864646635  WZ3       1922            0.0000000000
     17856      5952  TIP3      H2            -25.5162603985        7.2256342534       -2.0664746635  WZ3       1922            0.0000000000
     17857      5953  TIP3      OH2           -30.7927203985        0.7027442534       -1.5861346635  WZ3       1923            0.0000000000
     17858      5953  TIP3      H1            -31.0462403985        0.7219042534       -0.6633246635  WZ3       1923            0.0000000000
     17859      5953  TIP3      H2            -31.0495103985       -0.1687157466       -1.8875146635  WZ3       1923            0.0000000000
     17860      5954  TIP3      OH2           -35.0262203985        3.4538142534        8.8491053365  WZ3       1924            0.0000000000
     17861      5954  TIP3      H1            -35.6680103985        3.4135442534        9.5581153365  WZ3       1924            0.0000000000
     17862      5954  TIP3      H2            -34.9890203985        4.3802842534        8.6114053365  WZ3       1924            0.0000000000
     17863      5955  TIP3      OH2           -35.0293103985        3.6748242534        3.7611053365  WZ3       1925            0.0000000000
     17864      5955  TIP3      H1            -35.9220203985        3.3344342534        3.7024853365  WZ3       1925            0.0000000000
     17865      5955  TIP3      H2            -34.5786503985        3.2979142534        3.0054253365  WZ3       1925            0.0000000000
     17866      5956  TIP3      OH2           -29.4937603985        4.0908542534        2.5781853365  WZ3       1926            0.0000000000
     17867      5956  TIP3      H1            -29.9027303985        4.9057142534        2.2866653365  WZ3       1926            0.0000000000
     17868      5956  TIP3      H2            -28.7731403985        3.9508642534        1.9638953365  WZ3       1926            0.0000000000
     17869      5957  TIP3      OH2           -30.3916003985        4.2664942534       14.0662553365  WZ3       1927            0.0000000000
     17870      5957  TIP3      H1            -30.9542203985        3.5616542534       14.3870353365  WZ3       1927            0.0000000000
     17871      5957  TIP3      H2            -29.5652603985        4.1456842534       14.5340153365  WZ3       1927            0.0000000000
     17872      5958  TIP3      OH2           -28.4889903985        3.5368942534        5.3921553365  WZ3       1928            0.0000000000
     17873      5958  TIP3      H1            -28.6845403985        4.1425742534        4.6772153365  WZ3       1928            0.0000000000
     17874      5958  TIP3      H2            -28.3077303985        2.7034142534        4.9577853365  WZ3       1928            0.0000000000
     17875      5959  TIP3      OH2           -37.2761703985        3.7741642534       10.7163053365  WZ3       1929            0.0000000000
     17876      5959  TIP3      H1            -37.3142303985        4.1743242534       11.5850153365  WZ3       1929            0.0000000000
     17877      5959  TIP3      H2            -37.7670603985        2.9574042534       10.8065953365  WZ3       1929            0.0000000000
     17878      5960  TIP3      OH2           -33.9104303985        1.1483942534       -2.4850946635  WZ3       1930            0.0000000000
     17879      5960  TIP3      H1            -34.3413603985        0.7034042534       -1.7553546635  WZ3       1930            0.0000000000
     17880      5960  TIP3      H2            -34.6285603985        1.5200242534       -2.9973446635  WZ3       1930            0.0000000000
     17881      5961  TIP3      OH2           -29.2250703985        5.1750242534       10.0633953365  WZ3       1933            0.0000000000
     17882      5961  TIP3      H1            -28.9015903985        4.5439942534        9.4204453365  WZ3       1933            0.0000000000
     17883      5961  TIP3      H2            -29.6651403985        4.6402442534       10.7241353365  WZ3       1933            0.0000000000
     17884      5962  TIP3      OH2           -32.4477803985        1.1025742534        4.8475153365  WZ3       1934            0.0000000000
     17885      5962  TIP3      H1            -33.3586703985        1.1592542534        5.1361153365  WZ3       1934            0.0000000000
     17886      5962  TIP3      H2            -31.9424903985        1.0421242534        5.6582353365  WZ3       1934            0.0000000000
     17887      5963  TIP3      OH2           -37.6194403985        2.7312042534        3.6742753365  WZ3       1935            0.0000000000
     17888      5963  TIP3      H1            -38.5086403985        2.8307542534        3.3342353365  WZ3       1935            0.0000000000
     17889      5963  TIP3      H2            -37.3229503985        1.8895042534        3.3280653365  WZ3       1935            0.0000000000
     17890      5964  TIP3      OH2           -33.9662603985        2.7314642534        1.3307353365  WZ3       1936            0.0000000000
     17891      5964  TIP3      H1            -33.0347103985        2.8604642534        1.5090453365  WZ3       1936            0.0000000000
     17892      5964  TIP3      H2            -34.1812303985        3.4008942534        0.6812053365  WZ3       1936            0.0000000000
     17893      5965  TIP3      OH2           -28.0425903985        0.3372042534        8.1116953365  WZ3       1937            0.0000000000
     17894      5965  TIP3      H1            -28.7194303985        0.4685142534        8.7756653365  WZ3       1937            0.0000000000
     17895      5965  TIP3      H2            -28.5281003985        0.1821542534        7.3014653365  WZ3       1937            0.0000000000
     17896      5966  TIP3      OH2           -35.2922403985        3.9256842534       -1.1026546635  WZ3       1938            0.0000000000
     17897      5966  TIP3      H1            -35.8347303985        3.5460642534       -1.7938946635  WZ3       1938            0.0000000000
     17898      5966  TIP3      H2            -34.4587503985        4.1201542534       -1.5312446635  WZ3       1938            0.0000000000
     17899      5967  TIP3      OH2           -24.7550803985       16.0087442534       14.3884553365  WZ3       1939            0.0000000000
     17900      5967  TIP3      H1            -24.5552103985       16.4329342534       13.5539853365  WZ3       1939            0.0000000000
     17901      5967  TIP3      H2            -24.0997103985       16.3525642534       14.9954953365  WZ3       1939            0.0000000000
     17902      5968  TIP3      OH2           -31.1278103985        3.8898742534        6.7344753365  WZ3       1941            0.0000000000
     17903      5968  TIP3      H1            -30.5634703985        3.3435342534        6.1874353365  WZ3       1941            0.0000000000
     17904      5968  TIP3      H2            -31.2754703985        3.3680642534        7.5232353365  WZ3       1941            0.0000000000
     17905      5969  TIP3      OH2           -36.1258403985        0.0264842534        3.1529553365  WZ3       1942            0.0000000000
     17906      5969  TIP3      H1            -36.4428903985       -0.8759857466        3.1174953365  WZ3       1942            0.0000000000
     17907      5969  TIP3      H2            -35.3444303985        0.0282242534        2.6001153365  WZ3       1942            0.0000000000
     17908      5970  TIP3      OH2           -32.5012203985        2.2784842534        9.1485153365  WZ3       1943            0.0000000000
     17909      5970  TIP3      H1            -33.3366903985        2.7324342534        9.2587553365  WZ3       1943            0.0000000000
     17910      5970  TIP3      H2            -31.9771603985        2.5543342534        9.9005053365  WZ3       1943            0.0000000000
     17911      5971  TIP3      OH2           -31.9569603985        8.4912542534        0.8331553365  WZ3       1944            0.0000000000
     17912      5971  TIP3      H1            -32.7018603985        7.9837842534        0.5109453365  WZ3       1944            0.0000000000
     17913      5971  TIP3      H2            -32.0912403985        8.5400542534        1.7796353365  WZ3       1944            0.0000000000
     17914      5972  TIP3      OH2           -24.8070703985        7.6240742534        9.6199153365  WZ3       1945            0.0000000000
     17915      5972  TIP3      H1            -24.1651903985        8.0807042534        9.0761353365  WZ3       1945            0.0000000000
     17916      5972  TIP3      H2            -25.6373803985        7.7373142534        9.1573253365  WZ3       1945            0.0000000000
     17917      5973  TIP3      OH2           -28.0592803985        1.3052442534       -0.9675846635  WZ3       1946            0.0000000000
     17918      5973  TIP3      H1            -28.9978603985        1.4168042534       -1.1187046635  WZ3       1946            0.0000000000
     17919      5973  TIP3      H2            -27.7620703985        2.1619342534       -0.6610146635  WZ3       1946            0.0000000000
     17920      5974  TIP3      OH2           -30.4377503985        8.6755842534       12.0700653365  WZ3       1947            0.0000000000
     17921      5974  TIP3      H1            -30.7831403985        8.2938242534       12.8770253365  WZ3       1947            0.0000000000
     17922      5974  TIP3      H2            -30.6377403985        9.6089442534       12.1413553365  WZ3       1947            0.0000000000
     17923      5975  TIP3      OH2           -27.3409303985        3.1725142534        0.6931553365  WZ3       1948            0.0000000000
     17924      5975  TIP3      H1            -26.4490303985        3.0350142534        1.0122753365  WZ3       1948            0.0000000000
     17925      5975  TIP3      H2            -27.2845703985        3.9631242534        0.1565053365  WZ3       1948            0.0000000000
     17926      5976  TIP3      OH2           -36.8321303985        7.7862542534        6.6029453365  WZ3       1949            0.0000000000
     17927      5976  TIP3      H1            -36.0874103985        7.7838242534        6.0015953365  WZ3       1949            0.0000000000
     17928      5976  TIP3      H2            -36.7544703985        6.9626342534        7.0844553365  WZ3       1949            0.0000000000
     17929      5977  TIP3      OH2           -29.8315503985        9.9496842534       -0.1413846635  WZ3       1950            0.0000000000
     17930      5977  TIP3      H1            -30.1267103985       10.7764742534        0.2400953365  WZ3       1950            0.0000000000
     17931      5977  TIP3      H2            -30.5345503985        9.3303742534        0.0547553365  WZ3       1950            0.0000000000
     17932      5978  TIP3      OH2           -32.8076703985        5.7639342534       14.1307653365  WZ3       1952            0.0000000000
     17933      5978  TIP3      H1            -33.1035903985        5.5982342534       13.2356753365  WZ3       1952            0.0000000000
     17934      5978  TIP3      H2            -31.8761503985        5.5439642534       14.1201553365  WZ3       1952            0.0000000000
     17935      5979  TIP3      OH2           -28.1873903985       11.1371342534       12.0205653365  WZ3       1953            0.0000000000
     17936      5979  TIP3      H1            -29.0879603985       11.3203942534       11.7529553365  WZ3       1953            0.0000000000
     17937      5979  TIP3      H2            -28.1532803985       11.3960642534       12.9414453365  WZ3       1953            0.0000000000
     17938      5980  TIP3      OH2           -22.4560603985        3.3819242534        0.3878253365  WZ3       1954            0.0000000000
     17939      5980  TIP3      H1            -23.0104303985        2.9857242534       -0.2844246635  WZ3       1954            0.0000000000
     17940      5980  TIP3      H2            -22.3557003985        4.2924442534        0.1101553365  WZ3       1954            0.0000000000
     17941      5981  TIP3      OH2           -22.4928603985        9.1820942534       13.2249753365  WZ3       1955            0.0000000000
     17942      5981  TIP3      H1            -23.3440103985        9.4204742534       12.8576153365  WZ3       1955            0.0000000000
     17943      5981  TIP3      H2            -21.9025203985        9.1654142534       12.4716853365  WZ3       1955            0.0000000000
     17944      5982  TIP3      OH2           -24.1608903985       12.1679642534        0.8530353365  WZ3       1956            0.0000000000
     17945      5982  TIP3      H1            -24.5337803985       11.3423442534        1.1620953365  WZ3       1956            0.0000000000
     17946      5982  TIP3      H2            -23.8835403985       11.9849042534       -0.0446246635  WZ3       1956            0.0000000000
     17947      5983  TIP3      OH2           -27.0005003985        6.9759142534        7.8742253365  WZ3       1957            0.0000000000
     17948      5983  TIP3      H1            -27.9288103985        6.7441042534        7.8471553365  WZ3       1957            0.0000000000
     17949      5983  TIP3      H2            -26.5493903985        6.1988942534        7.5441053365  WZ3       1957            0.0000000000
     17950      5984  TIP3      OH2           -34.4571903985       11.3040742534        4.0070953365  WZ3       1958            0.0000000000
     17951      5984  TIP3      H1            -33.9299703985       12.0775142534        3.8069753365  WZ3       1958            0.0000000000
     17952      5984  TIP3      H2            -35.3373403985       11.5289942534        3.7054953365  WZ3       1958            0.0000000000
     17953      5985  TIP3      OH2           -33.0299603985        8.9670642534        3.5835253365  WZ3       1960            0.0000000000
     17954      5985  TIP3      H1            -33.2709603985        9.8925042534        3.6250553365  WZ3       1960            0.0000000000
     17955      5985  TIP3      H2            -33.7706003985        8.5081942534        3.9799153365  WZ3       1960            0.0000000000
     17956      5986  TIP3      OH2           -32.5153003985       13.1164242534        9.8986353365  WZ3       1961            0.0000000000
     17957      5986  TIP3      H1            -32.1528303985       13.9709842534        9.6650753365  WZ3       1961            0.0000000000
     17958      5986  TIP3      H2            -31.9837803985       12.8245842534       10.6392653365  WZ3       1961            0.0000000000
     17959      5987  TIP3      OH2           -28.9712203985        9.2154942534        9.5991953365  WZ3       1963            0.0000000000
     17960      5987  TIP3      H1            -29.3970903985        8.9876642534       10.4255953365  WZ3       1963            0.0000000000
     17961      5987  TIP3      H2            -28.3906403985        8.4766742534        9.4167253365  WZ3       1963            0.0000000000
     17962      5988  TIP3      OH2           -26.7683303985       10.1445442534       -1.3269046635  WZ3       1964            0.0000000000
     17963      5988  TIP3      H1            -26.4150203985        9.7645242534       -0.5225546635  WZ3       1964            0.0000000000
     17964      5988  TIP3      H2            -27.7169803985       10.0510242534       -1.2399746635  WZ3       1964            0.0000000000
     17965      5989  TIP3      OH2           -26.3128003985       13.7674442534       12.0686753365  WZ3       1965            0.0000000000
     17966      5989  TIP3      H1            -26.9144803985       13.2117342534       11.5733053365  WZ3       1965            0.0000000000
     17967      5989  TIP3      H2            -26.0314303985       14.4344242534       11.4424153365  WZ3       1965            0.0000000000
     17968      5990  TIP3      OH2           -22.2648903985       14.6237942534       -1.1258846635  WZ3       1966            0.0000000000
     17969      5990  TIP3      H1            -21.5211003985       15.2098442534       -1.2657246635  WZ3       1966            0.0000000000
     17970      5990  TIP3      H2            -22.9590803985       15.1923742534       -0.7926446635  WZ3       1966            0.0000000000
     17971      5991  TIP3      OH2           -38.1902103985        1.0002142534       11.4759353365  WZ3       1967            0.0000000000
     17972      5991  TIP3      H1            -39.0829803985        1.3387542534       11.4083353365  WZ3       1967            0.0000000000
     17973      5991  TIP3      H2            -38.2889303985        0.1448242534       11.8940153365  WZ3       1967            0.0000000000
     17974      5992  TIP3      OH2           -25.9024003985        8.8167442534        0.8998853365  WZ3       1968            0.0000000000
     17975      5992  TIP3      H1            -26.1796403985        8.0886742534        1.4559953365  WZ3       1968            0.0000000000
     17976      5992  TIP3      H2            -24.9751003985        8.9359442534        1.1051453365  WZ3       1968            0.0000000000
     17977      5993  TIP3      OH2           -32.6775503985       11.2561542534       -2.8799046635  WZ3       1970            0.0000000000
     17978      5993  TIP3      H1            -32.4385703985       10.5079642534       -3.4270146635  WZ3       1970            0.0000000000
     17979      5993  TIP3      H2            -32.9464203985       10.8683242534       -2.0471246635  WZ3       1970            0.0000000000
     17980      5994  TIP3      OH2           -33.7404903985       10.8265342534       -0.4236446635  WZ3       1971            0.0000000000
     17981      5994  TIP3      H1            -33.5936903985       10.3065142534        0.3664453365  WZ3       1971            0.0000000000
     17982      5994  TIP3      H2            -33.7433203985       11.7332942534       -0.1170546635  WZ3       1971            0.0000000000
     17983      5995  TIP3      OH2           -29.4558703985        0.7412442534       10.3657953365  WZ3       1973            0.0000000000
     17984      5995  TIP3      H1            -28.7570803985        0.8151142534       11.0157653365  WZ3       1973            0.0000000000
     17985      5995  TIP3      H2            -29.8367303985       -0.1232557466       10.5200853365  WZ3       1973            0.0000000000
     17986      5996  TIP3      OH2           -28.6713803985        0.3934142534        1.4630253365  WZ3       1974            0.0000000000
     17987      5996  TIP3      H1            -28.4515503985        0.8649542534        0.6595653365  WZ3       1974            0.0000000000
     17988      5996  TIP3      H2            -28.1129803985        0.7876742534        2.1330853365  WZ3       1974            0.0000000000
     17989      5997  TIP3      OH2           -31.0027703985       12.5238942534        0.3257753365  WZ3       1975            0.0000000000
     17990      5997  TIP3      H1            -31.8191603985       13.0208642534        0.3782053365  WZ3       1975            0.0000000000
     17991      5997  TIP3      H2            -30.4731403985       12.9992442534       -0.3143446635  WZ3       1975            0.0000000000
     17992      5998  TIP3      OH2           -31.4713903985        2.1212942534        2.2978653365  WZ3       1976            0.0000000000
     17993      5998  TIP3      H1            -30.6591303985        2.6256142534        2.3440353365  WZ3       1976            0.0000000000
     17994      5998  TIP3      H2            -31.7160903985        1.9762642534        3.2118253365  WZ3       1976            0.0000000000
     17995      5999  TIP3      OH2           -30.9357503985        3.1075642534       11.4825253365  WZ3       1977            0.0000000000
     17996      5999  TIP3      H1            -30.8167203985        3.6811042534       12.2395653365  WZ3       1977            0.0000000000
     17997      5999  TIP3      H2            -30.2802903985        2.4195042534       11.5973053365  WZ3       1977            0.0000000000
     17998      6000  TIP3      OH2           -30.5877203985       -0.7974057466        3.2359753365  WZ3       1978            0.0000000000
     17999      6000  TIP3      H1            -30.9343703985       -0.1803457466        3.8804053365  WZ3       1978            0.0000000000
     18000      6000  TIP3      H2            -29.9290303985       -0.2968357466        2.7545253365  WZ3       1978            0.0000000000
     18001      6001  TIP3      OH2           -33.6644603985       13.5676142534        0.3074653365  WZ3       1979            0.0000000000
     18002      6001  TIP3      H1            -33.5035903985       14.3673642534       -0.1932746635  WZ3       1979            0.0000000000
     18003      6001  TIP3      H2            -33.8616803985       13.8742142534        1.1925253365  WZ3       1979            0.0000000000
     18004      6002  TIP3      OH2           -34.9300203985        0.2655342534       -0.0767746635  WZ3       1980            0.0000000000
     18005      6002  TIP3      H1            -35.0135403985        1.1538442534        0.2698653365  WZ3       1980            0.0000000000
     18006      6002  TIP3      H2            -34.0399903985        0.0002042534        0.1549053365  WZ3       1980            0.0000000000
     18007      6003  TIP3      OH2           -24.7311703985        1.0145942534       12.3174953365  WZ3       1981            0.0000000000
     18008      6003  TIP3      H1            -25.6475903985        1.2767642534       12.2298653365  WZ3       1981            0.0000000000
     18009      6003  TIP3      H2            -24.3956703985        1.0114942534       11.4210253365  WZ3       1981            0.0000000000
     18010      6004  TIP3      OH2           -26.1290703985        4.7646942534        6.4132253365  WZ3       1982            0.0000000000
     18011      6004  TIP3      H1            -26.9266303985        4.3497142534        6.0847253365  WZ3       1982            0.0000000000
     18012      6004  TIP3      H2            -25.6839603985        4.0740642534        6.9042753365  WZ3       1982            0.0000000000
     18013      6005  TIP3      OH2           -25.0426103985       14.0209442534        8.0355753365  WZ3       1985            0.0000000000
     18014      6005  TIP3      H1            -25.1981803985       14.6993842534        7.3785053365  WZ3       1985            0.0000000000
     18015      6005  TIP3      H2            -24.1099703985       14.0928742534        8.2386353365  WZ3       1985            0.0000000000
     18016      6006  TIP3      OH2           -37.5473703985       -1.8612857466        6.7727153365  WZ3       1986            0.0000000000
     18017      6006  TIP3      H1            -37.7763903985       -1.8020357466        5.8452153365  WZ3       1986            0.0000000000
     18018      6006  TIP3      H2            -37.9900303985       -2.6527357466        7.0791253365  WZ3       1986            0.0000000000
     18019      6007  TIP3      OH2           -34.7313303985       13.6112342534       15.8835153365  WZ3       1989            0.0000000000
     18020      6007  TIP3      H1            -33.9636103985       13.1523142534       16.2244353365  WZ3       1989            0.0000000000
     18021      6007  TIP3      H2            -34.7527103985       13.3852142534       14.9536353365  WZ3       1989            0.0000000000
     18022      6008  TIP3      OH2           -30.6393703985       13.1192942534       -2.7413046635  WZ3       1990            0.0000000000
     18023      6008  TIP3      H1            -31.2832703985       12.4881542534       -2.4199346635  WZ3       1990            0.0000000000
     18024      6008  TIP3      H2            -29.8775403985       12.5880942534       -2.9729546635  WZ3       1990            0.0000000000
     18025      6009  TIP3      OH2           -28.1544603985       11.9913442534       14.6126653365  WZ3       1991            0.0000000000
     18026      6009  TIP3      H1            -28.5055103985       11.1346442534       14.8557053365  WZ3       1991            0.0000000000
     18027      6009  TIP3      H2            -27.4281403985       12.1340142534       15.2195653365  WZ3       1991            0.0000000000
     18028      6010  TIP3      OH2           -26.0350803985       12.9362842534       -2.5075046635  WZ3       1992            0.0000000000
     18029      6010  TIP3      H1            -25.7520403985       12.1418042534       -2.0548146635  WZ3       1992            0.0000000000
     18030      6010  TIP3      H2            -25.2952903985       13.1693842534       -3.0683946635  WZ3       1992            0.0000000000
     18031      6011  TIP3      OH2           -35.0803503985        8.8457742534       -2.6500146635  WZ3       1994            0.0000000000
     18032      6011  TIP3      H1            -35.0159403985        8.0517342534       -2.1193746635  WZ3       1994            0.0000000000
     18033      6011  TIP3      H2            -34.4274303985        8.7270542534       -3.3398146635  WZ3       1994            0.0000000000
     18034      6012  TIP3      OH2           -32.7661103985        8.4720142534       14.6501653365  WZ3       1995            0.0000000000
     18035      6012  TIP3      H1            -33.0947303985        8.7428242534       13.7929053365  WZ3       1995            0.0000000000
     18036      6012  TIP3      H2            -32.6142903985        7.5309942534       14.5626653365  WZ3       1995            0.0000000000
     18037      6013  TIP3      OH2           -29.7280103985        9.8929442534       -2.9142146635  WZ3       1996            0.0000000000
     18038      6013  TIP3      H1            -29.9966003985       10.0731542534       -2.0133246635  WZ3       1996            0.0000000000
     18039      6013  TIP3      H2            -29.9344503985        8.9675642534       -3.0456346635  WZ3       1996            0.0000000000
     18040      6014  TIP3      OH2           -27.0315903985        8.3877442534       12.0333953365  WZ3       1997            0.0000000000
     18041      6014  TIP3      H1            -26.2861103985        8.9761142534       11.9137953365  WZ3       1997            0.0000000000
     18042      6014  TIP3      H2            -27.7889103985        8.9697142534       12.0967053365  WZ3       1997            0.0000000000
     18043      6015  TIP3      OH2           -33.9309703985        6.8183942534       -0.3442146635  WZ3       1999            0.0000000000
     18044      6015  TIP3      H1            -34.3907703985        6.3342242534        0.3416353365  WZ3       1999            0.0000000000
     18045      6015  TIP3      H2            -33.6761003985        6.1499342534       -0.9801646635  WZ3       1999            0.0000000000
     18046      6016  TIP3      OH2           -34.6420403985        4.7111042534       12.0117453365  WZ3       2000            0.0000000000
     18047      6016  TIP3      H1            -35.2604303985        5.3857642534       12.2922153365  WZ3       2000            0.0000000000
     18048      6016  TIP3      H2            -34.2979203985        5.0324942534       11.1783653365  WZ3       2000            0.0000000000
     18049      6017  TIP3      OH2           -32.8599303985        5.0615742534       -2.0818946635  WZ3       2001            0.0000000000
     18050      6017  TIP3      H1            -33.0404303985        4.9066942534       -3.0090646635  WZ3       2001            0.0000000000
     18051      6017  TIP3      H2            -31.9098803985        5.1694442534       -2.0371046635  WZ3       2001            0.0000000000
     18052      6018  TIP3      OH2           -29.6222203985        7.1826342534       15.2892253365  WZ3       2002            0.0000000000
     18053      6018  TIP3      H1            -28.6691003985        7.2665442534       15.2618253365  WZ3       2002            0.0000000000
     18054      6018  TIP3      H2            -29.7827603985        6.4708142534       15.9087153365  WZ3       2002            0.0000000000
     18055      6019  TIP3      OH2           -23.4701003985        7.4159942534       -2.6360846635  WZ3       2003            0.0000000000
     18056      6019  TIP3      H1            -23.7436203985        6.9915442534       -3.4492546635  WZ3       2003            0.0000000000
     18057      6019  TIP3      H2            -23.4306903985        8.3474442534       -2.8530446635  WZ3       2003            0.0000000000
     18058      6020  TIP3      OH2           -34.3026703985        2.0661842534       13.0940553365  WZ3       2004            0.0000000000
     18059      6020  TIP3      H1            -34.1525803985        1.3373142534       12.4920253365  WZ3       2004            0.0000000000
     18060      6020  TIP3      H2            -34.3004303985        2.8433542534       12.5352753365  WZ3       2004            0.0000000000
     18061      6021  TIP3      OH2           -33.8901003985        0.4357642534       10.5867953365  WZ3       2005            0.0000000000
     18062      6021  TIP3      H1            -33.3543503985        0.8874342534        9.9347253365  WZ3       2005            0.0000000000
     18063      6021  TIP3      H2            -34.7421403985        0.3277442534       10.1642053365  WZ3       2005            0.0000000000
     18064      6022  TIP3      OH2           -32.3082603985        5.8753842534       10.8263153365  WZ3       2006            0.0000000000
     18065      6022  TIP3      H1            -31.5577803985        5.7191342534       10.2530953365  WZ3       2006            0.0000000000
     18066      6022  TIP3      H2            -32.6474303985        6.7270442534       10.5508653365  WZ3       2006            0.0000000000
     18067      6023  TIP3      OH2           -27.8926403985        3.6905642534       15.8548453365  WZ3       2007            0.0000000000
     18068      6023  TIP3      H1            -27.7005103985        2.7595042534       15.7432953365  WZ3       2007            0.0000000000
     18069      6023  TIP3      H2            -27.0350103985        4.1155142534       15.8443853365  WZ3       2007            0.0000000000
     18070      6024  TIP3      OH2           -26.5759203985        6.4790842534       13.9321153365  WZ3       2008            0.0000000000
     18071      6024  TIP3      H1            -26.8574203985        7.1885442534       13.3544953365  WZ3       2008            0.0000000000
     18072      6024  TIP3      H2            -25.6334903985        6.4063842534       13.7812353365  WZ3       2008            0.0000000000
     18073      6025  TIP3      OH2           -35.8240403985        3.2645342534       15.0056153365  WZ3       2009            0.0000000000
     18074      6025  TIP3      H1            -36.5911403985        2.7320142534       14.7953753365  WZ3       2009            0.0000000000
     18075      6025  TIP3      H2            -35.1451403985        2.9545742534       14.4062453365  WZ3       2009            0.0000000000
     18076      6026  TIP3      OH2           -33.0845503985       -2.1076657466       11.0181553365  WZ3       2010            0.0000000000
     18077      6026  TIP3      H1            -33.1825903985       -1.1613457466       10.9127753365  WZ3       2010            0.0000000000
     18078      6026  TIP3      H2            -33.8269303985       -2.4802857466       10.5425053365  WZ3       2010            0.0000000000
     18079      6027  TIP3      OH2           -31.8205003985        2.2138742534       14.5819953365  WZ3       2011            0.0000000000
     18080      6027  TIP3      H1            -32.0559603985        1.9945442534       15.4834853365  WZ3       2011            0.0000000000
     18081      6027  TIP3      H2            -32.6038103985        2.0069942534       14.0722453365  WZ3       2011            0.0000000000
     18082      6028  TIP3      OH2           -29.1048403985        1.3412242534       13.6573453365  WZ3       2012            0.0000000000
     18083      6028  TIP3      H1            -30.0523003985        1.3731942534       13.7896753365  WZ3       2012            0.0000000000
     18084      6028  TIP3      H2            -28.7921703985        0.7159342534       14.3111653365  WZ3       2012            0.0000000000
     18085      6029  TIP3      OH2           -27.4706903985       -0.0246657466       15.6625353365  WZ3       2013            0.0000000000
     18086      6029  TIP3      H1            -27.5675103985       -0.9769357466       15.6567253365  WZ3       2013            0.0000000000
     18087      6029  TIP3      H2            -27.7923803985        0.2440142534       16.5230853365  WZ3       2013            0.0000000000
     18088      6030  TIP3      OH2           -37.6437603985        1.1849142534       14.7100853365  WZ3       2014            0.0000000000
     18089      6030  TIP3      H1            -37.4320203985        0.4785242534       14.0998353365  WZ3       2014            0.0000000000
     18090      6030  TIP3      H2            -37.7550103985        0.7475142534       15.5542053365  WZ3       2014            0.0000000000
     18091      6031  TIP3      OH2           -32.8627403985       -2.8139257466       13.6894353365  WZ3       2015            0.0000000000
     18092      6031  TIP3      H1            -32.1509003985       -3.4537057466       13.6753453365  WZ3       2015            0.0000000000
     18093      6031  TIP3      H2            -32.9637003985       -2.5470957466       12.7757453365  WZ3       2015            0.0000000000
     18094      6032  TIP3      OH2           -32.5089903985       -1.1310857466       15.7430653365  WZ3       2016            0.0000000000
     18095      6032  TIP3      H1            -32.6407703985       -1.6067057466       14.9229153365  WZ3       2016            0.0000000000
     18096      6032  TIP3      H2            -33.1082503985       -0.3867257466       15.6877753365  WZ3       2016            0.0000000000
     18097      6033  TIP3      OH2           -32.9627603985       15.7519442534       -1.0805346635  WZ3       2017            0.0000000000
     18098      6033  TIP3      H1            -32.0296903985       15.9098142534       -0.9366946635  WZ3       2017            0.0000000000
     18099      6033  TIP3      H2            -33.2268803985       16.4272442534       -1.7053846635  WZ3       2017            0.0000000000
     18100      6034  TIP3      OH2           -22.3268103985       14.6715142534        8.2647653365  WZ3       2021            0.0000000000
     18101      6034  TIP3      H1            -22.3481403985       14.8563542534        9.2037053365  WZ3       2021            0.0000000000
     18102      6034  TIP3      H2            -21.6361903985       15.2399142534        7.9239053365  WZ3       2021            0.0000000000
     18103      6035  TIP3      OH2           -22.7635203985       14.2386242534       11.1866753365  WZ3       2022            0.0000000000
     18104      6035  TIP3      H1            -23.2506503985       13.5030342534       10.8154153365  WZ3       2022            0.0000000000
     18105      6035  TIP3      H2            -22.2142503985       13.8450142534       11.8646153365  WZ3       2022            0.0000000000
     18106      6036  TIP3      OH2           -24.3127903985       10.0284342534       15.8247053365  WZ3       2023            0.0000000000
     18107      6036  TIP3      H1            -25.1786803985        9.9234042534       16.2189353365  WZ3       2023            0.0000000000
     18108      6036  TIP3      H2            -23.9362003985       10.7867642534       16.2711753365  WZ3       2023            0.0000000000
     18109      6037  TIP3      OH2           -23.0118203985        8.2848042534        1.3389553365  WZ3       2024            0.0000000000
     18110      6037  TIP3      H1            -22.1616803985        8.7058942534        1.4661153365  WZ3       2024            0.0000000000
     18111      6037  TIP3      H2            -23.0063103985        7.5448142534        1.9460953365  WZ3       2024            0.0000000000
     18112      6038  TIP3      OH2           -22.6172603985        6.3385442534        3.1625253365  WZ3       2025            0.0000000000
     18113      6038  TIP3      H1            -23.3438003985        5.8588042534        3.5602853365  WZ3       2025            0.0000000000
     18114      6038  TIP3      H2            -22.0359303985        6.5440142534        3.8946853365  WZ3       2025            0.0000000000
     18115      6039  TIP3      OH2           -22.8581403985        9.1232942534        8.1102853365  WZ3       2026            0.0000000000
     18116      6039  TIP3      H1            -22.0247203985        8.7452942534        7.8296453365  WZ3       2026            0.0000000000
     18117      6039  TIP3      H2            -22.7461103985       10.0664142534        7.9911953365  WZ3       2026            0.0000000000
     18118      6040  TIP3      OH2           -24.3719103985       12.0010442534       10.4171253365  WZ3       2027            0.0000000000
     18119      6040  TIP3      H1            -25.0193803985       12.3261942534       11.0426453365  WZ3       2027            0.0000000000
     18120      6040  TIP3      H2            -24.8895103985       11.5608142534        9.7429553365  WZ3       2027            0.0000000000
     18121      6041  TIP3      OH2           -22.3489503985        6.2393942534       -0.4463446635  WZ3       2028            0.0000000000
     18122      6041  TIP3      H1            -22.8708403985        6.5958042534       -1.1652546635  WZ3       2028            0.0000000000
     18123      6041  TIP3      H2            -22.3820303985        6.9141742534        0.2317453365  WZ3       2028            0.0000000000
     18124      6042  TIP3      OH2           -24.0000503985        3.4789542534       -1.8956346635  WZ3       2029            0.0000000000
     18125      6042  TIP3      H1            -23.9036103985        4.1456542534       -2.5756646635  WZ3       2029            0.0000000000
     18126      6042  TIP3      H2            -24.1400903985        2.6635842534       -2.3770846635  WZ3       2029            0.0000000000
     18127      6043  TIP3      OH2           -24.8305803985        4.8591942534        3.7253953365  WZ3       2030            0.0000000000
     18128      6043  TIP3      H1            -24.9807003985        3.9140542534        3.7051753365  WZ3       2030            0.0000000000
     18129      6043  TIP3      H2            -25.1841303985        5.1403342534        4.5693053365  WZ3       2030            0.0000000000
     18130      6044  TIP3      OH2           -23.9742903985        6.8295242534       13.3642253365  WZ3       2032            0.0000000000
     18131      6044  TIP3      H1            -23.3915603985        6.0947542534       13.5559453365  WZ3       2032            0.0000000000
     18132      6044  TIP3      H2            -23.4103603985        7.6015542534       13.4108053365  WZ3       2032            0.0000000000
     18133      6045  TIP3      OH2           -22.4775803985        4.7321042534       14.0487653365  WZ3       2033            0.0000000000
     18134      6045  TIP3      H1            -23.3409103985        4.3533142534       13.8832353365  WZ3       2033            0.0000000000
     18135      6045  TIP3      H2            -21.8732103985        3.9935842534       13.9743453365  WZ3       2033            0.0000000000
     18136      6046  TIP3      OH2           -24.7526703985        0.8869342534       -2.7780846635  WZ3       2034            0.0000000000
     18137      6046  TIP3      H1            -24.1420903985        0.5156142534       -2.1412646635  WZ3       2034            0.0000000000
     18138      6046  TIP3      H2            -25.5895203985        0.4656242534       -2.5820846635  WZ3       2034            0.0000000000
     18139      6047  TIP3      OH2           -25.1201003985        2.4417742534        2.1879053365  WZ3       2035            0.0000000000
     18140      6047  TIP3      H1            -24.8403903985        1.5348142534        2.3120753365  WZ3       2035            0.0000000000
     18141      6047  TIP3      H2            -24.3609303985        2.8759242534        1.7988253365  WZ3       2035            0.0000000000
     18142      6048  TIP3      OH2           -24.5082703985        3.0235142534        7.6237953365  WZ3       2036            0.0000000000
     18143      6048  TIP3      H1            -23.5754703985        3.2355042534        7.5893953365  WZ3       2036            0.0000000000
     18144      6048  TIP3      H2            -24.7435203985        3.1247242534        8.5460953365  WZ3       2036            0.0000000000
     18145      6049  TIP3      OH2           -24.4790803985        3.7600442534       10.3997353365  WZ3       2037            0.0000000000
     18146      6049  TIP3      H1            -25.3219503985        4.0280842534       10.7657153365  WZ3       2037            0.0000000000
     18147      6049  TIP3      H2            -24.0366503985        4.5822342534       10.1888453365  WZ3       2037            0.0000000000
     18148      6050  TIP3      OH2           -22.1959203985       -2.2599357466       15.7532353365  WZ3       2039            0.0000000000
     18149      6050  TIP3      H1            -21.8462203985       -2.9135857466       15.1477053365  WZ3       2039            0.0000000000
     18150      6050  TIP3      H2            -22.0489703985       -1.4225257466       15.3134953365  WZ3       2039            0.0000000000
     18151      6051  TIP3      OH2           -24.5066203985       -0.2952957466        2.2361053365  WZ3       2040            0.0000000000
     18152      6051  TIP3      H1            -24.3241203985       -0.7441457466        3.0616053365  WZ3       2040            0.0000000000
     18153      6051  TIP3      H2            -25.1063303985       -0.8798557466        1.7725653365  WZ3       2040            0.0000000000
     18154      6052  TIP3      OH2           -38.9766103985        0.5200742534        6.7679453365  WZ3       2041            0.0000000000
     18155      6052  TIP3      H1            -38.5314503985       -0.2716757466        7.0699153365  WZ3       2041            0.0000000000
     18156      6052  TIP3      H2            -38.5103103985        1.2365942534        7.1985053365  WZ3       2041            0.0000000000
     18157      6053  TIP3      OH2           -22.6762003985       -0.1504757466       14.1023653365  WZ3       2043            0.0000000000
     18158      6053  TIP3      H1            -23.5936303985        0.1202342534       14.0667153365  WZ3       2043            0.0000000000
     18159      6053  TIP3      H2            -22.5532603985       -0.6856357466       13.3183353365  WZ3       2043            0.0000000000
     18160      6054  TIP3      OH2           -22.6400003985       -0.2274857466       -1.2358646635  WZ3       2044            0.0000000000
     18161      6054  TIP3      H1            -22.2277403985       -0.9489157466       -1.7110646635  WZ3       2044            0.0000000000
     18162      6054  TIP3      H2            -21.9583503985        0.4419742534       -1.1774346635  WZ3       2044            0.0000000000
     18163      6055  TIP3      OH2           -25.5882103985       14.7614542534        3.8369453365  WZ3       2046            0.0000000000
     18164      6055  TIP3      H1            -24.9359203985       14.4136642534        3.2288553365  WZ3       2046            0.0000000000
     18165      6055  TIP3      H2            -25.0778303985       15.2497742534        4.4829153365  WZ3       2046            0.0000000000
     18166      6056  TIP3      OH2           -30.9380303985       14.0637142534       13.5978053365  WZ3       2050            0.0000000000
     18167      6056  TIP3      H1            -30.7532803985       13.7303242534       14.4758353365  WZ3       2050            0.0000000000
     18168      6056  TIP3      H2            -30.0915803985       14.3735742534       13.2757253365  WZ3       2050            0.0000000000
     18169      6057  TIP3      OH2           -28.5929903985       15.3496042534       12.8419453365  WZ3       2051            0.0000000000
     18170      6057  TIP3      H1            -27.9161003985       14.7168342534       12.6018653365  WZ3       2051            0.0000000000
     18171      6057  TIP3      H2            -28.2711103985       15.7506542534       13.6492753365  WZ3       2051            0.0000000000
     18172      6058  TIP3      OH2           -23.6756103985       -2.0608457466       11.9214453365  WZ3       2052            0.0000000000
     18173      6058  TIP3      H1            -24.4882603985       -1.7358157466       11.5339153365  WZ3       2052            0.0000000000
     18174      6058  TIP3      H2            -23.4427603985       -2.8209957466       11.3883553365  WZ3       2052            0.0000000000
     18175      6059  TIP3      OH2           -30.6696803985       15.4093842534        8.8912853365  WZ3       2055            0.0000000000
     18176      6059  TIP3      H1            -31.1262803985       15.9383542534        8.2371253365  WZ3       2055            0.0000000000
     18177      6059  TIP3      H2            -30.5068803985       16.0125242534        9.6165153365  WZ3       2055            0.0000000000
     18178      6060  TIP3      OH2           -28.3420503985       14.2873442534        9.8363153365  WZ3       2056            0.0000000000
     18179      6060  TIP3      H1            -29.2466803985       14.4523642534        9.5705253365  WZ3       2056            0.0000000000
     18180      6060  TIP3      H2            -27.9131903985       15.1405642534        9.7706553365  WZ3       2056            0.0000000000
     18181      6061  TIP3      OH2           -25.7378603985       15.8572542534       10.1310953365  WZ3       2057            0.0000000000
     18182      6061  TIP3      H1            -25.9196603985       16.7731442534        9.9205853365  WZ3       2057            0.0000000000
     18183      6061  TIP3      H2            -25.5610803985       15.4469642534        9.2845553365  WZ3       2057            0.0000000000
     18184      6062  TIP3      OH2           -33.7541303985       13.7241542534        7.0999353365  WZ3       2060            0.0000000000
     18185      6062  TIP3      H1            -33.5415603985       12.8360542534        6.8130253365  WZ3       2060            0.0000000000
     18186      6062  TIP3      H2            -33.6896203985       13.6899242534        8.0543353365  WZ3       2060            0.0000000000
     18187      6063  TIP3      OH2           -30.2457603985       -0.6117857466        6.2442653365  WZ3       2061            0.0000000000
     18188      6063  TIP3      H1            -30.9200803985       -1.2412257466        6.4998453365  WZ3       2061            0.0000000000
     18189      6063  TIP3      H2            -29.6818403985       -1.0958957466        5.6410553365  WZ3       2061            0.0000000000
     18190      6064  TIP3      OH2           -25.1030403985       -2.5043857466        6.3569753365  WZ3       2062            0.0000000000
     18191      6064  TIP3      H1            -24.4992803985       -1.9568457466        5.8550753365  WZ3       2062            0.0000000000
     18192      6064  TIP3      H2            -25.9728403985       -2.1853457466        6.1163853365  WZ3       2062            0.0000000000
     18193      6065  TIP3      OH2           -23.3760003985       -1.3655157466        4.6900653365  WZ3       2063            0.0000000000
     18194      6065  TIP3      H1            -22.7642503985       -1.8799457466        4.1634253365  WZ3       2063            0.0000000000
     18195      6065  TIP3      H2            -22.9936603985       -0.4883057466        4.7135053365  WZ3       2063            0.0000000000
     18196      6066  TIP3      OH2           -37.9190103985       -1.9777557466        4.0662553365  WZ3       2064            0.0000000000
     18197      6066  TIP3      H1            -38.6960303985       -2.2122657466        3.5588453365  WZ3       2064            0.0000000000
     18198      6066  TIP3      H2            -37.3886503985       -2.7745457466        4.0750553365  WZ3       2064            0.0000000000
     18199      6067  TIP3      OH2           -39.0826703985       -2.1799457466       -0.1301346635  WZ3       2065            0.0000000000
     18200      6067  TIP3      H1            -38.6436003985       -1.5688957466       -0.7217846635  WZ3       2065            0.0000000000
     18201      6067  TIP3      H2            -39.7164303985       -1.6415357466        0.3438653365  WZ3       2065            0.0000000000
     18202      6068  TIP3      OH2           -33.3397503985       -2.0510457466        3.8795653365  WZ3       2066            0.0000000000
     18203      6068  TIP3      H1            -32.4654103985       -1.6626157466        3.8499953365  WZ3       2066            0.0000000000
     18204      6068  TIP3      H2            -33.4756703985       -2.2662657466        4.8022853365  WZ3       2066            0.0000000000
     18205      6069  TIP3      OH2           -27.7829103985       -2.0210657466        5.5287353365  WZ3       2067            0.0000000000
     18206      6069  TIP3      H1            -27.7067503985       -1.9259057466        4.5793353365  WZ3       2067            0.0000000000
     18207      6069  TIP3      H2            -28.0579903985       -2.9287757466        5.6576453365  WZ3       2067            0.0000000000
     18208      6070  TIP3      OH2           -26.4296503985       -1.9952857466        1.2212353365  WZ3       2068            0.0000000000
     18209      6070  TIP3      H1            -27.1325403985       -1.3803657466        1.0113753365  WZ3       2068            0.0000000000
     18210      6070  TIP3      H2            -26.8745103985       -2.8326157466        1.3523253365  WZ3       2068            0.0000000000
     18211      6071  TIP3      OH2           -37.2217603985       -0.2637957466       -1.6877246635  WZ3       2070            0.0000000000
     18212      6071  TIP3      H1            -36.7304203985       -0.8935557466       -2.2151746635  WZ3       2070            0.0000000000
     18213      6071  TIP3      H2            -36.5981303985        0.0321442534       -1.0246046635  WZ3       2070            0.0000000000
     18214      6072  TIP3      OH2           -32.1957503985        0.0293542534        0.7693253365  WZ3       2071            0.0000000000
     18215      6072  TIP3      H1            -32.0176203985       -0.6173257466        1.4521853365  WZ3       2071            0.0000000000
     18216      6072  TIP3      H2            -32.2491303985        0.8631242534        1.2364353365  WZ3       2071            0.0000000000
     18217      6073  TIP3      OH2           -30.3173703985       14.9777642534       -0.8350046635  WZ3       2072            0.0000000000
     18218      6073  TIP3      H1            -29.4513503985       15.3445042534       -1.0131846635  WZ3       2072            0.0000000000
     18219      6073  TIP3      H2            -30.5640903985       14.5385642534       -1.6489246635  WZ3       2072            0.0000000000
     18220      6074  TIP3      OH2           -23.6084103985       14.5407942534        1.8441053365  WZ3       2073            0.0000000000
     18221      6074  TIP3      H1            -23.8027003985       13.7930042534        1.2790653365  WZ3       2073            0.0000000000
     18222      6074  TIP3      H2            -23.6474003985       15.2988042534        1.2608953365  WZ3       2073            0.0000000000
     18223      6075  TIP3      OH2           -37.9612103985       -1.4635657466       13.5838753365  WZ3       2074            0.0000000000
     18224      6075  TIP3      H1            -38.3273903985       -2.2293057466       14.0263453365  WZ3       2074            0.0000000000
     18225      6075  TIP3      H2            -37.0483603985       -1.4345457466       13.8703853365  WZ3       2074            0.0000000000
     18226      6076  TIP3      OH2           -35.9881303985       -2.1131257466       15.1195853365  WZ3       2075            0.0000000000
     18227      6076  TIP3      H1            -35.0897703985       -2.3871057466       14.9349253365  WZ3       2075            0.0000000000
     18228      6076  TIP3      H2            -36.3748203985       -2.8555257466       15.5838453365  WZ3       2075            0.0000000000
     18229      6077  TIP3      OH2           -27.5669003985       -2.7805957466       15.3018653365  WZ3       2077            0.0000000000
     18230      6077  TIP3      H1            -27.4901803985       -3.2065257466       16.1556353365  WZ3       2077            0.0000000000
     18231      6077  TIP3      H2            -26.6732403985       -2.7671257466       14.9592153365  WZ3       2077            0.0000000000
     18232      6078  TIP3      OH2           -24.3907903985       13.2920342534       13.9942853365  WZ3       2078            0.0000000000
     18233      6078  TIP3      H1            -25.1726003985       13.1058342534       13.4743453365  WZ3       2078            0.0000000000
     18234      6078  TIP3      H2            -24.4628003985       14.2214642534       14.2115353365  WZ3       2078            0.0000000000
     18235      6079  TIP3      OH2            -9.9847503985        7.1784742534        4.0250053365  WZ3       2079            0.0000000000
     18236      6079  TIP3      H1             -9.8956403985        8.1222942534        3.8927153365  WZ3       2079            0.0000000000
     18237      6079  TIP3      H2            -10.6229903985        6.9031142534        3.3669453365  WZ3       2079            0.0000000000
     18238      6080  TIP3      OH2           -11.0516203985        6.4335442534        7.4438253365  WZ3       2080            0.0000000000
     18239      6080  TIP3      H1            -11.0898703985        5.7871742534        8.1487853365  WZ3       2080            0.0000000000
     18240      6080  TIP3      H2            -11.3739703985        5.9669842534        6.6726953365  WZ3       2080            0.0000000000
     18241      6081  TIP3      OH2           -18.6831203985        6.0477542534        9.0368153365  WZ3       2081            0.0000000000
     18242      6081  TIP3      H1            -18.6419103985        5.4220842534        9.7600553365  WZ3       2081            0.0000000000
     18243      6081  TIP3      H2            -17.9803503985        6.6716142534        9.2188553365  WZ3       2081            0.0000000000
     18244      6082  TIP3      OH2            -7.3456003985        9.3725842534        5.7453353365  WZ3       2082            0.0000000000
     18245      6082  TIP3      H1             -7.7863303985        8.6521842534        6.1958953365  WZ3       2082            0.0000000000
     18246      6082  TIP3      H2             -7.3586303985       10.0933042534        6.3751053365  WZ3       2082            0.0000000000
     18247      6083  TIP3      OH2           -17.7598103985       10.4976442534        7.5717253365  WZ3       2083            0.0000000000
     18248      6083  TIP3      H1            -18.1292903985        9.6956942534        7.2021553365  WZ3       2083            0.0000000000
     18249      6083  TIP3      H2            -16.8187003985       10.3291342534        7.6180653365  WZ3       2083            0.0000000000
     18250      6084  TIP3      OH2           -21.1497603985        4.1579042534        2.9646053365  WZ3       2084            0.0000000000
     18251      6084  TIP3      H1            -21.5974203985        5.0037742534        2.9462553365  WZ3       2084            0.0000000000
     18252      6084  TIP3      H2            -21.7106403985        3.5783242534        2.4491153365  WZ3       2084            0.0000000000
     18253      6085  TIP3      OH2           -20.4391503985        6.3198642534        5.0904053365  WZ3       2085            0.0000000000
     18254      6085  TIP3      H1            -20.2258003985        5.5500242534        5.6177053365  WZ3       2085            0.0000000000
     18255      6085  TIP3      H2            -19.7013903985        6.4095342534        4.4871653365  WZ3       2085            0.0000000000
     18256      6086  TIP3      OH2           -10.2340503985       14.4767542534        5.9573753365  WZ3       2086            0.0000000000
     18257      6086  TIP3      H1             -9.6144103985       13.8002242534        5.6842953365  WZ3       2086            0.0000000000
     18258      6086  TIP3      H2            -10.4423103985       14.2588342534        6.8658653365  WZ3       2086            0.0000000000
     18259      6087  TIP3      OH2           -12.6621803985        8.8656842534        7.8499253365  WZ3       2087            0.0000000000
     18260      6087  TIP3      H1            -12.3583903985        8.1798242534        7.2553353365  WZ3       2087            0.0000000000
     18261      6087  TIP3      H2            -11.9407803985        8.9845542534        8.4677253365  WZ3       2087            0.0000000000
     18262      6088  TIP3      OH2            -3.9992003985        0.4672142534        8.7105453365  WZ3       2088            0.0000000000
     18263      6088  TIP3      H1             -3.9499803985        1.0773342534        9.4464553365  WZ3       2088            0.0000000000
     18264      6088  TIP3      H2             -3.5736903985        0.9283042534        7.9876553365  WZ3       2088            0.0000000000
     18265      6089  TIP3      OH2            -9.5214803985        3.2599242534        8.1774053365  WZ3       2089            0.0000000000
     18266      6089  TIP3      H1             -9.3788903985        2.3136242534        8.1975653365  WZ3       2089            0.0000000000
     18267      6089  TIP3      H2             -9.6275803985        3.4669042534        7.2488953365  WZ3       2089            0.0000000000
     18268      6090  TIP3      OH2           -16.3666503985        1.3615642534        5.4498853365  WZ3       2090            0.0000000000
     18269      6090  TIP3      H1            -16.3235403985        2.2214142534        5.0315153365  WZ3       2090            0.0000000000
     18270      6090  TIP3      H2            -16.8242403985        0.8090342534        4.8162053365  WZ3       2090            0.0000000000
     18271      6091  TIP3      OH2            -8.6443803985        1.4921242534        3.8507153365  WZ3       2091            0.0000000000
     18272      6091  TIP3      H1             -7.9979503985        1.1634442534        4.4754753365  WZ3       2091            0.0000000000
     18273      6091  TIP3      H2             -8.1344403985        2.0100242534        3.2278553365  WZ3       2091            0.0000000000
     18274      6092  TIP3      OH2           -19.7465003985        3.7581442534        6.2120253365  WZ3       2092            0.0000000000
     18275      6092  TIP3      H1            -19.0928403985        3.2083142534        6.6440353365  WZ3       2092            0.0000000000
     18276      6092  TIP3      H2            -19.7225703985        3.4840442534        5.2952253365  WZ3       2092            0.0000000000
     18277      6093  TIP3      OH2           -14.5900503985        5.3082742534        5.4271753365  WZ3       2093            0.0000000000
     18278      6093  TIP3      H1            -13.9739503985        4.7818142534        5.9365753365  WZ3       2093            0.0000000000
     18279      6093  TIP3      H2            -15.1761703985        4.6681442534        5.0235353365  WZ3       2093            0.0000000000
     18280      6094  TIP3      OH2            -3.6077403985        1.9451342534       10.9465253365  WZ3       2094            0.0000000000
     18281      6094  TIP3      H1             -4.2962803985        2.6032042534       10.8511853365  WZ3       2094            0.0000000000
     18282      6094  TIP3      H2             -3.5922803985        1.7479242534       11.8830653365  WZ3       2094            0.0000000000
     18283      6095  TIP3      OH2           -17.5564603985        0.2794042534        9.5239653365  WZ3       2095            0.0000000000
     18284      6095  TIP3      H1            -17.7752903985        0.8094642534        8.7575653365  WZ3       2095            0.0000000000
     18285      6095  TIP3      H2            -18.2243703985        0.5059542534       10.1711053365  WZ3       2095            0.0000000000
     18286      6096  TIP3      OH2           -10.1874803985        9.7795142534        3.0678753365  WZ3       2096            0.0000000000
     18287      6096  TIP3      H1            -10.4829703985        9.4567442534        2.2165653365  WZ3       2096            0.0000000000
     18288      6096  TIP3      H2            -10.5117003985       10.6791842534        3.1091353365  WZ3       2096            0.0000000000
     18289      6097  TIP3      OH2           -14.9873203985        7.9549742534        9.8113353365  WZ3       2097            0.0000000000
     18290      6097  TIP3      H1            -15.7274103985        8.5531242534        9.9148553365  WZ3       2097            0.0000000000
     18291      6097  TIP3      H2            -14.2733703985        8.5089342534        9.4956953365  WZ3       2097            0.0000000000
     18292      6098  TIP3      OH2            -6.8805403985        0.7830542534        5.8313053365  WZ3       2098            0.0000000000
     18293      6098  TIP3      H1             -7.0957403985        0.0173942534        6.3639053365  WZ3       2098            0.0000000000
     18294      6098  TIP3      H2             -6.2248003985        1.2555142534        6.3441553365  WZ3       2098            0.0000000000
     18295      6099  TIP3      OH2           -17.9627303985        2.1715842534        7.4761853365  WZ3       2099            0.0000000000
     18296      6099  TIP3      H1            -17.3491003985        2.8043442534        7.8494253365  WZ3       2099            0.0000000000
     18297      6099  TIP3      H2            -17.4506603985        1.6990842534        6.8198753365  WZ3       2099            0.0000000000
     18298      6100  TIP3      OH2           -16.5798903985        9.9192742534       10.5984853365  WZ3       2100            0.0000000000
     18299      6100  TIP3      H1            -16.5851303985       10.7986242534       10.2204153365  WZ3       2100            0.0000000000
     18300      6100  TIP3      H2            -17.4334803985        9.8356842534       11.0234753365  WZ3       2100            0.0000000000
     18301      6101  TIP3      OH2           -20.4588003985        9.5900642534        1.3804153365  WZ3       2101            0.0000000000
     18302      6101  TIP3      H1            -20.7307103985        9.8191642534        0.4917053365  WZ3       2101            0.0000000000
     18303      6101  TIP3      H2            -20.4132303985       10.4279442534        1.8409453365  WZ3       2101            0.0000000000
     18304      6102  TIP3      OH2            -6.8338303985       11.2116542534        8.0932653365  WZ3       2102            0.0000000000
     18305      6102  TIP3      H1             -7.7754603985       11.2700442534        8.2549553365  WZ3       2102            0.0000000000
     18306      6102  TIP3      H2             -6.5572203985       12.1177042534        7.9562353365  WZ3       2102            0.0000000000
     18307      6103  TIP3      OH2            -6.5331303985       -0.5018157466        9.5106553365  WZ3       2103            0.0000000000
     18308      6103  TIP3      H1             -7.2692103985        0.1088942534        9.4727853365  WZ3       2103            0.0000000000
     18309      6103  TIP3      H2             -5.8497303985       -0.0869157466        8.9842953365  WZ3       2103            0.0000000000
     18310      6104  TIP3      OH2           -13.5299903985       -2.4150857466        6.9764553365  WZ3       2104            0.0000000000
     18311      6104  TIP3      H1            -13.6475703985       -3.3634857466        6.9222853365  WZ3       2104            0.0000000000
     18312      6104  TIP3      H2            -14.3849803985       -2.0824757466        7.2495653365  WZ3       2104            0.0000000000
     18313      6105  TIP3      OH2            -8.5817103985       12.9930042534        4.7184253365  WZ3       2105            0.0000000000
     18314      6105  TIP3      H1             -8.1564803985       12.2857942534        4.2333853365  WZ3       2105            0.0000000000
     18315      6105  TIP3      H2             -8.2647103985       13.7942742534        4.3016453365  WZ3       2105            0.0000000000
     18316      6106  TIP3      OH2            -7.4220603985       10.8938542534        3.2270853365  WZ3       2106            0.0000000000
     18317      6106  TIP3      H1             -7.6795803985       10.2038642534        2.6156753365  WZ3       2106            0.0000000000
     18318      6106  TIP3      H2             -7.3509803985       10.4509742534        4.0726753365  WZ3       2106            0.0000000000
     18319      6107  TIP3      OH2            -5.7360403985        9.4605242534       11.7044353365  WZ3       2107            0.0000000000
     18320      6107  TIP3      H1             -5.5964103985        8.8687742534       10.9651353365  WZ3       2107            0.0000000000
     18321      6107  TIP3      H2             -5.5687603985       10.3331142534       11.3483153365  WZ3       2107            0.0000000000
     18322      6108  TIP3      OH2           -11.2635003985        6.4224742534        1.4770353365  WZ3       2108            0.0000000000
     18323      6108  TIP3      H1            -11.9749503985        6.9574442534        1.1250853365  WZ3       2108            0.0000000000
     18324      6108  TIP3      H2            -10.5725403985        6.4776842534        0.8169253365  WZ3       2108            0.0000000000
     18325      6109  TIP3      OH2           -11.2095803985        4.8799042534       -1.4844646635  WZ3       2109            0.0000000000
     18326      6109  TIP3      H1            -10.5085903985        4.9025942534       -0.8330646635  WZ3       2109            0.0000000000
     18327      6109  TIP3      H2            -10.9072903985        4.2518742534       -2.1405346635  WZ3       2109            0.0000000000
     18328      6110  TIP3      OH2            -3.8941103985        5.8003242534        9.7704753365  WZ3       2110            0.0000000000
     18329      6110  TIP3      H1             -4.5467003985        6.4948842534        9.8595653365  WZ3       2110            0.0000000000
     18330      6110  TIP3      H2             -3.4290803985        6.0104142534        8.9606353365  WZ3       2110            0.0000000000
     18331      6111  TIP3      OH2            -7.8577303985        6.6318042534        2.4286253365  WZ3       2111            0.0000000000
     18332      6111  TIP3      H1             -8.5896303985        6.8601742534        3.0016853365  WZ3       2111            0.0000000000
     18333      6111  TIP3      H2             -7.4105103985        5.9180742534        2.8833753365  WZ3       2111            0.0000000000
     18334      6112  TIP3      OH2            -7.9603803985        4.8060642534       11.4963253365  WZ3       2112            0.0000000000
     18335      6112  TIP3      H1             -7.8804703985        5.5695042534       12.0681753365  WZ3       2112            0.0000000000
     18336      6112  TIP3      H2             -8.5616103985        5.0853042534       10.8058353365  WZ3       2112            0.0000000000
     18337      6113  TIP3      OH2           -16.2123603985        7.2624242534        4.3111253365  WZ3       2113            0.0000000000
     18338      6113  TIP3      H1            -16.5428403985        6.8917642534        3.4928253365  WZ3       2113            0.0000000000
     18339      6113  TIP3      H2            -15.6239503985        6.5918242534        4.6579553365  WZ3       2113            0.0000000000
     18340      6114  TIP3      OH2           -14.8456103985       10.6904842534        6.9923453365  WZ3       2114            0.0000000000
     18341      6114  TIP3      H1            -14.9404803985       10.1117942534        6.2358053365  WZ3       2114            0.0000000000
     18342      6114  TIP3      H2            -14.1162503985       10.3190542534        7.4886253365  WZ3       2114            0.0000000000
     18343      6115  TIP3      OH2           -15.8458103985        6.0309842534        7.9446253365  WZ3       2115            0.0000000000
     18344      6115  TIP3      H1            -15.2805603985        6.1524042534        7.1817453365  WZ3       2115            0.0000000000
     18345      6115  TIP3      H2            -15.5269203985        6.6684842534        8.5834753365  WZ3       2115            0.0000000000
     18346      6116  TIP3      OH2            -9.5365903985       11.5341742534        8.6786753365  WZ3       2116            0.0000000000
     18347      6116  TIP3      H1             -9.7769303985       12.1964842534        9.3265953365  WZ3       2116            0.0000000000
     18348      6116  TIP3      H2             -9.7347703985       10.6996942534        9.1036353365  WZ3       2116            0.0000000000
     18349      6117  TIP3      OH2           -14.9657403985       10.4302542534       12.6618153365  WZ3       2117            0.0000000000
     18350      6117  TIP3      H1            -15.2769903985       11.2125742534       13.1171353365  WZ3       2117            0.0000000000
     18351      6117  TIP3      H2            -15.6157203985       10.2771642534       11.9760153365  WZ3       2117            0.0000000000
     18352      6118  TIP3      OH2            -8.9867803985        5.7940942534        0.1137453365  WZ3       2118            0.0000000000
     18353      6118  TIP3      H1             -8.4072303985        5.9441242534        0.8606353365  WZ3       2118            0.0000000000
     18354      6118  TIP3      H2             -8.5727803985        6.2648342534       -0.6096146635  WZ3       2118            0.0000000000
     18355      6119  TIP3      OH2           -18.0457503985        6.6283642534       11.8903853365  WZ3       2119            0.0000000000
     18356      6119  TIP3      H1            -17.9754303985        7.2790442534       12.5888853365  WZ3       2119            0.0000000000
     18357      6119  TIP3      H2            -18.9365303985        6.7311142534       11.5554753365  WZ3       2119            0.0000000000
     18358      6120  TIP3      OH2           -11.2602903985       12.5309442534        3.5490553365  WZ3       2120            0.0000000000
     18359      6120  TIP3      H1            -10.7865303985       12.8265742534        4.3264753365  WZ3       2120            0.0000000000
     18360      6120  TIP3      H2            -11.8233603985       13.2691042534        3.3160153365  WZ3       2120            0.0000000000
     18361      6121  TIP3      OH2           -16.7261503985       12.5017542534       13.4251953365  WZ3       2121            0.0000000000
     18362      6121  TIP3      H1            -16.7186203985       12.3657242534       12.4777453365  WZ3       2121            0.0000000000
     18363      6121  TIP3      H2            -17.6421103985       12.3845642534       13.6771953365  WZ3       2121            0.0000000000
     18364      6122  TIP3      OH2            -5.2879403985       -2.4558657466       -0.0732846635  WZ3       2122            0.0000000000
     18365      6122  TIP3      H1             -6.1878703985       -2.3169657466        0.2217753365  WZ3       2122            0.0000000000
     18366      6122  TIP3      H2             -5.0361003985       -1.6244057466       -0.4751146635  WZ3       2122            0.0000000000
     18367      6123  TIP3      OH2           -17.2220903985        6.3318542534        1.9004053365  WZ3       2123            0.0000000000
     18368      6123  TIP3      H1            -17.5139603985        7.1000242534        1.4095353365  WZ3       2123            0.0000000000
     18369      6123  TIP3      H2            -17.8965703985        5.6724742534        1.7375453365  WZ3       2123            0.0000000000
     18370      6124  TIP3      OH2            -4.0988003985       11.9103742534       -1.6968946635  WZ3       2124            0.0000000000
     18371      6124  TIP3      H1             -4.0254503985       12.8493942534       -1.5263646635  WZ3       2124            0.0000000000
     18372      6124  TIP3      H2             -3.1932903985       11.6052342534       -1.7531646635  WZ3       2124            0.0000000000
     18373      6125  TIP3      OH2           -21.1290803985        8.6947742534       10.7153853365  WZ3       2125            0.0000000000
     18374      6125  TIP3      H1            -21.6302403985        8.6667142534        9.9003553365  WZ3       2125            0.0000000000
     18375      6125  TIP3      H2            -21.1237103985        7.7890942534       11.0251153365  WZ3       2125            0.0000000000
     18376      6126  TIP3      OH2           -21.3788103985       11.4751542534        7.5994053365  WZ3       2126            0.0000000000
     18377      6126  TIP3      H1            -20.4327503985       11.3308542534        7.5803553365  WZ3       2126            0.0000000000
     18378      6126  TIP3      H2            -21.4911803985       12.2594342534        8.1365253365  WZ3       2126            0.0000000000
     18379      6127  TIP3      OH2            -3.1809603985       12.1411242534       13.2817753365  WZ3       2127            0.0000000000
     18380      6127  TIP3      H1             -3.2302803985       11.1859342534       13.2445353365  WZ3       2127            0.0000000000
     18381      6127  TIP3      H2             -4.0077303985       12.4086542534       13.6831553365  WZ3       2127            0.0000000000
     18382      6128  TIP3      OH2           -12.2025603985       11.7150442534       12.1579153365  WZ3       2128            0.0000000000
     18383      6128  TIP3      H1            -12.1151003985       12.5415042534       12.6328253365  WZ3       2128            0.0000000000
     18384      6128  TIP3      H2            -13.0660503985       11.3854242534       12.4068453365  WZ3       2128            0.0000000000
     18385      6129  TIP3      OH2           -11.7879803985       15.4874142534        1.9639753365  WZ3       2129            0.0000000000
     18386      6129  TIP3      H1            -11.8633803985       15.3661342534        1.0174953365  WZ3       2129            0.0000000000
     18387      6129  TIP3      H2            -11.7551103985       16.4366842534        2.0824353365  WZ3       2129            0.0000000000
     18388      6130  TIP3      OH2           -18.1346003985       14.2761142534        3.7448753365  WZ3       2130            0.0000000000
     18389      6130  TIP3      H1            -17.9825603985       13.9281542534        4.6235253365  WZ3       2130            0.0000000000
     18390      6130  TIP3      H2            -18.9855603985       13.9198442534        3.4895953365  WZ3       2130            0.0000000000
     18391      6131  TIP3      OH2            -8.6863803985       14.6414342534       -1.0337846635  WZ3       2131            0.0000000000
     18392      6131  TIP3      H1             -8.3115403985       13.8970442534       -1.5045246635  WZ3       2131            0.0000000000
     18393      6131  TIP3      H2             -8.6820103985       14.3714942534       -0.1154546635  WZ3       2131            0.0000000000
     18394      6132  TIP3      OH2            -9.0175703985       14.5671442534        1.7154353365  WZ3       2132            0.0000000000
     18395      6132  TIP3      H1             -9.9525903985       14.6673342534        1.8941353365  WZ3       2132            0.0000000000
     18396      6132  TIP3      H2             -8.7373803985       13.8577442534        2.2937553365  WZ3       2132            0.0000000000
     18397      6133  TIP3      OH2            -6.0289803985        3.6343742534       13.7619953365  WZ3       2133            0.0000000000
     18398      6133  TIP3      H1             -6.4363003985        4.1149342534       13.0413253365  WZ3       2133            0.0000000000
     18399      6133  TIP3      H2             -5.9884103985        2.7289742534       13.4540753365  WZ3       2133            0.0000000000
     18400      6134  TIP3      OH2           -18.8800303985       10.0183142534       11.7586653365  WZ3       2134            0.0000000000
     18401      6134  TIP3      H1            -18.6639003985        9.6568742534       12.6182453365  WZ3       2134            0.0000000000
     18402      6134  TIP3      H2            -19.7355603985        9.6436942534       11.5490153365  WZ3       2134            0.0000000000
     18403      6135  TIP3      OH2           -16.2612303985       -1.5116357466        7.7540853365  WZ3       2135            0.0000000000
     18404      6135  TIP3      H1            -17.1228603985       -1.5988157466        7.3463753365  WZ3       2135            0.0000000000
     18405      6135  TIP3      H2            -16.2836603985       -0.6556257466        8.1818453365  WZ3       2135            0.0000000000
     18406      6136  TIP3      OH2           -11.5984503985       -1.7895957466       11.1287853365  WZ3       2136            0.0000000000
     18407      6136  TIP3      H1            -11.1781403985       -2.2048857466       11.8818453365  WZ3       2136            0.0000000000
     18408      6136  TIP3      H2            -12.5314903985       -1.9682657466       11.2459853365  WZ3       2136            0.0000000000
     18409      6137  TIP3      OH2            -8.2719603985        1.9659242534       11.9822353365  WZ3       2137            0.0000000000
     18410      6137  TIP3      H1             -8.7860103985        1.8401442534       12.7798353365  WZ3       2137            0.0000000000
     18411      6137  TIP3      H2             -8.4274903985        2.8782342534       11.7378553365  WZ3       2137            0.0000000000
     18412      6138  TIP3      OH2            -7.5094703985        6.8269242534       -2.2564646635  WZ3       2138            0.0000000000
     18413      6138  TIP3      H1             -7.4673903985        6.6043142534       -3.1864646635  WZ3       2138            0.0000000000
     18414      6138  TIP3      H2             -6.6602603985        7.2256342534       -2.0664746635  WZ3       2138            0.0000000000
     18415      6139  TIP3      OH2           -11.9367203985        0.7027442534       -1.5861346635  WZ3       2139            0.0000000000
     18416      6139  TIP3      H1            -12.1902403985        0.7219042534       -0.6633246635  WZ3       2139            0.0000000000
     18417      6139  TIP3      H2            -12.1935103985       -0.1687157466       -1.8875146635  WZ3       2139            0.0000000000
     18418      6140  TIP3      OH2           -16.1702203985        3.4538142534        8.8491053365  WZ3       2140            0.0000000000
     18419      6140  TIP3      H1            -16.8120103985        3.4135442534        9.5581153365  WZ3       2140            0.0000000000
     18420      6140  TIP3      H2            -16.1330203985        4.3802842534        8.6114053365  WZ3       2140            0.0000000000
     18421      6141  TIP3      OH2           -16.1733103985        3.6748242534        3.7611053365  WZ3       2141            0.0000000000
     18422      6141  TIP3      H1            -17.0660203985        3.3344342534        3.7024853365  WZ3       2141            0.0000000000
     18423      6141  TIP3      H2            -15.7226503985        3.2979142534        3.0054253365  WZ3       2141            0.0000000000
     18424      6142  TIP3      OH2           -10.6377603985        4.0908542534        2.5781853365  WZ3       2142            0.0000000000
     18425      6142  TIP3      H1            -11.0467303985        4.9057142534        2.2866653365  WZ3       2142            0.0000000000
     18426      6142  TIP3      H2             -9.9171403985        3.9508642534        1.9638953365  WZ3       2142            0.0000000000
     18427      6143  TIP3      OH2           -11.5356003985        4.2664942534       14.0662553365  WZ3       2143            0.0000000000
     18428      6143  TIP3      H1            -12.0982203985        3.5616542534       14.3870353365  WZ3       2143            0.0000000000
     18429      6143  TIP3      H2            -10.7092603985        4.1456842534       14.5340153365  WZ3       2143            0.0000000000
     18430      6144  TIP3      OH2            -9.6329903985        3.5368942534        5.3921553365  WZ3       2144            0.0000000000
     18431      6144  TIP3      H1             -9.8285403985        4.1425742534        4.6772153365  WZ3       2144            0.0000000000
     18432      6144  TIP3      H2             -9.4517303985        2.7034142534        4.9577853365  WZ3       2144            0.0000000000
     18433      6145  TIP3      OH2           -18.4201703985        3.7741642534       10.7163053365  WZ3       2145            0.0000000000
     18434      6145  TIP3      H1            -18.4582303985        4.1743242534       11.5850153365  WZ3       2145            0.0000000000
     18435      6145  TIP3      H2            -18.9110603985        2.9574042534       10.8065953365  WZ3       2145            0.0000000000
     18436      6146  TIP3      OH2           -15.0544303985        1.1483942534       -2.4850946635  WZ3       2146            0.0000000000
     18437      6146  TIP3      H1            -15.4853603985        0.7034042534       -1.7553546635  WZ3       2146            0.0000000000
     18438      6146  TIP3      H2            -15.7725603985        1.5200242534       -2.9973446635  WZ3       2146            0.0000000000
     18439      6147  TIP3      OH2           -21.8120903985        0.8903442534        4.5667753365  WZ3       2147            0.0000000000
     18440      6147  TIP3      H1            -21.1813203985        0.8615542534        5.2861653365  WZ3       2147            0.0000000000
     18441      6147  TIP3      H2            -21.3626603985        0.4652142534        3.8363653365  WZ3       2147            0.0000000000
     18442      6148  TIP3      OH2           -20.5378803985        1.6365442534       -0.0091846635  WZ3       2148            0.0000000000
     18443      6148  TIP3      H1            -20.0637103985        2.2275342534       -0.5940946635  WZ3       2148            0.0000000000
     18444      6148  TIP3      H2            -21.2552403985        2.1668342534        0.3378253365  WZ3       2148            0.0000000000
     18445      6149  TIP3      OH2           -10.3690703985        5.1750242534       10.0633953365  WZ3       2149            0.0000000000
     18446      6149  TIP3      H1            -10.0455903985        4.5439942534        9.4204453365  WZ3       2149            0.0000000000
     18447      6149  TIP3      H2            -10.8091403985        4.6402442534       10.7241353365  WZ3       2149            0.0000000000
     18448      6150  TIP3      OH2           -13.5917803985        1.1025742534        4.8475153365  WZ3       2150            0.0000000000
     18449      6150  TIP3      H1            -14.5026703985        1.1592542534        5.1361153365  WZ3       2150            0.0000000000
     18450      6150  TIP3      H2            -13.0864903985        1.0421242534        5.6582353365  WZ3       2150            0.0000000000
     18451      6151  TIP3      OH2           -18.7634403985        2.7312042534        3.6742753365  WZ3       2151            0.0000000000
     18452      6151  TIP3      H1            -19.6526403985        2.8307542534        3.3342353365  WZ3       2151            0.0000000000
     18453      6151  TIP3      H2            -18.4669503985        1.8895042534        3.3280653365  WZ3       2151            0.0000000000
     18454      6152  TIP3      OH2           -15.1102603985        2.7314642534        1.3307353365  WZ3       2152            0.0000000000
     18455      6152  TIP3      H1            -14.1787103985        2.8604642534        1.5090453365  WZ3       2152            0.0000000000
     18456      6152  TIP3      H2            -15.3252303985        3.4008942534        0.6812053365  WZ3       2152            0.0000000000
     18457      6153  TIP3      OH2            -9.1865903985        0.3372042534        8.1116953365  WZ3       2153            0.0000000000
     18458      6153  TIP3      H1             -9.8634303985        0.4685142534        8.7756653365  WZ3       2153            0.0000000000
     18459      6153  TIP3      H2             -9.6721003985        0.1821542534        7.3014653365  WZ3       2153            0.0000000000
     18460      6154  TIP3      OH2           -16.4362403985        3.9256842534       -1.1026546635  WZ3       2154            0.0000000000
     18461      6154  TIP3      H1            -16.9787303985        3.5460642534       -1.7938946635  WZ3       2154            0.0000000000
     18462      6154  TIP3      H2            -15.6027503985        4.1201542534       -1.5312446635  WZ3       2154            0.0000000000
     18463      6155  TIP3      OH2            -5.8990803985       16.0087442534       14.3884553365  WZ3       2155            0.0000000000
     18464      6155  TIP3      H1             -5.6992103985       16.4329342534       13.5539853365  WZ3       2155            0.0000000000
     18465      6155  TIP3      H2             -5.2437103985       16.3525642534       14.9954953365  WZ3       2155            0.0000000000
     18466      6156  TIP3      OH2           -18.3011003985        8.4828742534       13.9965053365  WZ3       2156            0.0000000000
     18467      6156  TIP3      H1            -17.5688603985        8.7374642534       14.5579553365  WZ3       2156            0.0000000000
     18468      6156  TIP3      H2            -19.0812303985        8.6874142534       14.5120453365  WZ3       2156            0.0000000000
     18469      6157  TIP3      OH2           -12.2718103985        3.8898742534        6.7344753365  WZ3       2157            0.0000000000
     18470      6157  TIP3      H1            -11.7074703985        3.3435342534        6.1874353365  WZ3       2157            0.0000000000
     18471      6157  TIP3      H2            -12.4194703985        3.3680642534        7.5232353365  WZ3       2157            0.0000000000
     18472      6158  TIP3      OH2           -17.2698403985        0.0264842534        3.1529553365  WZ3       2158            0.0000000000
     18473      6158  TIP3      H1            -17.5868903985       -0.8759857466        3.1174953365  WZ3       2158            0.0000000000
     18474      6158  TIP3      H2            -16.4884303985        0.0282242534        2.6001153365  WZ3       2158            0.0000000000
     18475      6159  TIP3      OH2           -13.6452203985        2.2784842534        9.1485153365  WZ3       2159            0.0000000000
     18476      6159  TIP3      H1            -14.4806903985        2.7324342534        9.2587553365  WZ3       2159            0.0000000000
     18477      6159  TIP3      H2            -13.1211603985        2.5543342534        9.9005053365  WZ3       2159            0.0000000000
     18478      6160  TIP3      OH2           -13.1009603985        8.4912542534        0.8331553365  WZ3       2160            0.0000000000
     18479      6160  TIP3      H1            -13.8458603985        7.9837842534        0.5109453365  WZ3       2160            0.0000000000
     18480      6160  TIP3      H2            -13.2352403985        8.5400542534        1.7796353365  WZ3       2160            0.0000000000
     18481      6161  TIP3      OH2            -5.9510703985        7.6240742534        9.6199153365  WZ3       2161            0.0000000000
     18482      6161  TIP3      H1             -5.3091903985        8.0807042534        9.0761353365  WZ3       2161            0.0000000000
     18483      6161  TIP3      H2             -6.7813803985        7.7373142534        9.1573253365  WZ3       2161            0.0000000000
     18484      6162  TIP3      OH2            -9.2032803985        1.3052442534       -0.9675846635  WZ3       2162            0.0000000000
     18485      6162  TIP3      H1            -10.1418603985        1.4168042534       -1.1187046635  WZ3       2162            0.0000000000
     18486      6162  TIP3      H2             -8.9060703985        2.1619342534       -0.6610146635  WZ3       2162            0.0000000000
     18487      6163  TIP3      OH2           -11.5817503985        8.6755842534       12.0700653365  WZ3       2163            0.0000000000
     18488      6163  TIP3      H1            -11.9271403985        8.2938242534       12.8770253365  WZ3       2163            0.0000000000
     18489      6163  TIP3      H2            -11.7817403985        9.6089442534       12.1413553365  WZ3       2163            0.0000000000
     18490      6164  TIP3      OH2            -8.4849303985        3.1725142534        0.6931553365  WZ3       2164            0.0000000000
     18491      6164  TIP3      H1             -7.5930303985        3.0350142534        1.0122753365  WZ3       2164            0.0000000000
     18492      6164  TIP3      H2             -8.4285703985        3.9631242534        0.1565053365  WZ3       2164            0.0000000000
     18493      6165  TIP3      OH2           -17.9761303985        7.7862542534        6.6029453365  WZ3       2165            0.0000000000
     18494      6165  TIP3      H1            -17.2314103985        7.7838242534        6.0015953365  WZ3       2165            0.0000000000
     18495      6165  TIP3      H2            -17.8984703985        6.9626342534        7.0844553365  WZ3       2165            0.0000000000
     18496      6166  TIP3      OH2           -10.9755503985        9.9496842534       -0.1413846635  WZ3       2166            0.0000000000
     18497      6166  TIP3      H1            -11.2707103985       10.7764742534        0.2400953365  WZ3       2166            0.0000000000
     18498      6166  TIP3      H2            -11.6785503985        9.3303742534        0.0547553365  WZ3       2166            0.0000000000
     18499      6167  TIP3      OH2           -20.9681603985        6.2469442534       11.9177953365  WZ3       2167            0.0000000000
     18500      6167  TIP3      H1            -20.7453003985        5.8289042534       12.7495453365  WZ3       2167            0.0000000000
     18501      6167  TIP3      H2            -21.5701503985        5.6344442534       11.4950753365  WZ3       2167            0.0000000000
     18502      6168  TIP3      OH2           -13.9516703985        5.7639342534       14.1307653365  WZ3       2168            0.0000000000
     18503      6168  TIP3      H1            -14.2475903985        5.5982342534       13.2356753365  WZ3       2168            0.0000000000
     18504      6168  TIP3      H2            -13.0201503985        5.5439642534       14.1201553365  WZ3       2168            0.0000000000
     18505      6169  TIP3      OH2            -9.3313903985       11.1371342534       12.0205653365  WZ3       2169            0.0000000000
     18506      6169  TIP3      H1            -10.2319603985       11.3203942534       11.7529553365  WZ3       2169            0.0000000000
     18507      6169  TIP3      H2             -9.2972803985       11.3960642534       12.9414453365  WZ3       2169            0.0000000000
     18508      6170  TIP3      OH2            -3.6000603985        3.3819242534        0.3878253365  WZ3       2170            0.0000000000
     18509      6170  TIP3      H1             -4.1544303985        2.9857242534       -0.2844246635  WZ3       2170            0.0000000000
     18510      6170  TIP3      H2             -3.4997003985        4.2924442534        0.1101553365  WZ3       2170            0.0000000000
     18511      6171  TIP3      OH2            -3.6368603985        9.1820942534       13.2249753365  WZ3       2171            0.0000000000
     18512      6171  TIP3      H1             -4.4880103985        9.4204742534       12.8576153365  WZ3       2171            0.0000000000
     18513      6171  TIP3      H2             -3.0465203985        9.1654142534       12.4716853365  WZ3       2171            0.0000000000
     18514      6172  TIP3      OH2            -5.3048903985       12.1679642534        0.8530353365  WZ3       2172            0.0000000000
     18515      6172  TIP3      H1             -5.6777803985       11.3423442534        1.1620953365  WZ3       2172            0.0000000000
     18516      6172  TIP3      H2             -5.0275403985       11.9849042534       -0.0446246635  WZ3       2172            0.0000000000
     18517      6173  TIP3      OH2            -8.1445003985        6.9759142534        7.8742253365  WZ3       2173            0.0000000000
     18518      6173  TIP3      H1             -9.0728103985        6.7441042534        7.8471553365  WZ3       2173            0.0000000000
     18519      6173  TIP3      H2             -7.6933903985        6.1988942534        7.5441053365  WZ3       2173            0.0000000000
     18520      6174  TIP3      OH2           -15.6011903985       11.3040742534        4.0070953365  WZ3       2174            0.0000000000
     18521      6174  TIP3      H1            -15.0739703985       12.0775142534        3.8069753365  WZ3       2174            0.0000000000
     18522      6174  TIP3      H2            -16.4813403985       11.5289942534        3.7054953365  WZ3       2174            0.0000000000
     18523      6175  TIP3      OH2           -19.8464203985        6.1664842534       -1.4056646635  WZ3       2175            0.0000000000
     18524      6175  TIP3      H1            -19.2304303985        6.7932042534       -1.0261846635  WZ3       2175            0.0000000000
     18525      6175  TIP3      H2            -20.7081603985        6.4824642534       -1.1340146635  WZ3       2175            0.0000000000
     18526      6176  TIP3      OH2           -14.1739603985        8.9670642534        3.5835253365  WZ3       2176            0.0000000000
     18527      6176  TIP3      H1            -14.4149603985        9.8925042534        3.6250553365  WZ3       2176            0.0000000000
     18528      6176  TIP3      H2            -14.9146003985        8.5081942534        3.9799153365  WZ3       2176            0.0000000000
     18529      6177  TIP3      OH2           -13.6593003985       13.1164242534        9.8986353365  WZ3       2177            0.0000000000
     18530      6177  TIP3      H1            -13.2968303985       13.9709842534        9.6650753365  WZ3       2177            0.0000000000
     18531      6177  TIP3      H2            -13.1277803985       12.8245842534       10.6392653365  WZ3       2177            0.0000000000
     18532      6178  TIP3      OH2           -15.4908803985       13.9888242534        3.1287453365  WZ3       2178            0.0000000000
     18533      6178  TIP3      H1            -16.4408303985       14.0945642534        3.1800753365  WZ3       2178            0.0000000000
     18534      6178  TIP3      H2            -15.1390703985       14.8095642534        3.4734953365  WZ3       2178            0.0000000000
     18535      6179  TIP3      OH2           -10.1152203985        9.2154942534        9.5991953365  WZ3       2179            0.0000000000
     18536      6179  TIP3      H1            -10.5410903985        8.9876642534       10.4255953365  WZ3       2179            0.0000000000
     18537      6179  TIP3      H2             -9.5346403985        8.4766742534        9.4167253365  WZ3       2179            0.0000000000
     18538      6180  TIP3      OH2            -7.9123303985       10.1445442534       -1.3269046635  WZ3       2180            0.0000000000
     18539      6180  TIP3      H1             -7.5590203985        9.7645242534       -0.5225546635  WZ3       2180            0.0000000000
     18540      6180  TIP3      H2             -8.8609803985       10.0510242534       -1.2399746635  WZ3       2180            0.0000000000
     18541      6181  TIP3      OH2            -7.4568003985       13.7674442534       12.0686753365  WZ3       2181            0.0000000000
     18542      6181  TIP3      H1             -8.0584803985       13.2117342534       11.5733053365  WZ3       2181            0.0000000000
     18543      6181  TIP3      H2             -7.1754303985       14.4344242534       11.4424153365  WZ3       2181            0.0000000000
     18544      6182  TIP3      OH2            -3.4088903985       14.6237942534       -1.1258846635  WZ3       2182            0.0000000000
     18545      6182  TIP3      H1             -2.6651003985       15.2098442534       -1.2657246635  WZ3       2182            0.0000000000
     18546      6182  TIP3      H2             -4.1030803985       15.1923742534       -0.7926446635  WZ3       2182            0.0000000000
     18547      6183  TIP3      OH2           -19.3342103985        1.0002142534       11.4759353365  WZ3       2183            0.0000000000
     18548      6183  TIP3      H1            -20.2269803985        1.3387542534       11.4083353365  WZ3       2183            0.0000000000
     18549      6183  TIP3      H2            -19.4329303985        0.1448242534       11.8940153365  WZ3       2183            0.0000000000
     18550      6184  TIP3      OH2            -7.0464003985        8.8167442534        0.8998853365  WZ3       2184            0.0000000000
     18551      6184  TIP3      H1             -7.3236403985        8.0886742534        1.4559953365  WZ3       2184            0.0000000000
     18552      6184  TIP3      H2             -6.1191003985        8.9359442534        1.1051453365  WZ3       2184            0.0000000000
     18553      6185  TIP3      OH2           -19.6830103985       12.8046542534        9.9108753365  WZ3       2185            0.0000000000
     18554      6185  TIP3      H1            -19.4659803985       11.8728942534        9.8798453365  WZ3       2185            0.0000000000
     18555      6185  TIP3      H2            -19.4366603985       13.0791542534       10.7941553365  WZ3       2185            0.0000000000
     18556      6186  TIP3      OH2           -13.8215503985       11.2561542534       -2.8799046635  WZ3       2186            0.0000000000
     18557      6186  TIP3      H1            -13.5825703985       10.5079642534       -3.4270146635  WZ3       2186            0.0000000000
     18558      6186  TIP3      H2            -14.0904203985       10.8683242534       -2.0471246635  WZ3       2186            0.0000000000
     18559      6187  TIP3      OH2           -14.8844903985       10.8265342534       -0.4236446635  WZ3       2187            0.0000000000
     18560      6187  TIP3      H1            -14.7376903985       10.3065142534        0.3664453365  WZ3       2187            0.0000000000
     18561      6187  TIP3      H2            -14.8873203985       11.7332942534       -0.1170546635  WZ3       2187            0.0000000000
     18562      6188  TIP3      OH2           -18.4313803985        8.0788642534        0.0868953365  WZ3       2188            0.0000000000
     18563      6188  TIP3      H1            -19.1174503985        8.4311142534        0.6538653365  WZ3       2188            0.0000000000
     18564      6188  TIP3      H2            -17.9085903985        8.8418242534       -0.1596746635  WZ3       2188            0.0000000000
     18565      6189  TIP3      OH2           -10.5998703985        0.7412442534       10.3657953365  WZ3       2189            0.0000000000
     18566      6189  TIP3      H1             -9.9010803985        0.8151142534       11.0157653365  WZ3       2189            0.0000000000
     18567      6189  TIP3      H2            -10.9807303985       -0.1232557466       10.5200853365  WZ3       2189            0.0000000000
     18568      6190  TIP3      OH2            -9.8153803985        0.3934142534        1.4630253365  WZ3       2190            0.0000000000
     18569      6190  TIP3      H1             -9.5955503985        0.8649542534        0.6595653365  WZ3       2190            0.0000000000
     18570      6190  TIP3      H2             -9.2569803985        0.7876742534        2.1330853365  WZ3       2190            0.0000000000
     18571      6191  TIP3      OH2           -12.1467703985       12.5238942534        0.3257753365  WZ3       2191            0.0000000000
     18572      6191  TIP3      H1            -12.9631603985       13.0208642534        0.3782053365  WZ3       2191            0.0000000000
     18573      6191  TIP3      H2            -11.6171403985       12.9992442534       -0.3143446635  WZ3       2191            0.0000000000
     18574      6192  TIP3      OH2           -12.6153903985        2.1212942534        2.2978653365  WZ3       2192            0.0000000000
     18575      6192  TIP3      H1            -11.8031303985        2.6256142534        2.3440353365  WZ3       2192            0.0000000000
     18576      6192  TIP3      H2            -12.8600903985        1.9762642534        3.2118253365  WZ3       2192            0.0000000000
     18577      6193  TIP3      OH2           -12.0797503985        3.1075642534       11.4825253365  WZ3       2193            0.0000000000
     18578      6193  TIP3      H1            -11.9607203985        3.6811042534       12.2395653365  WZ3       2193            0.0000000000
     18579      6193  TIP3      H2            -11.4242903985        2.4195042534       11.5973053365  WZ3       2193            0.0000000000
     18580      6194  TIP3      OH2           -11.7317203985       -0.7974057466        3.2359753365  WZ3       2194            0.0000000000
     18581      6194  TIP3      H1            -12.0783703985       -0.1803457466        3.8804053365  WZ3       2194            0.0000000000
     18582      6194  TIP3      H2            -11.0730303985       -0.2968357466        2.7545253365  WZ3       2194            0.0000000000
     18583      6195  TIP3      OH2           -14.8084603985       13.5676142534        0.3074653365  WZ3       2195            0.0000000000
     18584      6195  TIP3      H1            -14.6475903985       14.3673642534       -0.1932746635  WZ3       2195            0.0000000000
     18585      6195  TIP3      H2            -15.0056803985       13.8742142534        1.1925253365  WZ3       2195            0.0000000000
     18586      6196  TIP3      OH2           -16.0740203985        0.2655342534       -0.0767746635  WZ3       2196            0.0000000000
     18587      6196  TIP3      H1            -16.1575403985        1.1538442534        0.2698653365  WZ3       2196            0.0000000000
     18588      6196  TIP3      H2            -15.1839903985        0.0002042534        0.1549053365  WZ3       2196            0.0000000000
     18589      6197  TIP3      OH2            -5.8751703985        1.0145942534       12.3174953365  WZ3       2197            0.0000000000
     18590      6197  TIP3      H1             -6.7915903985        1.2767642534       12.2298653365  WZ3       2197            0.0000000000
     18591      6197  TIP3      H2             -5.5396703985        1.0114942534       11.4210253365  WZ3       2197            0.0000000000
     18592      6198  TIP3      OH2            -7.2730703985        4.7646942534        6.4132253365  WZ3       2198            0.0000000000
     18593      6198  TIP3      H1             -8.0706303985        4.3497142534        6.0847253365  WZ3       2198            0.0000000000
     18594      6198  TIP3      H2             -6.8279603985        4.0740642534        6.9042753365  WZ3       2198            0.0000000000
     18595      6199  TIP3      OH2           -17.8154903985       10.6927542534       -1.0163246635  WZ3       2199            0.0000000000
     18596      6199  TIP3      H1            -17.2233403985       11.3922342534       -0.7400846635  WZ3       2199            0.0000000000
     18597      6199  TIP3      H2            -17.3561903985       10.2597042534       -1.7358646635  WZ3       2199            0.0000000000
     18598      6200  TIP3      OH2           -19.4995703985        3.3570542534       -1.9003846635  WZ3       2200            0.0000000000
     18599      6200  TIP3      H1            -19.5443103985        4.2963642534       -1.7216846635  WZ3       2200            0.0000000000
     18600      6200  TIP3      H2            -20.3872503985        3.1215442534       -2.1701746635  WZ3       2200            0.0000000000
     18601      6201  TIP3      OH2            -6.1866103985       14.0209442534        8.0355753365  WZ3       2201            0.0000000000
     18602      6201  TIP3      H1             -6.3421803985       14.6993842534        7.3785053365  WZ3       2201            0.0000000000
     18603      6201  TIP3      H2             -5.2539703985       14.0928742534        8.2386353365  WZ3       2201            0.0000000000
     18604      6202  TIP3      OH2           -18.6913703985       -1.8612857466        6.7727153365  WZ3       2202            0.0000000000
     18605      6202  TIP3      H1            -18.9203903985       -1.8020357466        5.8452153365  WZ3       2202            0.0000000000
     18606      6202  TIP3      H2            -19.1340303985       -2.6527357466        7.0791253365  WZ3       2202            0.0000000000
     18607      6203  TIP3      OH2           -19.7610403985       12.0794242534        2.9332953365  WZ3       2203            0.0000000000
     18608      6203  TIP3      H1            -20.5931803985       12.5516942534        2.9604353365  WZ3       2203            0.0000000000
     18609      6203  TIP3      H2            -19.2152103985       12.5891842534        2.3346053365  WZ3       2203            0.0000000000
     18610      6204  TIP3      OH2           -20.4726703985       14.6917942534       14.2630953365  WZ3       2204            0.0000000000
     18611      6204  TIP3      H1            -19.9324503985       14.4751942534       15.0230153365  WZ3       2204            0.0000000000
     18612      6204  TIP3      H2            -20.9538703985       13.8863942534       14.0733453365  WZ3       2204            0.0000000000
     18613      6205  TIP3      OH2           -15.8753303985       13.6112342534       15.8835153365  WZ3       2205            0.0000000000
     18614      6205  TIP3      H1            -15.1076103985       13.1523142534       16.2244353365  WZ3       2205            0.0000000000
     18615      6205  TIP3      H2            -15.8967103985       13.3852142534       14.9536353365  WZ3       2205            0.0000000000
     18616      6206  TIP3      OH2           -11.7833703985       13.1192942534       -2.7413046635  WZ3       2206            0.0000000000
     18617      6206  TIP3      H1            -12.4272703985       12.4881542534       -2.4199346635  WZ3       2206            0.0000000000
     18618      6206  TIP3      H2            -11.0215403985       12.5880942534       -2.9729546635  WZ3       2206            0.0000000000
     18619      6207  TIP3      OH2            -9.2984603985       11.9913442534       14.6126653365  WZ3       2207            0.0000000000
     18620      6207  TIP3      H1             -9.6495103985       11.1346442534       14.8557053365  WZ3       2207            0.0000000000
     18621      6207  TIP3      H2             -8.5721403985       12.1340142534       15.2195653365  WZ3       2207            0.0000000000
     18622      6208  TIP3      OH2            -7.1790803985       12.9362842534       -2.5075046635  WZ3       2208            0.0000000000
     18623      6208  TIP3      H1             -6.8960403985       12.1418042534       -2.0548146635  WZ3       2208            0.0000000000
     18624      6208  TIP3      H2             -6.4392903985       13.1693842534       -3.0683946635  WZ3       2208            0.0000000000
     18625      6209  TIP3      OH2           -20.5657203985        8.5022042534       15.2175253365  WZ3       2209            0.0000000000
     18626      6209  TIP3      H1            -20.4216703985        7.6002742534       14.9311953365  WZ3       2209            0.0000000000
     18627      6209  TIP3      H2            -21.3379803985        8.7884142534       14.7297553365  WZ3       2209            0.0000000000
     18628      6210  TIP3      OH2           -16.2243503985        8.8457742534       -2.6500146635  WZ3       2210            0.0000000000
     18629      6210  TIP3      H1            -16.1599403985        8.0517342534       -2.1193746635  WZ3       2210            0.0000000000
     18630      6210  TIP3      H2            -15.5714303985        8.7270542534       -3.3398146635  WZ3       2210            0.0000000000
     18631      6211  TIP3      OH2           -13.9101103985        8.4720142534       14.6501653365  WZ3       2211            0.0000000000
     18632      6211  TIP3      H1            -14.2387303985        8.7428242534       13.7929053365  WZ3       2211            0.0000000000
     18633      6211  TIP3      H2            -13.7582903985        7.5309942534       14.5626653365  WZ3       2211            0.0000000000
     18634      6212  TIP3      OH2           -10.8720103985        9.8929442534       -2.9142146635  WZ3       2212            0.0000000000
     18635      6212  TIP3      H1            -11.1406003985       10.0731542534       -2.0133246635  WZ3       2212            0.0000000000
     18636      6212  TIP3      H2            -11.0784503985        8.9675642534       -3.0456346635  WZ3       2212            0.0000000000
     18637      6213  TIP3      OH2            -8.1755903985        8.3877442534       12.0333953365  WZ3       2213            0.0000000000
     18638      6213  TIP3      H1             -7.4301103985        8.9761142534       11.9137953365  WZ3       2213            0.0000000000
     18639      6213  TIP3      H2             -8.9329103985        8.9697142534       12.0967053365  WZ3       2213            0.0000000000
     18640      6214  TIP3      OH2           -19.7330703985        5.7025342534       14.6374553365  WZ3       2214            0.0000000000
     18641      6214  TIP3      H1            -19.3249503985        4.8451942534       14.5165153365  WZ3       2214            0.0000000000
     18642      6214  TIP3      H2            -19.9933103985        5.7166642534       15.5584853365  WZ3       2214            0.0000000000
     18643      6215  TIP3      OH2           -15.0749703985        6.8183942534       -0.3442146635  WZ3       2215            0.0000000000
     18644      6215  TIP3      H1            -15.5347703985        6.3342242534        0.3416353365  WZ3       2215            0.0000000000
     18645      6215  TIP3      H2            -14.8201003985        6.1499342534       -0.9801646635  WZ3       2215            0.0000000000
     18646      6216  TIP3      OH2           -15.7860403985        4.7111042534       12.0117453365  WZ3       2216            0.0000000000
     18647      6216  TIP3      H1            -16.4044303985        5.3857642534       12.2922153365  WZ3       2216            0.0000000000
     18648      6216  TIP3      H2            -15.4419203985        5.0324942534       11.1783653365  WZ3       2216            0.0000000000
     18649      6217  TIP3      OH2           -14.0039303985        5.0615742534       -2.0818946635  WZ3       2217            0.0000000000
     18650      6217  TIP3      H1            -14.1844303985        4.9066942534       -3.0090646635  WZ3       2217            0.0000000000
     18651      6217  TIP3      H2            -13.0538803985        5.1694442534       -2.0371046635  WZ3       2217            0.0000000000
     18652      6218  TIP3      OH2           -10.7662203985        7.1826342534       15.2892253365  WZ3       2218            0.0000000000
     18653      6218  TIP3      H1             -9.8131003985        7.2665442534       15.2618253365  WZ3       2218            0.0000000000
     18654      6218  TIP3      H2            -10.9267603985        6.4708142534       15.9087153365  WZ3       2218            0.0000000000
     18655      6219  TIP3      OH2            -4.6141003985        7.4159942534       -2.6360846635  WZ3       2219            0.0000000000
     18656      6219  TIP3      H1             -4.8876203985        6.9915442534       -3.4492546635  WZ3       2219            0.0000000000
     18657      6219  TIP3      H2             -4.5746903985        8.3474442534       -2.8530446635  WZ3       2219            0.0000000000
     18658      6220  TIP3      OH2           -15.4466703985        2.0661842534       13.0940553365  WZ3       2220            0.0000000000
     18659      6220  TIP3      H1            -15.2965803985        1.3373142534       12.4920253365  WZ3       2220            0.0000000000
     18660      6220  TIP3      H2            -15.4444303985        2.8433542534       12.5352753365  WZ3       2220            0.0000000000
     18661      6221  TIP3      OH2           -15.0341003985        0.4357642534       10.5867953365  WZ3       2221            0.0000000000
     18662      6221  TIP3      H1            -14.4983503985        0.8874342534        9.9347253365  WZ3       2221            0.0000000000
     18663      6221  TIP3      H2            -15.8861403985        0.3277442534       10.1642053365  WZ3       2221            0.0000000000
     18664      6222  TIP3      OH2           -13.4522603985        5.8753842534       10.8263153365  WZ3       2222            0.0000000000
     18665      6222  TIP3      H1            -12.7017803985        5.7191342534       10.2530953365  WZ3       2222            0.0000000000
     18666      6222  TIP3      H2            -13.7914303985        6.7270442534       10.5508653365  WZ3       2222            0.0000000000
     18667      6223  TIP3      OH2            -9.0366403985        3.6905642534       15.8548453365  WZ3       2223            0.0000000000
     18668      6223  TIP3      H1             -8.8445103985        2.7595042534       15.7432953365  WZ3       2223            0.0000000000
     18669      6223  TIP3      H2             -8.1790103985        4.1155142534       15.8443853365  WZ3       2223            0.0000000000
     18670      6224  TIP3      OH2            -7.7199203985        6.4790842534       13.9321153365  WZ3       2224            0.0000000000
     18671      6224  TIP3      H1             -8.0014203985        7.1885442534       13.3544953365  WZ3       2224            0.0000000000
     18672      6224  TIP3      H2             -6.7774903985        6.4063842534       13.7812353365  WZ3       2224            0.0000000000
     18673      6225  TIP3      OH2           -16.9680403985        3.2645342534       15.0056153365  WZ3       2225            0.0000000000
     18674      6225  TIP3      H1            -17.7351403985        2.7320142534       14.7953753365  WZ3       2225            0.0000000000
     18675      6225  TIP3      H2            -16.2891403985        2.9545742534       14.4062453365  WZ3       2225            0.0000000000
     18676      6226  TIP3      OH2           -14.2285503985       -2.1076657466       11.0181553365  WZ3       2226            0.0000000000
     18677      6226  TIP3      H1            -14.3265903985       -1.1613457466       10.9127753365  WZ3       2226            0.0000000000
     18678      6226  TIP3      H2            -14.9709303985       -2.4802857466       10.5425053365  WZ3       2226            0.0000000000
     18679      6227  TIP3      OH2           -12.9645003985        2.2138742534       14.5819953365  WZ3       2227            0.0000000000
     18680      6227  TIP3      H1            -13.1999603985        1.9945442534       15.4834853365  WZ3       2227            0.0000000000
     18681      6227  TIP3      H2            -13.7478103985        2.0069942534       14.0722453365  WZ3       2227            0.0000000000
     18682      6228  TIP3      OH2           -10.2488403985        1.3412242534       13.6573453365  WZ3       2228            0.0000000000
     18683      6228  TIP3      H1            -11.1963003985        1.3731942534       13.7896753365  WZ3       2228            0.0000000000
     18684      6228  TIP3      H2             -9.9361703985        0.7159342534       14.3111653365  WZ3       2228            0.0000000000
     18685      6229  TIP3      OH2            -8.6146903985       -0.0246657466       15.6625353365  WZ3       2229            0.0000000000
     18686      6229  TIP3      H1             -8.7115103985       -0.9769357466       15.6567253365  WZ3       2229            0.0000000000
     18687      6229  TIP3      H2             -8.9363803985        0.2440142534       16.5230853365  WZ3       2229            0.0000000000
     18688      6230  TIP3      OH2           -18.7877603985        1.1849142534       14.7100853365  WZ3       2230            0.0000000000
     18689      6230  TIP3      H1            -18.5760203985        0.4785242534       14.0998353365  WZ3       2230            0.0000000000
     18690      6230  TIP3      H2            -18.8990103985        0.7475142534       15.5542053365  WZ3       2230            0.0000000000
     18691      6231  TIP3      OH2           -14.0067403985       -2.8139257466       13.6894353365  WZ3       2231            0.0000000000
     18692      6231  TIP3      H1            -13.2949003985       -3.4537057466       13.6753453365  WZ3       2231            0.0000000000
     18693      6231  TIP3      H2            -14.1077003985       -2.5470957466       12.7757453365  WZ3       2231            0.0000000000
     18694      6232  TIP3      OH2           -13.6529903985       -1.1310857466       15.7430653365  WZ3       2232            0.0000000000
     18695      6232  TIP3      H1            -13.7847703985       -1.6067057466       14.9229153365  WZ3       2232            0.0000000000
     18696      6232  TIP3      H2            -14.2522503985       -0.3867257466       15.6877753365  WZ3       2232            0.0000000000
     18697      6233  TIP3      OH2           -14.1067603985       15.7519442534       -1.0805346635  WZ3       2233            0.0000000000
     18698      6233  TIP3      H1            -13.1736903985       15.9098142534       -0.9366946635  WZ3       2233            0.0000000000
     18699      6233  TIP3      H2            -14.3708803985       16.4272442534       -1.7053846635  WZ3       2233            0.0000000000
     18700      6234  TIP3      OH2           -20.5382703985       10.3883242534       -1.5977246635  WZ3       2234            0.0000000000
     18701      6234  TIP3      H1            -19.6243503985       10.4672142534       -1.3243346635  WZ3       2234            0.0000000000
     18702      6234  TIP3      H2            -20.5309603985        9.7012842534       -2.2641646635  WZ3       2234            0.0000000000
     18703      6235  TIP3      OH2           -21.8892103985       15.7811742534        3.4796653365  WZ3       2235            0.0000000000
     18704      6235  TIP3      H1            -22.5365003985       15.3193442534        2.9467853365  WZ3       2235            0.0000000000
     18705      6235  TIP3      H2            -21.5347503985       15.1095042534        4.0622853365  WZ3       2235            0.0000000000
     18706      6236  TIP3      OH2           -21.0192903985       13.8618742534        5.2842853365  WZ3       2236            0.0000000000
     18707      6236  TIP3      H1            -21.3536103985       12.9816042534        5.4563053365  WZ3       2236            0.0000000000
     18708      6236  TIP3      H2            -20.7970503985       14.2073742534        6.1488453365  WZ3       2236            0.0000000000
     18709      6237  TIP3      OH2            -3.4708103985       14.6715142534        8.2647653365  WZ3       2237            0.0000000000
     18710      6237  TIP3      H1             -3.4921403985       14.8563542534        9.2037053365  WZ3       2237            0.0000000000
     18711      6237  TIP3      H2             -2.7801903985       15.2399142534        7.9239053365  WZ3       2237            0.0000000000
     18712      6238  TIP3      OH2            -3.9075203985       14.2386242534       11.1866753365  WZ3       2238            0.0000000000
     18713      6238  TIP3      H1             -4.3946503985       13.5030342534       10.8154153365  WZ3       2238            0.0000000000
     18714      6238  TIP3      H2             -3.3582503985       13.8450142534       11.8646153365  WZ3       2238            0.0000000000
     18715      6239  TIP3      OH2            -5.4567903985       10.0284342534       15.8247053365  WZ3       2239            0.0000000000
     18716      6239  TIP3      H1             -6.3226803985        9.9234042534       16.2189353365  WZ3       2239            0.0000000000
     18717      6239  TIP3      H2             -5.0802003985       10.7867642534       16.2711753365  WZ3       2239            0.0000000000
     18718      6240  TIP3      OH2            -4.1558203985        8.2848042534        1.3389553365  WZ3       2240            0.0000000000
     18719      6240  TIP3      H1             -3.3056803985        8.7058942534        1.4661153365  WZ3       2240            0.0000000000
     18720      6240  TIP3      H2             -4.1503103985        7.5448142534        1.9460953365  WZ3       2240            0.0000000000
     18721      6241  TIP3      OH2            -3.7612603985        6.3385442534        3.1625253365  WZ3       2241            0.0000000000
     18722      6241  TIP3      H1             -4.4878003985        5.8588042534        3.5602853365  WZ3       2241            0.0000000000
     18723      6241  TIP3      H2             -3.1799303985        6.5440142534        3.8946853365  WZ3       2241            0.0000000000
     18724      6242  TIP3      OH2            -4.0021403985        9.1232942534        8.1102853365  WZ3       2242            0.0000000000
     18725      6242  TIP3      H1             -3.1687203985        8.7452942534        7.8296453365  WZ3       2242            0.0000000000
     18726      6242  TIP3      H2             -3.8901103985       10.0664142534        7.9911953365  WZ3       2242            0.0000000000
     18727      6243  TIP3      OH2            -5.5159103985       12.0010442534       10.4171253365  WZ3       2243            0.0000000000
     18728      6243  TIP3      H1             -6.1633803985       12.3261942534       11.0426453365  WZ3       2243            0.0000000000
     18729      6243  TIP3      H2             -6.0335103985       11.5608142534        9.7429553365  WZ3       2243            0.0000000000
     18730      6244  TIP3      OH2            -3.4929503985        6.2393942534       -0.4463446635  WZ3       2244            0.0000000000
     18731      6244  TIP3      H1             -4.0148403985        6.5958042534       -1.1652546635  WZ3       2244            0.0000000000
     18732      6244  TIP3      H2             -3.5260303985        6.9141742534        0.2317453365  WZ3       2244            0.0000000000
     18733      6245  TIP3      OH2            -5.1440503985        3.4789542534       -1.8956346635  WZ3       2245            0.0000000000
     18734      6245  TIP3      H1             -5.0476103985        4.1456542534       -2.5756646635  WZ3       2245            0.0000000000
     18735      6245  TIP3      H2             -5.2840903985        2.6635842534       -2.3770846635  WZ3       2245            0.0000000000
     18736      6246  TIP3      OH2            -5.9745803985        4.8591942534        3.7253953365  WZ3       2246            0.0000000000
     18737      6246  TIP3      H1             -6.1247003985        3.9140542534        3.7051753365  WZ3       2246            0.0000000000
     18738      6246  TIP3      H2             -6.3281303985        5.1403342534        4.5693053365  WZ3       2246            0.0000000000
     18739      6247  TIP3      OH2           -20.9393403985        6.9374142534        7.7357753365  WZ3       2247            0.0000000000
     18740      6247  TIP3      H1            -20.7550503985        6.8555842534        6.8000653365  WZ3       2247            0.0000000000
     18741      6247  TIP3      H2            -20.0900503985        6.8131142534        8.1594153365  WZ3       2247            0.0000000000
     18742      6248  TIP3      OH2            -5.1182903985        6.8295242534       13.3642253365  WZ3       2248            0.0000000000
     18743      6248  TIP3      H1             -4.5355603985        6.0947542534       13.5559453365  WZ3       2248            0.0000000000
     18744      6248  TIP3      H2             -4.5543603985        7.6015542534       13.4108053365  WZ3       2248            0.0000000000
     18745      6249  TIP3      OH2            -3.6215803985        4.7321042534       14.0487653365  WZ3       2249            0.0000000000
     18746      6249  TIP3      H1             -4.4849103985        4.3533142534       13.8832353365  WZ3       2249            0.0000000000
     18747      6249  TIP3      H2             -3.0172103985        3.9935842534       13.9743453365  WZ3       2249            0.0000000000
     18748      6250  TIP3      OH2            -5.8966703985        0.8869342534       -2.7780846635  WZ3       2250            0.0000000000
     18749      6250  TIP3      H1             -5.2860903985        0.5156142534       -2.1412646635  WZ3       2250            0.0000000000
     18750      6250  TIP3      H2             -6.7335203985        0.4656242534       -2.5820846635  WZ3       2250            0.0000000000
     18751      6251  TIP3      OH2            -6.2641003985        2.4417742534        2.1879053365  WZ3       2251            0.0000000000
     18752      6251  TIP3      H1             -5.9843903985        1.5348142534        2.3120753365  WZ3       2251            0.0000000000
     18753      6251  TIP3      H2             -5.5049303985        2.8759242534        1.7988253365  WZ3       2251            0.0000000000
     18754      6252  TIP3      OH2            -5.6522703985        3.0235142534        7.6237953365  WZ3       2252            0.0000000000
     18755      6252  TIP3      H1             -4.7194703985        3.2355042534        7.5893953365  WZ3       2252            0.0000000000
     18756      6252  TIP3      H2             -5.8875203985        3.1247242534        8.5460953365  WZ3       2252            0.0000000000
     18757      6253  TIP3      OH2            -5.6230803985        3.7600442534       10.3997353365  WZ3       2253            0.0000000000
     18758      6253  TIP3      H1             -6.4659503985        4.0280842534       10.7657153365  WZ3       2253            0.0000000000
     18759      6253  TIP3      H2             -5.1806503985        4.5822342534       10.1888453365  WZ3       2253            0.0000000000
     18760      6254  TIP3      OH2           -21.3418603985        2.2079142534       13.8766553365  WZ3       2254            0.0000000000
     18761      6254  TIP3      H1            -20.4223703985        2.0857442534       14.1129653365  WZ3       2254            0.0000000000
     18762      6254  TIP3      H2            -21.7914103985        1.4578842534       14.2660053365  WZ3       2254            0.0000000000
     18763      6255  TIP3      OH2            -3.3399203985       -2.2599357466       15.7532353365  WZ3       2255            0.0000000000
     18764      6255  TIP3      H1             -2.9902203985       -2.9135857466       15.1477053365  WZ3       2255            0.0000000000
     18765      6255  TIP3      H2             -3.1929703985       -1.4225257466       15.3134953365  WZ3       2255            0.0000000000
     18766      6256  TIP3      OH2            -5.6506203985       -0.2952957466        2.2361053365  WZ3       2256            0.0000000000
     18767      6256  TIP3      H1             -5.4681203985       -0.7441457466        3.0616053365  WZ3       2256            0.0000000000
     18768      6256  TIP3      H2             -6.2503303985       -0.8798557466        1.7725653365  WZ3       2256            0.0000000000
     18769      6257  TIP3      OH2           -20.1206103985        0.5200742534        6.7679453365  WZ3       2257            0.0000000000
     18770      6257  TIP3      H1            -19.6754503985       -0.2716757466        7.0699153365  WZ3       2257            0.0000000000
     18771      6257  TIP3      H2            -19.6543103985        1.2365942534        7.1985053365  WZ3       2257            0.0000000000
     18772      6258  TIP3      OH2           -21.8165803985        3.5193742534        7.8369653365  WZ3       2258            0.0000000000
     18773      6258  TIP3      H1            -21.3246003985        3.2984242534        7.0461653365  WZ3       2258            0.0000000000
     18774      6258  TIP3      H2            -21.4544903985        4.3597142534        8.1179153365  WZ3       2258            0.0000000000
     18775      6259  TIP3      OH2            -3.8202003985       -0.1504757466       14.1023653365  WZ3       2259            0.0000000000
     18776      6259  TIP3      H1             -4.7376303985        0.1202342534       14.0667153365  WZ3       2259            0.0000000000
     18777      6259  TIP3      H2             -3.6972603985       -0.6856357466       13.3183353365  WZ3       2259            0.0000000000
     18778      6260  TIP3      OH2            -3.7840003985       -0.2274857466       -1.2358646635  WZ3       2260            0.0000000000
     18779      6260  TIP3      H1             -3.3717403985       -0.9489157466       -1.7110646635  WZ3       2260            0.0000000000
     18780      6260  TIP3      H2             -3.1023503985        0.4419742534       -1.1774346635  WZ3       2260            0.0000000000
     18781      6261  TIP3      OH2           -21.5029303985       -0.2227157466        1.8912053365  WZ3       2261            0.0000000000
     18782      6261  TIP3      H1            -22.4280903985       -0.0140557466        1.7617553365  WZ3       2261            0.0000000000
     18783      6261  TIP3      H2            -21.0489403985        0.2613642534        1.2014353365  WZ3       2261            0.0000000000
     18784      6262  TIP3      OH2            -6.7322103985       14.7614542534        3.8369453365  WZ3       2262            0.0000000000
     18785      6262  TIP3      H1             -6.0799203985       14.4136642534        3.2288553365  WZ3       2262            0.0000000000
     18786      6262  TIP3      H2             -6.2218303985       15.2497742534        4.4829153365  WZ3       2262            0.0000000000
     18787      6263  TIP3      OH2           -21.5393903985       -1.4848157466       10.2354553365  WZ3       2263            0.0000000000
     18788      6263  TIP3      H1            -22.2043403985       -1.7307857466       10.8785453365  WZ3       2263            0.0000000000
     18789      6263  TIP3      H2            -21.9822603985       -0.8627757466        9.6582553365  WZ3       2263            0.0000000000
     18790      6264  TIP3      OH2           -19.3474603985       11.6905942534       14.3800353365  WZ3       2264            0.0000000000
     18791      6264  TIP3      H1            -20.1682103985       11.8652442534       13.9195053365  WZ3       2264            0.0000000000
     18792      6264  TIP3      H2            -19.5996803985       11.6170642534       15.3004753365  WZ3       2264            0.0000000000
     18793      6265  TIP3      OH2           -16.3931703985       12.6647142534       10.6384353365  WZ3       2265            0.0000000000
     18794      6265  TIP3      H1            -16.8180603985       13.4745642534       10.3558953365  WZ3       2265            0.0000000000
     18795      6265  TIP3      H2            -15.4888903985       12.7501242534       10.3364153365  WZ3       2265            0.0000000000
     18796      6266  TIP3      OH2           -12.0820303985       14.0637142534       13.5978053365  WZ3       2266            0.0000000000
     18797      6266  TIP3      H1            -11.8972803985       13.7303242534       14.4758353365  WZ3       2266            0.0000000000
     18798      6266  TIP3      H2            -11.2355803985       14.3735742534       13.2757253365  WZ3       2266            0.0000000000
     18799      6267  TIP3      OH2            -9.7369903985       15.3496042534       12.8419453365  WZ3       2267            0.0000000000
     18800      6267  TIP3      H1             -9.0601003985       14.7168342534       12.6018653365  WZ3       2267            0.0000000000
     18801      6267  TIP3      H2             -9.4151103985       15.7506542534       13.6492753365  WZ3       2267            0.0000000000
     18802      6268  TIP3      OH2            -4.8196103985       -2.0608457466       11.9214453365  WZ3       2268            0.0000000000
     18803      6268  TIP3      H1             -5.6322603985       -1.7358157466       11.5339153365  WZ3       2268            0.0000000000
     18804      6268  TIP3      H2             -4.5867603985       -2.8209957466       11.3883553365  WZ3       2268            0.0000000000
     18805      6269  TIP3      OH2           -18.9915003985       15.9211042534       10.6859653365  WZ3       2269            0.0000000000
     18806      6269  TIP3      H1            -19.7118603985       16.3612042534       10.2347353365  WZ3       2269            0.0000000000
     18807      6269  TIP3      H2            -19.3571003985       15.6705742534       11.5343653365  WZ3       2269            0.0000000000
     18808      6270  TIP3      OH2           -16.5242403985       15.5214942534        9.7156853365  WZ3       2270            0.0000000000
     18809      6270  TIP3      H1            -17.3890203985       15.5933442534       10.1196953365  WZ3       2270            0.0000000000
     18810      6270  TIP3      H2            -16.5793403985       16.0682242534        8.9319353365  WZ3       2270            0.0000000000
     18811      6271  TIP3      OH2           -11.8136803985       15.4093842534        8.8912853365  WZ3       2271            0.0000000000
     18812      6271  TIP3      H1            -12.2702803985       15.9383542534        8.2371253365  WZ3       2271            0.0000000000
     18813      6271  TIP3      H2            -11.6508803985       16.0125242534        9.6165153365  WZ3       2271            0.0000000000
     18814      6272  TIP3      OH2            -9.4860503985       14.2873442534        9.8363153365  WZ3       2272            0.0000000000
     18815      6272  TIP3      H1            -10.3906803985       14.4523642534        9.5705253365  WZ3       2272            0.0000000000
     18816      6272  TIP3      H2             -9.0571903985       15.1405642534        9.7706553365  WZ3       2272            0.0000000000
     18817      6273  TIP3      OH2            -6.8818603985       15.8572542534       10.1310953365  WZ3       2273            0.0000000000
     18818      6273  TIP3      H1             -7.0636603985       16.7731442534        9.9205853365  WZ3       2273            0.0000000000
     18819      6273  TIP3      H2             -6.7050803985       15.4469642534        9.2845553365  WZ3       2273            0.0000000000
     18820      6274  TIP3      OH2           -19.5766903985       14.5443542534        7.5961453365  WZ3       2274            0.0000000000
     18821      6274  TIP3      H1            -19.5950903985       14.1188642534        8.4533753365  WZ3       2274            0.0000000000
     18822      6274  TIP3      H2            -18.7719003985       14.2258542534        7.1873653365  WZ3       2274            0.0000000000
     18823      6275  TIP3      OH2           -17.4353803985       13.2542242534        6.2511353365  WZ3       2275            0.0000000000
     18824      6275  TIP3      H1            -17.6543103985       12.3379642534        6.4207353365  WZ3       2275            0.0000000000
     18825      6275  TIP3      H2            -16.6111603985       13.3942642534        6.7172753365  WZ3       2275            0.0000000000
     18826      6276  TIP3      OH2           -14.8981303985       13.7241542534        7.0999353365  WZ3       2276            0.0000000000
     18827      6276  TIP3      H1            -14.6855603985       12.8360542534        6.8130253365  WZ3       2276            0.0000000000
     18828      6276  TIP3      H2            -14.8336203985       13.6899242534        8.0543353365  WZ3       2276            0.0000000000
     18829      6277  TIP3      OH2           -11.3897603985       -0.6117857466        6.2442653365  WZ3       2277            0.0000000000
     18830      6277  TIP3      H1            -12.0640803985       -1.2412257466        6.4998453365  WZ3       2277            0.0000000000
     18831      6277  TIP3      H2            -10.8258403985       -1.0958957466        5.6410553365  WZ3       2277            0.0000000000
     18832      6278  TIP3      OH2            -6.2470403985       -2.5043857466        6.3569753365  WZ3       2278            0.0000000000
     18833      6278  TIP3      H1             -5.6432803985       -1.9568457466        5.8550753365  WZ3       2278            0.0000000000
     18834      6278  TIP3      H2             -7.1168403985       -2.1853457466        6.1163853365  WZ3       2278            0.0000000000
     18835      6279  TIP3      OH2            -4.5200003985       -1.3655157466        4.6900653365  WZ3       2279            0.0000000000
     18836      6279  TIP3      H1             -3.9082503985       -1.8799457466        4.1634253365  WZ3       2279            0.0000000000
     18837      6279  TIP3      H2             -4.1376603985       -0.4883057466        4.7135053365  WZ3       2279            0.0000000000
     18838      6280  TIP3      OH2           -19.0630103985       -1.9777557466        4.0662553365  WZ3       2280            0.0000000000
     18839      6280  TIP3      H1            -19.8400303985       -2.2122657466        3.5588453365  WZ3       2280            0.0000000000
     18840      6280  TIP3      H2            -18.5326503985       -2.7745457466        4.0750553365  WZ3       2280            0.0000000000
     18841      6281  TIP3      OH2           -20.2266703985       -2.1799457466       -0.1301346635  WZ3       2281            0.0000000000
     18842      6281  TIP3      H1            -19.7876003985       -1.5688957466       -0.7217846635  WZ3       2281            0.0000000000
     18843      6281  TIP3      H2            -20.8604303985       -1.6415357466        0.3438653365  WZ3       2281            0.0000000000
     18844      6282  TIP3      OH2           -14.4837503985       -2.0510457466        3.8795653365  WZ3       2282            0.0000000000
     18845      6282  TIP3      H1            -13.6094103985       -1.6626157466        3.8499953365  WZ3       2282            0.0000000000
     18846      6282  TIP3      H2            -14.6196703985       -2.2662657466        4.8022853365  WZ3       2282            0.0000000000
     18847      6283  TIP3      OH2            -8.9269103985       -2.0210657466        5.5287353365  WZ3       2283            0.0000000000
     18848      6283  TIP3      H1             -8.8507503985       -1.9259057466        4.5793353365  WZ3       2283            0.0000000000
     18849      6283  TIP3      H2             -9.2019903985       -2.9287757466        5.6576453365  WZ3       2283            0.0000000000
     18850      6284  TIP3      OH2            -7.5736503985       -1.9952857466        1.2212353365  WZ3       2284            0.0000000000
     18851      6284  TIP3      H1             -8.2765403985       -1.3803657466        1.0113753365  WZ3       2284            0.0000000000
     18852      6284  TIP3      H2             -8.0185103985       -2.8326157466        1.3523253365  WZ3       2284            0.0000000000
     18853      6285  TIP3      OH2           -20.3257203985       13.7682742534        0.7673753365  WZ3       2285            0.0000000000
     18854      6285  TIP3      H1            -21.0107303985       13.7301642534        0.0998853365  WZ3       2285            0.0000000000
     18855      6285  TIP3      H2            -20.3220003985       14.6810342534        1.0555853365  WZ3       2285            0.0000000000
     18856      6286  TIP3      OH2           -18.3657603985       -0.2637957466       -1.6877246635  WZ3       2286            0.0000000000
     18857      6286  TIP3      H1            -17.8744203985       -0.8935557466       -2.2151746635  WZ3       2286            0.0000000000
     18858      6286  TIP3      H2            -17.7421303985        0.0321442534       -1.0246046635  WZ3       2286            0.0000000000
     18859      6287  TIP3      OH2           -13.3397503985        0.0293542534        0.7693253365  WZ3       2287            0.0000000000
     18860      6287  TIP3      H1            -13.1616203985       -0.6173257466        1.4521853365  WZ3       2287            0.0000000000
     18861      6287  TIP3      H2            -13.3931303985        0.8631242534        1.2364353365  WZ3       2287            0.0000000000
     18862      6288  TIP3      OH2           -11.4613703985       14.9777642534       -0.8350046635  WZ3       2288            0.0000000000
     18863      6288  TIP3      H1            -10.5953503985       15.3445042534       -1.0131846635  WZ3       2288            0.0000000000
     18864      6288  TIP3      H2            -11.7080903985       14.5385642534       -1.6489246635  WZ3       2288            0.0000000000
     18865      6289  TIP3      OH2            -4.7524103985       14.5407942534        1.8441053365  WZ3       2289            0.0000000000
     18866      6289  TIP3      H1             -4.9467003985       13.7930042534        1.2790653365  WZ3       2289            0.0000000000
     18867      6289  TIP3      H2             -4.7914003985       15.2988042534        1.2608953365  WZ3       2289            0.0000000000
     18868      6290  TIP3      OH2           -19.1052103985       -1.4635657466       13.5838753365  WZ3       2290            0.0000000000
     18869      6290  TIP3      H1            -19.4713903985       -2.2293057466       14.0263453365  WZ3       2290            0.0000000000
     18870      6290  TIP3      H2            -18.1923603985       -1.4345457466       13.8703853365  WZ3       2290            0.0000000000
     18871      6291  TIP3      OH2           -17.1321303985       -2.1131257466       15.1195853365  WZ3       2291            0.0000000000
     18872      6291  TIP3      H1            -16.2337703985       -2.3871057466       14.9349253365  WZ3       2291            0.0000000000
     18873      6291  TIP3      H2            -17.5188203985       -2.8555257466       15.5838453365  WZ3       2291            0.0000000000
     18874      6292  TIP3      OH2           -18.5076003985       14.6883542534       -2.2074146635  WZ3       2292            0.0000000000
     18875      6292  TIP3      H1            -18.7751403985       14.9746442534       -1.3341046635  WZ3       2292            0.0000000000
     18876      6292  TIP3      H2            -17.7363403985       14.1422742534       -2.0551646635  WZ3       2292            0.0000000000
     18877      6293  TIP3      OH2            -8.7109003985       -2.7805957466       15.3018653365  WZ3       2293            0.0000000000
     18878      6293  TIP3      H1             -8.6341803985       -3.2065257466       16.1556353365  WZ3       2293            0.0000000000
     18879      6293  TIP3      H2             -7.8172403985       -2.7671257466       14.9592153365  WZ3       2293            0.0000000000
     18880      6294  TIP3      OH2            -5.5347903985       13.2920342534       13.9942853365  WZ3       2294            0.0000000000
     18881      6294  TIP3      H1             -6.3166003985       13.1058342534       13.4743453365  WZ3       2294            0.0000000000
     18882      6294  TIP3      H2             -5.6068003985       14.2214642534       14.2115353365  WZ3       2294            0.0000000000
     18883      6295  TIP3      OH2             8.8712496015        7.1784742534        4.0250053365  WZ3       2295            0.0000000000
     18884      6295  TIP3      H1              8.9603596015        8.1222942534        3.8927153365  WZ3       2295            0.0000000000
     18885      6295  TIP3      H2              8.2330096015        6.9031142534        3.3669453365  WZ3       2295            0.0000000000
     18886      6296  TIP3      OH2             7.8043796015        6.4335442534        7.4438253365  WZ3       2296            0.0000000000
     18887      6296  TIP3      H1              7.7661296015        5.7871742534        8.1487853365  WZ3       2296            0.0000000000
     18888      6296  TIP3      H2              7.4820296015        5.9669842534        6.6726953365  WZ3       2296            0.0000000000
     18889      6297  TIP3      OH2             0.1728796015        6.0477542534        9.0368153365  WZ3       2297            0.0000000000
     18890      6297  TIP3      H1              0.2140896015        5.4220842534        9.7600553365  WZ3       2297            0.0000000000
     18891      6297  TIP3      H2              0.8756496015        6.6716142534        9.2188553365  WZ3       2297            0.0000000000
     18892      6298  TIP3      OH2            11.5103996015        9.3725842534        5.7453353365  WZ3       2298            0.0000000000
     18893      6298  TIP3      H1             11.0696696015        8.6521842534        6.1958953365  WZ3       2298            0.0000000000
     18894      6298  TIP3      H2             11.4973696015       10.0933042534        6.3751053365  WZ3       2298            0.0000000000
     18895      6299  TIP3      OH2             1.0961896015       10.4976442534        7.5717253365  WZ3       2299            0.0000000000
     18896      6299  TIP3      H1              0.7267096015        9.6956942534        7.2021553365  WZ3       2299            0.0000000000
     18897      6299  TIP3      H2              2.0372996015       10.3291342534        7.6180653365  WZ3       2299            0.0000000000
     18898      6300  TIP3      OH2            -2.2937603985        4.1579042534        2.9646053365  WZ3       2300            0.0000000000
     18899      6300  TIP3      H1             -2.7414203985        5.0037742534        2.9462553365  WZ3       2300            0.0000000000
     18900      6300  TIP3      H2             -2.8546403985        3.5783242534        2.4491153365  WZ3       2300            0.0000000000
     18901      6301  TIP3      OH2            -1.5831503985        6.3198642534        5.0904053365  WZ3       2301            0.0000000000
     18902      6301  TIP3      H1             -1.3698003985        5.5500242534        5.6177053365  WZ3       2301            0.0000000000
     18903      6301  TIP3      H2             -0.8453903985        6.4095342534        4.4871653365  WZ3       2301            0.0000000000
     18904      6302  TIP3      OH2             8.6219496015       14.4767542534        5.9573753365  WZ3       2302            0.0000000000
     18905      6302  TIP3      H1              9.2415896015       13.8002242534        5.6842953365  WZ3       2302            0.0000000000
     18906      6302  TIP3      H2              8.4136896015       14.2588342534        6.8658653365  WZ3       2302            0.0000000000
     18907      6303  TIP3      OH2             6.1938196015        8.8656842534        7.8499253365  WZ3       2303            0.0000000000
     18908      6303  TIP3      H1              6.4976096015        8.1798242534        7.2553353365  WZ3       2303            0.0000000000
     18909      6303  TIP3      H2              6.9152196015        8.9845542534        8.4677253365  WZ3       2303            0.0000000000
     18910      6304  TIP3      OH2            14.8567996015        0.4672142534        8.7105453365  WZ3       2304            0.0000000000
     18911      6304  TIP3      H1             14.9060196015        1.0773342534        9.4464553365  WZ3       2304            0.0000000000
     18912      6304  TIP3      H2             15.2823096015        0.9283042534        7.9876553365  WZ3       2304            0.0000000000
     18913      6305  TIP3      OH2             9.3345196015        3.2599242534        8.1774053365  WZ3       2305            0.0000000000
     18914      6305  TIP3      H1              9.4771096015        2.3136242534        8.1975653365  WZ3       2305            0.0000000000
     18915      6305  TIP3      H2              9.2284196015        3.4669042534        7.2488953365  WZ3       2305            0.0000000000
     18916      6306  TIP3      OH2             2.4893496015        1.3615642534        5.4498853365  WZ3       2306            0.0000000000
     18917      6306  TIP3      H1              2.5324596015        2.2214142534        5.0315153365  WZ3       2306            0.0000000000
     18918      6306  TIP3      H2              2.0317596015        0.8090342534        4.8162053365  WZ3       2306            0.0000000000
     18919      6307  TIP3      OH2            10.2116196015        1.4921242534        3.8507153365  WZ3       2307            0.0000000000
     18920      6307  TIP3      H1             10.8580496015        1.1634442534        4.4754753365  WZ3       2307            0.0000000000
     18921      6307  TIP3      H2             10.7215596015        2.0100242534        3.2278553365  WZ3       2307            0.0000000000
     18922      6308  TIP3      OH2            -0.8905003985        3.7581442534        6.2120253365  WZ3       2308            0.0000000000
     18923      6308  TIP3      H1             -0.2368403985        3.2083142534        6.6440353365  WZ3       2308            0.0000000000
     18924      6308  TIP3      H2             -0.8665703985        3.4840442534        5.2952253365  WZ3       2308            0.0000000000
     18925      6309  TIP3      OH2             4.2659496015        5.3082742534        5.4271753365  WZ3       2309            0.0000000000
     18926      6309  TIP3      H1              4.8820496015        4.7818142534        5.9365753365  WZ3       2309            0.0000000000
     18927      6309  TIP3      H2              3.6798296015        4.6681442534        5.0235353365  WZ3       2309            0.0000000000
     18928      6310  TIP3      OH2            15.2482596015        1.9451342534       10.9465253365  WZ3       2310            0.0000000000
     18929      6310  TIP3      H1             14.5597196015        2.6032042534       10.8511853365  WZ3       2310            0.0000000000
     18930      6310  TIP3      H2             15.2637196015        1.7479242534       11.8830653365  WZ3       2310            0.0000000000
     18931      6311  TIP3      OH2             1.2995396015        0.2794042534        9.5239653365  WZ3       2311            0.0000000000
     18932      6311  TIP3      H1              1.0807096015        0.8094642534        8.7575653365  WZ3       2311            0.0000000000
     18933      6311  TIP3      H2              0.6316296015        0.5059542534       10.1711053365  WZ3       2311            0.0000000000
     18934      6312  TIP3      OH2             8.6685196015        9.7795142534        3.0678753365  WZ3       2312            0.0000000000
     18935      6312  TIP3      H1              8.3730296015        9.4567442534        2.2165653365  WZ3       2312            0.0000000000
     18936      6312  TIP3      H2              8.3442996015       10.6791842534        3.1091353365  WZ3       2312            0.0000000000
     18937      6313  TIP3      OH2             3.8686796015        7.9549742534        9.8113353365  WZ3       2313            0.0000000000
     18938      6313  TIP3      H1              3.1285896015        8.5531242534        9.9148553365  WZ3       2313            0.0000000000
     18939      6313  TIP3      H2              4.5826296015        8.5089342534        9.4956953365  WZ3       2313            0.0000000000
     18940      6314  TIP3      OH2            11.9754596015        0.7830542534        5.8313053365  WZ3       2314            0.0000000000
     18941      6314  TIP3      H1             11.7602596015        0.0173942534        6.3639053365  WZ3       2314            0.0000000000
     18942      6314  TIP3      H2             12.6311996015        1.2555142534        6.3441553365  WZ3       2314            0.0000000000
     18943      6315  TIP3      OH2             0.8932696015        2.1715842534        7.4761853365  WZ3       2315            0.0000000000
     18944      6315  TIP3      H1              1.5068996015        2.8043442534        7.8494253365  WZ3       2315            0.0000000000
     18945      6315  TIP3      H2              1.4053396015        1.6990842534        6.8198753365  WZ3       2315            0.0000000000
     18946      6316  TIP3      OH2             2.2761096015        9.9192742534       10.5984853365  WZ3       2316            0.0000000000
     18947      6316  TIP3      H1              2.2708696015       10.7986242534       10.2204153365  WZ3       2316            0.0000000000
     18948      6316  TIP3      H2              1.4225196015        9.8356842534       11.0234753365  WZ3       2316            0.0000000000
     18949      6317  TIP3      OH2            -1.6028003985        9.5900642534        1.3804153365  WZ3       2317            0.0000000000
     18950      6317  TIP3      H1             -1.8747103985        9.8191642534        0.4917053365  WZ3       2317            0.0000000000
     18951      6317  TIP3      H2             -1.5572303985       10.4279442534        1.8409453365  WZ3       2317            0.0000000000
     18952      6318  TIP3      OH2            12.0221696015       11.2116542534        8.0932653365  WZ3       2318            0.0000000000
     18953      6318  TIP3      H1             11.0805396015       11.2700442534        8.2549553365  WZ3       2318            0.0000000000
     18954      6318  TIP3      H2             12.2987796015       12.1177042534        7.9562353365  WZ3       2318            0.0000000000
     18955      6319  TIP3      OH2            12.3228696015       -0.5018157466        9.5106553365  WZ3       2319            0.0000000000
     18956      6319  TIP3      H1             11.5867896015        0.1088942534        9.4727853365  WZ3       2319            0.0000000000
     18957      6319  TIP3      H2             13.0062696015       -0.0869157466        8.9842953365  WZ3       2319            0.0000000000
     18958      6320  TIP3      OH2             5.3260096015       -2.4150857466        6.9764553365  WZ3       2320            0.0000000000
     18959      6320  TIP3      H1              5.2084296015       -3.3634857466        6.9222853365  WZ3       2320            0.0000000000
     18960      6320  TIP3      H2              4.4710196015       -2.0824757466        7.2495653365  WZ3       2320            0.0000000000
     18961      6321  TIP3      OH2            10.2742896015       12.9930042534        4.7184253365  WZ3       2321            0.0000000000
     18962      6321  TIP3      H1             10.6995196015       12.2857942534        4.2333853365  WZ3       2321            0.0000000000
     18963      6321  TIP3      H2             10.5912896015       13.7942742534        4.3016453365  WZ3       2321            0.0000000000
     18964      6322  TIP3      OH2            11.4339396015       10.8938542534        3.2270853365  WZ3       2322            0.0000000000
     18965      6322  TIP3      H1             11.1764196015       10.2038642534        2.6156753365  WZ3       2322            0.0000000000
     18966      6322  TIP3      H2             11.5050196015       10.4509742534        4.0726753365  WZ3       2322            0.0000000000
     18967      6323  TIP3      OH2            13.1199596015        9.4605242534       11.7044353365  WZ3       2323            0.0000000000
     18968      6323  TIP3      H1             13.2595896015        8.8687742534       10.9651353365  WZ3       2323            0.0000000000
     18969      6323  TIP3      H2             13.2872396015       10.3331142534       11.3483153365  WZ3       2323            0.0000000000
     18970      6324  TIP3      OH2             7.5924996015        6.4224742534        1.4770353365  WZ3       2324            0.0000000000
     18971      6324  TIP3      H1              6.8810496015        6.9574442534        1.1250853365  WZ3       2324            0.0000000000
     18972      6324  TIP3      H2              8.2834596015        6.4776842534        0.8169253365  WZ3       2324            0.0000000000
     18973      6325  TIP3      OH2             7.6464196015        4.8799042534       -1.4844646635  WZ3       2325            0.0000000000
     18974      6325  TIP3      H1              8.3474096015        4.9025942534       -0.8330646635  WZ3       2325            0.0000000000
     18975      6325  TIP3      H2              7.9487096015        4.2518742534       -2.1405346635  WZ3       2325            0.0000000000
     18976      6326  TIP3      OH2            14.9618896015        5.8003242534        9.7704753365  WZ3       2326            0.0000000000
     18977      6326  TIP3      H1             14.3092996015        6.4948842534        9.8595653365  WZ3       2326            0.0000000000
     18978      6326  TIP3      H2             15.4269196015        6.0104142534        8.9606353365  WZ3       2326            0.0000000000
     18979      6327  TIP3      OH2            10.9982696015        6.6318042534        2.4286253365  WZ3       2327            0.0000000000
     18980      6327  TIP3      H1             10.2663696015        6.8601742534        3.0016853365  WZ3       2327            0.0000000000
     18981      6327  TIP3      H2             11.4454896015        5.9180742534        2.8833753365  WZ3       2327            0.0000000000
     18982      6328  TIP3      OH2            10.8956196015        4.8060642534       11.4963253365  WZ3       2328            0.0000000000
     18983      6328  TIP3      H1             10.9755296015        5.5695042534       12.0681753365  WZ3       2328            0.0000000000
     18984      6328  TIP3      H2             10.2943896015        5.0853042534       10.8058353365  WZ3       2328            0.0000000000
     18985      6329  TIP3      OH2             2.6436396015        7.2624242534        4.3111253365  WZ3       2329            0.0000000000
     18986      6329  TIP3      H1              2.3131596015        6.8917642534        3.4928253365  WZ3       2329            0.0000000000
     18987      6329  TIP3      H2              3.2320496015        6.5918242534        4.6579553365  WZ3       2329            0.0000000000
     18988      6330  TIP3      OH2             4.0103896015       10.6904842534        6.9923453365  WZ3       2330            0.0000000000
     18989      6330  TIP3      H1              3.9155196015       10.1117942534        6.2358053365  WZ3       2330            0.0000000000
     18990      6330  TIP3      H2              4.7397496015       10.3190542534        7.4886253365  WZ3       2330            0.0000000000
     18991      6331  TIP3      OH2             3.0101896015        6.0309842534        7.9446253365  WZ3       2331            0.0000000000
     18992      6331  TIP3      H1              3.5754396015        6.1524042534        7.1817453365  WZ3       2331            0.0000000000
     18993      6331  TIP3      H2              3.3290796015        6.6684842534        8.5834753365  WZ3       2331            0.0000000000
     18994      6332  TIP3      OH2             9.3194096015       11.5341742534        8.6786753365  WZ3       2332            0.0000000000
     18995      6332  TIP3      H1              9.0790696015       12.1964842534        9.3265953365  WZ3       2332            0.0000000000
     18996      6332  TIP3      H2              9.1212296015       10.6996942534        9.1036353365  WZ3       2332            0.0000000000
     18997      6333  TIP3      OH2             3.8902596015       10.4302542534       12.6618153365  WZ3       2333            0.0000000000
     18998      6333  TIP3      H1              3.5790096015       11.2125742534       13.1171353365  WZ3       2333            0.0000000000
     18999      6333  TIP3      H2              3.2402796015       10.2771642534       11.9760153365  WZ3       2333            0.0000000000
     19000      6334  TIP3      OH2             9.8692196015        5.7940942534        0.1137453365  WZ3       2334            0.0000000000
     19001      6334  TIP3      H1             10.4487696015        5.9441242534        0.8606353365  WZ3       2334            0.0000000000
     19002      6334  TIP3      H2             10.2832196015        6.2648342534       -0.6096146635  WZ3       2334            0.0000000000
     19003      6335  TIP3      OH2             0.8102496015        6.6283642534       11.8903853365  WZ3       2335            0.0000000000
     19004      6335  TIP3      H1              0.8805696015        7.2790442534       12.5888853365  WZ3       2335            0.0000000000
     19005      6335  TIP3      H2             -0.0805303985        6.7311142534       11.5554753365  WZ3       2335            0.0000000000
     19006      6336  TIP3      OH2             7.5957096015       12.5309442534        3.5490553365  WZ3       2336            0.0000000000
     19007      6336  TIP3      H1              8.0694696015       12.8265742534        4.3264753365  WZ3       2336            0.0000000000
     19008      6336  TIP3      H2              7.0326396015       13.2691042534        3.3160153365  WZ3       2336            0.0000000000
     19009      6337  TIP3      OH2             2.1298496015       12.5017542534       13.4251953365  WZ3       2337            0.0000000000
     19010      6337  TIP3      H1              2.1373796015       12.3657242534       12.4777453365  WZ3       2337            0.0000000000
     19011      6337  TIP3      H2              1.2138896015       12.3845642534       13.6771953365  WZ3       2337            0.0000000000
     19012      6338  TIP3      OH2            13.5680596015       -2.4558657466       -0.0732846635  WZ3       2338            0.0000000000
     19013      6338  TIP3      H1             12.6681296015       -2.3169657466        0.2217753365  WZ3       2338            0.0000000000
     19014      6338  TIP3      H2             13.8198996015       -1.6244057466       -0.4751146635  WZ3       2338            0.0000000000
     19015      6339  TIP3      OH2             1.6339096015        6.3318542534        1.9004053365  WZ3       2339            0.0000000000
     19016      6339  TIP3      H1              1.3420396015        7.1000242534        1.4095353365  WZ3       2339            0.0000000000
     19017      6339  TIP3      H2              0.9594296015        5.6724742534        1.7375453365  WZ3       2339            0.0000000000
     19018      6340  TIP3      OH2            14.7571996015       11.9103742534       -1.6968946635  WZ3       2340            0.0000000000
     19019      6340  TIP3      H1             14.8305496015       12.8493942534       -1.5263646635  WZ3       2340            0.0000000000
     19020      6340  TIP3      H2             15.6627096015       11.6052342534       -1.7531646635  WZ3       2340            0.0000000000
     19021      6341  TIP3      OH2            -2.2730803985        8.6947742534       10.7153853365  WZ3       2341            0.0000000000
     19022      6341  TIP3      H1             -2.7742403985        8.6667142534        9.9003553365  WZ3       2341            0.0000000000
     19023      6341  TIP3      H2             -2.2677103985        7.7890942534       11.0251153365  WZ3       2341            0.0000000000
     19024      6342  TIP3      OH2            -2.5228103985       11.4751542534        7.5994053365  WZ3       2342            0.0000000000
     19025      6342  TIP3      H1             -1.5767503985       11.3308542534        7.5803553365  WZ3       2342            0.0000000000
     19026      6342  TIP3      H2             -2.6351803985       12.2594342534        8.1365253365  WZ3       2342            0.0000000000
     19027      6343  TIP3      OH2            15.6750396015       12.1411242534       13.2817753365  WZ3       2343            0.0000000000
     19028      6343  TIP3      H1             15.6257196015       11.1859342534       13.2445353365  WZ3       2343            0.0000000000
     19029      6343  TIP3      H2             14.8482696015       12.4086542534       13.6831553365  WZ3       2343            0.0000000000
     19030      6344  TIP3      OH2             6.6534396015       11.7150442534       12.1579153365  WZ3       2344            0.0000000000
     19031      6344  TIP3      H1              6.7408996015       12.5415042534       12.6328253365  WZ3       2344            0.0000000000
     19032      6344  TIP3      H2              5.7899496015       11.3854242534       12.4068453365  WZ3       2344            0.0000000000
     19033      6345  TIP3      OH2             7.0680196015       15.4874142534        1.9639753365  WZ3       2345            0.0000000000
     19034      6345  TIP3      H1              6.9926196015       15.3661342534        1.0174953365  WZ3       2345            0.0000000000
     19035      6345  TIP3      H2              7.1008896015       16.4366842534        2.0824353365  WZ3       2345            0.0000000000
     19036      6346  TIP3      OH2             0.7213996015       14.2761142534        3.7448753365  WZ3       2346            0.0000000000
     19037      6346  TIP3      H1              0.8734396015       13.9281542534        4.6235253365  WZ3       2346            0.0000000000
     19038      6346  TIP3      H2             -0.1295603985       13.9198442534        3.4895953365  WZ3       2346            0.0000000000
     19039      6347  TIP3      OH2            10.1696196015       14.6414342534       -1.0337846635  WZ3       2347            0.0000000000
     19040      6347  TIP3      H1             10.5444596015       13.8970442534       -1.5045246635  WZ3       2347            0.0000000000
     19041      6347  TIP3      H2             10.1739896015       14.3714942534       -0.1154546635  WZ3       2347            0.0000000000
     19042      6348  TIP3      OH2             9.8384296015       14.5671442534        1.7154353365  WZ3       2348            0.0000000000
     19043      6348  TIP3      H1              8.9034096015       14.6673342534        1.8941353365  WZ3       2348            0.0000000000
     19044      6348  TIP3      H2             10.1186196015       13.8577442534        2.2937553365  WZ3       2348            0.0000000000
     19045      6349  TIP3      OH2            12.8270196015        3.6343742534       13.7619953365  WZ3       2349            0.0000000000
     19046      6349  TIP3      H1             12.4196996015        4.1149342534       13.0413253365  WZ3       2349            0.0000000000
     19047      6349  TIP3      H2             12.8675896015        2.7289742534       13.4540753365  WZ3       2349            0.0000000000
     19048      6350  TIP3      OH2            -0.0240303985       10.0183142534       11.7586653365  WZ3       2350            0.0000000000
     19049      6350  TIP3      H1              0.1920996015        9.6568742534       12.6182453365  WZ3       2350            0.0000000000
     19050      6350  TIP3      H2             -0.8795603985        9.6436942534       11.5490153365  WZ3       2350            0.0000000000
     19051      6351  TIP3      OH2             2.5947696015       -1.5116357466        7.7540853365  WZ3       2351            0.0000000000
     19052      6351  TIP3      H1              1.7331396015       -1.5988157466        7.3463753365  WZ3       2351            0.0000000000
     19053      6351  TIP3      H2              2.5723396015       -0.6556257466        8.1818453365  WZ3       2351            0.0000000000
     19054      6352  TIP3      OH2             7.2575496015       -1.7895957466       11.1287853365  WZ3       2352            0.0000000000
     19055      6352  TIP3      H1              7.6778596015       -2.2048857466       11.8818453365  WZ3       2352            0.0000000000
     19056      6352  TIP3      H2              6.3245096015       -1.9682657466       11.2459853365  WZ3       2352            0.0000000000
     19057      6353  TIP3      OH2            10.5840396015        1.9659242534       11.9822353365  WZ3       2353            0.0000000000
     19058      6353  TIP3      H1             10.0699896015        1.8401442534       12.7798353365  WZ3       2353            0.0000000000
     19059      6353  TIP3      H2             10.4285096015        2.8782342534       11.7378553365  WZ3       2353            0.0000000000
     19060      6354  TIP3      OH2            11.3465296015        6.8269242534       -2.2564646635  WZ3       2354            0.0000000000
     19061      6354  TIP3      H1             11.3886096015        6.6043142534       -3.1864646635  WZ3       2354            0.0000000000
     19062      6354  TIP3      H2             12.1957396015        7.2256342534       -2.0664746635  WZ3       2354            0.0000000000
     19063      6355  TIP3      OH2             6.9192796015        0.7027442534       -1.5861346635  WZ3       2355            0.0000000000
     19064      6355  TIP3      H1              6.6657596015        0.7219042534       -0.6633246635  WZ3       2355            0.0000000000
     19065      6355  TIP3      H2              6.6624896015       -0.1687157466       -1.8875146635  WZ3       2355            0.0000000000
     19066      6356  TIP3      OH2             2.6857796015        3.4538142534        8.8491053365  WZ3       2356            0.0000000000
     19067      6356  TIP3      H1              2.0439896015        3.4135442534        9.5581153365  WZ3       2356            0.0000000000
     19068      6356  TIP3      H2              2.7229796015        4.3802842534        8.6114053365  WZ3       2356            0.0000000000
     19069      6357  TIP3      OH2             2.6826896015        3.6748242534        3.7611053365  WZ3       2357            0.0000000000
     19070      6357  TIP3      H1              1.7899796015        3.3344342534        3.7024853365  WZ3       2357            0.0000000000
     19071      6357  TIP3      H2              3.1333496015        3.2979142534        3.0054253365  WZ3       2357            0.0000000000
     19072      6358  TIP3      OH2             8.2182396015        4.0908542534        2.5781853365  WZ3       2358            0.0000000000
     19073      6358  TIP3      H1              7.8092696015        4.9057142534        2.2866653365  WZ3       2358            0.0000000000
     19074      6358  TIP3      H2              8.9388596015        3.9508642534        1.9638953365  WZ3       2358            0.0000000000
     19075      6359  TIP3      OH2             7.3203996015        4.2664942534       14.0662553365  WZ3       2359            0.0000000000
     19076      6359  TIP3      H1              6.7577796015        3.5616542534       14.3870353365  WZ3       2359            0.0000000000
     19077      6359  TIP3      H2              8.1467396015        4.1456842534       14.5340153365  WZ3       2359            0.0000000000
     19078      6360  TIP3      OH2             9.2230096015        3.5368942534        5.3921553365  WZ3       2360            0.0000000000
     19079      6360  TIP3      H1              9.0274596015        4.1425742534        4.6772153365  WZ3       2360            0.0000000000
     19080      6360  TIP3      H2              9.4042696015        2.7034142534        4.9577853365  WZ3       2360            0.0000000000
     19081      6361  TIP3      OH2             0.4358296015        3.7741642534       10.7163053365  WZ3       2361            0.0000000000
     19082      6361  TIP3      H1              0.3977696015        4.1743242534       11.5850153365  WZ3       2361            0.0000000000
     19083      6361  TIP3      H2             -0.0550603985        2.9574042534       10.8065953365  WZ3       2361            0.0000000000
     19084      6362  TIP3      OH2             3.8015696015        1.1483942534       -2.4850946635  WZ3       2362            0.0000000000
     19085      6362  TIP3      H1              3.3706396015        0.7034042534       -1.7553546635  WZ3       2362            0.0000000000
     19086      6362  TIP3      H2              3.0834396015        1.5200242534       -2.9973446635  WZ3       2362            0.0000000000
     19087      6363  TIP3      OH2            -2.9560903985        0.8903442534        4.5667753365  WZ3       2363            0.0000000000
     19088      6363  TIP3      H1             -2.3253203985        0.8615542534        5.2861653365  WZ3       2363            0.0000000000
     19089      6363  TIP3      H2             -2.5066603985        0.4652142534        3.8363653365  WZ3       2363            0.0000000000
     19090      6364  TIP3      OH2            -1.6818803985        1.6365442534       -0.0091846635  WZ3       2364            0.0000000000
     19091      6364  TIP3      H1             -1.2077103985        2.2275342534       -0.5940946635  WZ3       2364            0.0000000000
     19092      6364  TIP3      H2             -2.3992403985        2.1668342534        0.3378253365  WZ3       2364            0.0000000000
     19093      6365  TIP3      OH2             8.4869296015        5.1750242534       10.0633953365  WZ3       2365            0.0000000000
     19094      6365  TIP3      H1              8.8104096015        4.5439942534        9.4204453365  WZ3       2365            0.0000000000
     19095      6365  TIP3      H2              8.0468596015        4.6402442534       10.7241353365  WZ3       2365            0.0000000000
     19096      6366  TIP3      OH2             5.2642196015        1.1025742534        4.8475153365  WZ3       2366            0.0000000000
     19097      6366  TIP3      H1              4.3533296015        1.1592542534        5.1361153365  WZ3       2366            0.0000000000
     19098      6366  TIP3      H2              5.7695096015        1.0421242534        5.6582353365  WZ3       2366            0.0000000000
     19099      6367  TIP3      OH2             0.0925596015        2.7312042534        3.6742753365  WZ3       2367            0.0000000000
     19100      6367  TIP3      H1             -0.7966403985        2.8307542534        3.3342353365  WZ3       2367            0.0000000000
     19101      6367  TIP3      H2              0.3890496015        1.8895042534        3.3280653365  WZ3       2367            0.0000000000
     19102      6368  TIP3      OH2             3.7457396015        2.7314642534        1.3307353365  WZ3       2368            0.0000000000
     19103      6368  TIP3      H1              4.6772896015        2.8604642534        1.5090453365  WZ3       2368            0.0000000000
     19104      6368  TIP3      H2              3.5307696015        3.4008942534        0.6812053365  WZ3       2368            0.0000000000
     19105      6369  TIP3      OH2             9.6694096015        0.3372042534        8.1116953365  WZ3       2369            0.0000000000
     19106      6369  TIP3      H1              8.9925696015        0.4685142534        8.7756653365  WZ3       2369            0.0000000000
     19107      6369  TIP3      H2              9.1838996015        0.1821542534        7.3014653365  WZ3       2369            0.0000000000
     19108      6370  TIP3      OH2             2.4197596015        3.9256842534       -1.1026546635  WZ3       2370            0.0000000000
     19109      6370  TIP3      H1              1.8772696015        3.5460642534       -1.7938946635  WZ3       2370            0.0000000000
     19110      6370  TIP3      H2              3.2532496015        4.1201542534       -1.5312446635  WZ3       2370            0.0000000000
     19111      6371  TIP3      OH2            12.9569196015       16.0087442534       14.3884553365  WZ3       2371            0.0000000000
     19112      6371  TIP3      H1             13.1567896015       16.4329342534       13.5539853365  WZ3       2371            0.0000000000
     19113      6371  TIP3      H2             13.6122896015       16.3525642534       14.9954953365  WZ3       2371            0.0000000000
     19114      6372  TIP3      OH2             0.5548996015        8.4828742534       13.9965053365  WZ3       2372            0.0000000000
     19115      6372  TIP3      H1              1.2871396015        8.7374642534       14.5579553365  WZ3       2372            0.0000000000
     19116      6372  TIP3      H2             -0.2252303985        8.6874142534       14.5120453365  WZ3       2372            0.0000000000
     19117      6373  TIP3      OH2             6.5841896015        3.8898742534        6.7344753365  WZ3       2373            0.0000000000
     19118      6373  TIP3      H1              7.1485296015        3.3435342534        6.1874353365  WZ3       2373            0.0000000000
     19119      6373  TIP3      H2              6.4365296015        3.3680642534        7.5232353365  WZ3       2373            0.0000000000
     19120      6374  TIP3      OH2             1.5861596015        0.0264842534        3.1529553365  WZ3       2374            0.0000000000
     19121      6374  TIP3      H1              1.2691096015       -0.8759857466        3.1174953365  WZ3       2374            0.0000000000
     19122      6374  TIP3      H2              2.3675696015        0.0282242534        2.6001153365  WZ3       2374            0.0000000000
     19123      6375  TIP3      OH2             5.2107796015        2.2784842534        9.1485153365  WZ3       2375            0.0000000000
     19124      6375  TIP3      H1              4.3753096015        2.7324342534        9.2587553365  WZ3       2375            0.0000000000
     19125      6375  TIP3      H2              5.7348396015        2.5543342534        9.9005053365  WZ3       2375            0.0000000000
     19126      6376  TIP3      OH2             5.7550396015        8.4912542534        0.8331553365  WZ3       2376            0.0000000000
     19127      6376  TIP3      H1              5.0101396015        7.9837842534        0.5109453365  WZ3       2376            0.0000000000
     19128      6376  TIP3      H2              5.6207596015        8.5400542534        1.7796353365  WZ3       2376            0.0000000000
     19129      6377  TIP3      OH2            12.9049296015        7.6240742534        9.6199153365  WZ3       2377            0.0000000000
     19130      6377  TIP3      H1             13.5468096015        8.0807042534        9.0761353365  WZ3       2377            0.0000000000
     19131      6377  TIP3      H2             12.0746196015        7.7373142534        9.1573253365  WZ3       2377            0.0000000000
     19132      6378  TIP3      OH2             9.6527196015        1.3052442534       -0.9675846635  WZ3       2378            0.0000000000
     19133      6378  TIP3      H1              8.7141396015        1.4168042534       -1.1187046635  WZ3       2378            0.0000000000
     19134      6378  TIP3      H2              9.9499296015        2.1619342534       -0.6610146635  WZ3       2378            0.0000000000
     19135      6379  TIP3      OH2             7.2742496015        8.6755842534       12.0700653365  WZ3       2379            0.0000000000
     19136      6379  TIP3      H1              6.9288596015        8.2938242534       12.8770253365  WZ3       2379            0.0000000000
     19137      6379  TIP3      H2              7.0742596015        9.6089442534       12.1413553365  WZ3       2379            0.0000000000
     19138      6380  TIP3      OH2            10.3710696015        3.1725142534        0.6931553365  WZ3       2380            0.0000000000
     19139      6380  TIP3      H1             11.2629696015        3.0350142534        1.0122753365  WZ3       2380            0.0000000000
     19140      6380  TIP3      H2             10.4274296015        3.9631242534        0.1565053365  WZ3       2380            0.0000000000
     19141      6381  TIP3      OH2             0.8798696015        7.7862542534        6.6029453365  WZ3       2381            0.0000000000
     19142      6381  TIP3      H1              1.6245896015        7.7838242534        6.0015953365  WZ3       2381            0.0000000000
     19143      6381  TIP3      H2              0.9575296015        6.9626342534        7.0844553365  WZ3       2381            0.0000000000
     19144      6382  TIP3      OH2             7.8804496015        9.9496842534       -0.1413846635  WZ3       2382            0.0000000000
     19145      6382  TIP3      H1              7.5852896015       10.7764742534        0.2400953365  WZ3       2382            0.0000000000
     19146      6382  TIP3      H2              7.1774496015        9.3303742534        0.0547553365  WZ3       2382            0.0000000000
     19147      6383  TIP3      OH2            -2.1121603985        6.2469442534       11.9177953365  WZ3       2383            0.0000000000
     19148      6383  TIP3      H1             -1.8893003985        5.8289042534       12.7495453365  WZ3       2383            0.0000000000
     19149      6383  TIP3      H2             -2.7141503985        5.6344442534       11.4950753365  WZ3       2383            0.0000000000
     19150      6384  TIP3      OH2             4.9043296015        5.7639342534       14.1307653365  WZ3       2384            0.0000000000
     19151      6384  TIP3      H1              4.6084096015        5.5982342534       13.2356753365  WZ3       2384            0.0000000000
     19152      6384  TIP3      H2              5.8358496015        5.5439642534       14.1201553365  WZ3       2384            0.0000000000
     19153      6385  TIP3      OH2             9.5246096015       11.1371342534       12.0205653365  WZ3       2385            0.0000000000
     19154      6385  TIP3      H1              8.6240396015       11.3203942534       11.7529553365  WZ3       2385            0.0000000000
     19155      6385  TIP3      H2              9.5587196015       11.3960642534       12.9414453365  WZ3       2385            0.0000000000
     19156      6386  TIP3      OH2            15.2559396015        3.3819242534        0.3878253365  WZ3       2386            0.0000000000
     19157      6386  TIP3      H1             14.7015696015        2.9857242534       -0.2844246635  WZ3       2386            0.0000000000
     19158      6386  TIP3      H2             15.3562996015        4.2924442534        0.1101553365  WZ3       2386            0.0000000000
     19159      6387  TIP3      OH2            15.2191396015        9.1820942534       13.2249753365  WZ3       2387            0.0000000000
     19160      6387  TIP3      H1             14.3679896015        9.4204742534       12.8576153365  WZ3       2387            0.0000000000
     19161      6387  TIP3      H2             15.8094796015        9.1654142534       12.4716853365  WZ3       2387            0.0000000000
     19162      6388  TIP3      OH2            13.5511096015       12.1679642534        0.8530353365  WZ3       2388            0.0000000000
     19163      6388  TIP3      H1             13.1782196015       11.3423442534        1.1620953365  WZ3       2388            0.0000000000
     19164      6388  TIP3      H2             13.8284596015       11.9849042534       -0.0446246635  WZ3       2388            0.0000000000
     19165      6389  TIP3      OH2            10.7114996015        6.9759142534        7.8742253365  WZ3       2389            0.0000000000
     19166      6389  TIP3      H1              9.7831896015        6.7441042534        7.8471553365  WZ3       2389            0.0000000000
     19167      6389  TIP3      H2             11.1626096015        6.1988942534        7.5441053365  WZ3       2389            0.0000000000
     19168      6390  TIP3      OH2             3.2548096015       11.3040742534        4.0070953365  WZ3       2390            0.0000000000
     19169      6390  TIP3      H1              3.7820296015       12.0775142534        3.8069753365  WZ3       2390            0.0000000000
     19170      6390  TIP3      H2              2.3746596015       11.5289942534        3.7054953365  WZ3       2390            0.0000000000
     19171      6391  TIP3      OH2            -0.9904203985        6.1664842534       -1.4056646635  WZ3       2391            0.0000000000
     19172      6391  TIP3      H1             -0.3744303985        6.7932042534       -1.0261846635  WZ3       2391            0.0000000000
     19173      6391  TIP3      H2             -1.8521603985        6.4824642534       -1.1340146635  WZ3       2391            0.0000000000
     19174      6392  TIP3      OH2             4.6820396015        8.9670642534        3.5835253365  WZ3       2392            0.0000000000
     19175      6392  TIP3      H1              4.4410396015        9.8925042534        3.6250553365  WZ3       2392            0.0000000000
     19176      6392  TIP3      H2              3.9413996015        8.5081942534        3.9799153365  WZ3       2392            0.0000000000
     19177      6393  TIP3      OH2             5.1966996015       13.1164242534        9.8986353365  WZ3       2393            0.0000000000
     19178      6393  TIP3      H1              5.5591696015       13.9709842534        9.6650753365  WZ3       2393            0.0000000000
     19179      6393  TIP3      H2              5.7282196015       12.8245842534       10.6392653365  WZ3       2393            0.0000000000
     19180      6394  TIP3      OH2             3.3651196015       13.9888242534        3.1287453365  WZ3       2394            0.0000000000
     19181      6394  TIP3      H1              2.4151696015       14.0945642534        3.1800753365  WZ3       2394            0.0000000000
     19182      6394  TIP3      H2              3.7169296015       14.8095642534        3.4734953365  WZ3       2394            0.0000000000
     19183      6395  TIP3      OH2             8.7407796015        9.2154942534        9.5991953365  WZ3       2395            0.0000000000
     19184      6395  TIP3      H1              8.3149096015        8.9876642534       10.4255953365  WZ3       2395            0.0000000000
     19185      6395  TIP3      H2              9.3213596015        8.4766742534        9.4167253365  WZ3       2395            0.0000000000
     19186      6396  TIP3      OH2            10.9436696015       10.1445442534       -1.3269046635  WZ3       2396            0.0000000000
     19187      6396  TIP3      H1             11.2969796015        9.7645242534       -0.5225546635  WZ3       2396            0.0000000000
     19188      6396  TIP3      H2              9.9950196015       10.0510242534       -1.2399746635  WZ3       2396            0.0000000000
     19189      6397  TIP3      OH2            11.3991996015       13.7674442534       12.0686753365  WZ3       2397            0.0000000000
     19190      6397  TIP3      H1             10.7975196015       13.2117342534       11.5733053365  WZ3       2397            0.0000000000
     19191      6397  TIP3      H2             11.6805696015       14.4344242534       11.4424153365  WZ3       2397            0.0000000000
     19192      6398  TIP3      OH2            15.4471096015       14.6237942534       -1.1258846635  WZ3       2398            0.0000000000
     19193      6398  TIP3      H1             16.1908996015       15.2098442534       -1.2657246635  WZ3       2398            0.0000000000
     19194      6398  TIP3      H2             14.7529196015       15.1923742534       -0.7926446635  WZ3       2398            0.0000000000
     19195      6399  TIP3      OH2            -0.4782103985        1.0002142534       11.4759353365  WZ3       2399            0.0000000000
     19196      6399  TIP3      H1             -1.3709803985        1.3387542534       11.4083353365  WZ3       2399            0.0000000000
     19197      6399  TIP3      H2             -0.5769303985        0.1448242534       11.8940153365  WZ3       2399            0.0000000000
     19198      6400  TIP3      OH2            11.8095996015        8.8167442534        0.8998853365  WZ3       2400            0.0000000000
     19199      6400  TIP3      H1             11.5323596015        8.0886742534        1.4559953365  WZ3       2400            0.0000000000
     19200      6400  TIP3      H2             12.7368996015        8.9359442534        1.1051453365  WZ3       2400            0.0000000000
     19201      6401  TIP3      OH2            -0.8270103985       12.8046542534        9.9108753365  WZ3       2401            0.0000000000
     19202      6401  TIP3      H1             -0.6099803985       11.8728942534        9.8798453365  WZ3       2401            0.0000000000
     19203      6401  TIP3      H2             -0.5806603985       13.0791542534       10.7941553365  WZ3       2401            0.0000000000
     19204      6402  TIP3      OH2             5.0344496015       11.2561542534       -2.8799046635  WZ3       2402            0.0000000000
     19205      6402  TIP3      H1              5.2734296015       10.5079642534       -3.4270146635  WZ3       2402            0.0000000000
     19206      6402  TIP3      H2              4.7655796015       10.8683242534       -2.0471246635  WZ3       2402            0.0000000000
     19207      6403  TIP3      OH2             3.9715096015       10.8265342534       -0.4236446635  WZ3       2403            0.0000000000
     19208      6403  TIP3      H1              4.1183096015       10.3065142534        0.3664453365  WZ3       2403            0.0000000000
     19209      6403  TIP3      H2              3.9686796015       11.7332942534       -0.1170546635  WZ3       2403            0.0000000000
     19210      6404  TIP3      OH2             0.4246196015        8.0788642534        0.0868953365  WZ3       2404            0.0000000000
     19211      6404  TIP3      H1             -0.2614503985        8.4311142534        0.6538653365  WZ3       2404            0.0000000000
     19212      6404  TIP3      H2              0.9474096015        8.8418242534       -0.1596746635  WZ3       2404            0.0000000000
     19213      6405  TIP3      OH2             8.2561296015        0.7412442534       10.3657953365  WZ3       2405            0.0000000000
     19214      6405  TIP3      H1              8.9549196015        0.8151142534       11.0157653365  WZ3       2405            0.0000000000
     19215      6405  TIP3      H2              7.8752696015       -0.1232557466       10.5200853365  WZ3       2405            0.0000000000
     19216      6406  TIP3      OH2             9.0406196015        0.3934142534        1.4630253365  WZ3       2406            0.0000000000
     19217      6406  TIP3      H1              9.2604496015        0.8649542534        0.6595653365  WZ3       2406            0.0000000000
     19218      6406  TIP3      H2              9.5990196015        0.7876742534        2.1330853365  WZ3       2406            0.0000000000
     19219      6407  TIP3      OH2             6.7092296015       12.5238942534        0.3257753365  WZ3       2407            0.0000000000
     19220      6407  TIP3      H1              5.8928396015       13.0208642534        0.3782053365  WZ3       2407            0.0000000000
     19221      6407  TIP3      H2              7.2388596015       12.9992442534       -0.3143446635  WZ3       2407            0.0000000000
     19222      6408  TIP3      OH2             6.2406096015        2.1212942534        2.2978653365  WZ3       2408            0.0000000000
     19223      6408  TIP3      H1              7.0528696015        2.6256142534        2.3440353365  WZ3       2408            0.0000000000
     19224      6408  TIP3      H2              5.9959096015        1.9762642534        3.2118253365  WZ3       2408            0.0000000000
     19225      6409  TIP3      OH2             6.7762496015        3.1075642534       11.4825253365  WZ3       2409            0.0000000000
     19226      6409  TIP3      H1              6.8952796015        3.6811042534       12.2395653365  WZ3       2409            0.0000000000
     19227      6409  TIP3      H2              7.4317096015        2.4195042534       11.5973053365  WZ3       2409            0.0000000000
     19228      6410  TIP3      OH2             7.1242796015       -0.7974057466        3.2359753365  WZ3       2410            0.0000000000
     19229      6410  TIP3      H1              6.7776296015       -0.1803457466        3.8804053365  WZ3       2410            0.0000000000
     19230      6410  TIP3      H2              7.7829696015       -0.2968357466        2.7545253365  WZ3       2410            0.0000000000
     19231      6411  TIP3      OH2             4.0475396015       13.5676142534        0.3074653365  WZ3       2411            0.0000000000
     19232      6411  TIP3      H1              4.2084096015       14.3673642534       -0.1932746635  WZ3       2411            0.0000000000
     19233      6411  TIP3      H2              3.8503196015       13.8742142534        1.1925253365  WZ3       2411            0.0000000000
     19234      6412  TIP3      OH2             2.7819796015        0.2655342534       -0.0767746635  WZ3       2412            0.0000000000
     19235      6412  TIP3      H1              2.6984596015        1.1538442534        0.2698653365  WZ3       2412            0.0000000000
     19236      6412  TIP3      H2              3.6720096015        0.0002042534        0.1549053365  WZ3       2412            0.0000000000
     19237      6413  TIP3      OH2            12.9808296015        1.0145942534       12.3174953365  WZ3       2413            0.0000000000
     19238      6413  TIP3      H1             12.0644096015        1.2767642534       12.2298653365  WZ3       2413            0.0000000000
     19239      6413  TIP3      H2             13.3163296015        1.0114942534       11.4210253365  WZ3       2413            0.0000000000
     19240      6414  TIP3      OH2            11.5829296015        4.7646942534        6.4132253365  WZ3       2414            0.0000000000
     19241      6414  TIP3      H1             10.7853696015        4.3497142534        6.0847253365  WZ3       2414            0.0000000000
     19242      6414  TIP3      H2             12.0280396015        4.0740642534        6.9042753365  WZ3       2414            0.0000000000
     19243      6415  TIP3      OH2             1.0405096015       10.6927542534       -1.0163246635  WZ3       2415            0.0000000000
     19244      6415  TIP3      H1              1.6326596015       11.3922342534       -0.7400846635  WZ3       2415            0.0000000000
     19245      6415  TIP3      H2              1.4998096015       10.2597042534       -1.7358646635  WZ3       2415            0.0000000000
     19246      6416  TIP3      OH2            -0.6435703985        3.3570542534       -1.9003846635  WZ3       2416            0.0000000000
     19247      6416  TIP3      H1             -0.6883103985        4.2963642534       -1.7216846635  WZ3       2416            0.0000000000
     19248      6416  TIP3      H2             -1.5312503985        3.1215442534       -2.1701746635  WZ3       2416            0.0000000000
     19249      6417  TIP3      OH2            12.6693896015       14.0209442534        8.0355753365  WZ3       2417            0.0000000000
     19250      6417  TIP3      H1             12.5138196015       14.6993842534        7.3785053365  WZ3       2417            0.0000000000
     19251      6417  TIP3      H2             13.6020296015       14.0928742534        8.2386353365  WZ3       2417            0.0000000000
     19252      6418  TIP3      OH2             0.1646296015       -1.8612857466        6.7727153365  WZ3       2418            0.0000000000
     19253      6418  TIP3      H1             -0.0643903985       -1.8020357466        5.8452153365  WZ3       2418            0.0000000000
     19254      6418  TIP3      H2             -0.2780303985       -2.6527357466        7.0791253365  WZ3       2418            0.0000000000
     19255      6419  TIP3      OH2            -0.9050403985       12.0794242534        2.9332953365  WZ3       2419            0.0000000000
     19256      6419  TIP3      H1             -1.7371803985       12.5516942534        2.9604353365  WZ3       2419            0.0000000000
     19257      6419  TIP3      H2             -0.3592103985       12.5891842534        2.3346053365  WZ3       2419            0.0000000000
     19258      6420  TIP3      OH2            -1.6166703985       14.6917942534       14.2630953365  WZ3       2420            0.0000000000
     19259      6420  TIP3      H1             -1.0764503985       14.4751942534       15.0230153365  WZ3       2420            0.0000000000
     19260      6420  TIP3      H2             -2.0978703985       13.8863942534       14.0733453365  WZ3       2420            0.0000000000
     19261      6421  TIP3      OH2             2.9806696015       13.6112342534       15.8835153365  WZ3       2421            0.0000000000
     19262      6421  TIP3      H1              3.7483896015       13.1523142534       16.2244353365  WZ3       2421            0.0000000000
     19263      6421  TIP3      H2              2.9592896015       13.3852142534       14.9536353365  WZ3       2421            0.0000000000
     19264      6422  TIP3      OH2             7.0726296015       13.1192942534       -2.7413046635  WZ3       2422            0.0000000000
     19265      6422  TIP3      H1              6.4287296015       12.4881542534       -2.4199346635  WZ3       2422            0.0000000000
     19266      6422  TIP3      H2              7.8344596015       12.5880942534       -2.9729546635  WZ3       2422            0.0000000000
     19267      6423  TIP3      OH2             9.5575396015       11.9913442534       14.6126653365  WZ3       2423            0.0000000000
     19268      6423  TIP3      H1              9.2064896015       11.1346442534       14.8557053365  WZ3       2423            0.0000000000
     19269      6423  TIP3      H2             10.2838596015       12.1340142534       15.2195653365  WZ3       2423            0.0000000000
     19270      6424  TIP3      OH2            11.6769196015       12.9362842534       -2.5075046635  WZ3       2424            0.0000000000
     19271      6424  TIP3      H1             11.9599596015       12.1418042534       -2.0548146635  WZ3       2424            0.0000000000
     19272      6424  TIP3      H2             12.4167096015       13.1693842534       -3.0683946635  WZ3       2424            0.0000000000
     19273      6425  TIP3      OH2            -1.7097203985        8.5022042534       15.2175253365  WZ3       2425            0.0000000000
     19274      6425  TIP3      H1             -1.5656703985        7.6002742534       14.9311953365  WZ3       2425            0.0000000000
     19275      6425  TIP3      H2             -2.4819803985        8.7884142534       14.7297553365  WZ3       2425            0.0000000000
     19276      6426  TIP3      OH2             2.6316496015        8.8457742534       -2.6500146635  WZ3       2426            0.0000000000
     19277      6426  TIP3      H1              2.6960596015        8.0517342534       -2.1193746635  WZ3       2426            0.0000000000
     19278      6426  TIP3      H2              3.2845696015        8.7270542534       -3.3398146635  WZ3       2426            0.0000000000
     19279      6427  TIP3      OH2             4.9458896015        8.4720142534       14.6501653365  WZ3       2427            0.0000000000
     19280      6427  TIP3      H1              4.6172696015        8.7428242534       13.7929053365  WZ3       2427            0.0000000000
     19281      6427  TIP3      H2              5.0977096015        7.5309942534       14.5626653365  WZ3       2427            0.0000000000
     19282      6428  TIP3      OH2             7.9839896015        9.8929442534       -2.9142146635  WZ3       2428            0.0000000000
     19283      6428  TIP3      H1              7.7153996015       10.0731542534       -2.0133246635  WZ3       2428            0.0000000000
     19284      6428  TIP3      H2              7.7775496015        8.9675642534       -3.0456346635  WZ3       2428            0.0000000000
     19285      6429  TIP3      OH2            10.6804096015        8.3877442534       12.0333953365  WZ3       2429            0.0000000000
     19286      6429  TIP3      H1             11.4258896015        8.9761142534       11.9137953365  WZ3       2429            0.0000000000
     19287      6429  TIP3      H2              9.9230896015        8.9697142534       12.0967053365  WZ3       2429            0.0000000000
     19288      6430  TIP3      OH2            -0.8770703985        5.7025342534       14.6374553365  WZ3       2430            0.0000000000
     19289      6430  TIP3      H1             -0.4689503985        4.8451942534       14.5165153365  WZ3       2430            0.0000000000
     19290      6430  TIP3      H2             -1.1373103985        5.7166642534       15.5584853365  WZ3       2430            0.0000000000
     19291      6431  TIP3      OH2             3.7810296015        6.8183942534       -0.3442146635  WZ3       2431            0.0000000000
     19292      6431  TIP3      H1              3.3212296015        6.3342242534        0.3416353365  WZ3       2431            0.0000000000
     19293      6431  TIP3      H2              4.0358996015        6.1499342534       -0.9801646635  WZ3       2431            0.0000000000
     19294      6432  TIP3      OH2             3.0699596015        4.7111042534       12.0117453365  WZ3       2432            0.0000000000
     19295      6432  TIP3      H1              2.4515696015        5.3857642534       12.2922153365  WZ3       2432            0.0000000000
     19296      6432  TIP3      H2              3.4140796015        5.0324942534       11.1783653365  WZ3       2432            0.0000000000
     19297      6433  TIP3      OH2             4.8520696015        5.0615742534       -2.0818946635  WZ3       2433            0.0000000000
     19298      6433  TIP3      H1              4.6715696015        4.9066942534       -3.0090646635  WZ3       2433            0.0000000000
     19299      6433  TIP3      H2              5.8021196015        5.1694442534       -2.0371046635  WZ3       2433            0.0000000000
     19300      6434  TIP3      OH2             8.0897796015        7.1826342534       15.2892253365  WZ3       2434            0.0000000000
     19301      6434  TIP3      H1              9.0428996015        7.2665442534       15.2618253365  WZ3       2434            0.0000000000
     19302      6434  TIP3      H2              7.9292396015        6.4708142534       15.9087153365  WZ3       2434            0.0000000000
     19303      6435  TIP3      OH2            14.2418996015        7.4159942534       -2.6360846635  WZ3       2435            0.0000000000
     19304      6435  TIP3      H1             13.9683796015        6.9915442534       -3.4492546635  WZ3       2435            0.0000000000
     19305      6435  TIP3      H2             14.2813096015        8.3474442534       -2.8530446635  WZ3       2435            0.0000000000
     19306      6436  TIP3      OH2             3.4093296015        2.0661842534       13.0940553365  WZ3       2436            0.0000000000
     19307      6436  TIP3      H1              3.5594196015        1.3373142534       12.4920253365  WZ3       2436            0.0000000000
     19308      6436  TIP3      H2              3.4115696015        2.8433542534       12.5352753365  WZ3       2436            0.0000000000
     19309      6437  TIP3      OH2             3.8218996015        0.4357642534       10.5867953365  WZ3       2437            0.0000000000
     19310      6437  TIP3      H1              4.3576496015        0.8874342534        9.9347253365  WZ3       2437            0.0000000000
     19311      6437  TIP3      H2              2.9698596015        0.3277442534       10.1642053365  WZ3       2437            0.0000000000
     19312      6438  TIP3      OH2             5.4037396015        5.8753842534       10.8263153365  WZ3       2438            0.0000000000
     19313      6438  TIP3      H1              6.1542196015        5.7191342534       10.2530953365  WZ3       2438            0.0000000000
     19314      6438  TIP3      H2              5.0645696015        6.7270442534       10.5508653365  WZ3       2438            0.0000000000
     19315      6439  TIP3      OH2             9.8193596015        3.6905642534       15.8548453365  WZ3       2439            0.0000000000
     19316      6439  TIP3      H1             10.0114896015        2.7595042534       15.7432953365  WZ3       2439            0.0000000000
     19317      6439  TIP3      H2             10.6769896015        4.1155142534       15.8443853365  WZ3       2439            0.0000000000
     19318      6440  TIP3      OH2            11.1360796015        6.4790842534       13.9321153365  WZ3       2440            0.0000000000
     19319      6440  TIP3      H1             10.8545796015        7.1885442534       13.3544953365  WZ3       2440            0.0000000000
     19320      6440  TIP3      H2             12.0785096015        6.4063842534       13.7812353365  WZ3       2440            0.0000000000
     19321      6441  TIP3      OH2             1.8879596015        3.2645342534       15.0056153365  WZ3       2441            0.0000000000
     19322      6441  TIP3      H1              1.1208596015        2.7320142534       14.7953753365  WZ3       2441            0.0000000000
     19323      6441  TIP3      H2              2.5668596015        2.9545742534       14.4062453365  WZ3       2441            0.0000000000
     19324      6442  TIP3      OH2             4.6274496015       -2.1076657466       11.0181553365  WZ3       2442            0.0000000000
     19325      6442  TIP3      H1              4.5294096015       -1.1613457466       10.9127753365  WZ3       2442            0.0000000000
     19326      6442  TIP3      H2              3.8850696015       -2.4802857466       10.5425053365  WZ3       2442            0.0000000000
     19327      6443  TIP3      OH2             5.8914996015        2.2138742534       14.5819953365  WZ3       2443            0.0000000000
     19328      6443  TIP3      H1              5.6560396015        1.9945442534       15.4834853365  WZ3       2443            0.0000000000
     19329      6443  TIP3      H2              5.1081896015        2.0069942534       14.0722453365  WZ3       2443            0.0000000000
     19330      6444  TIP3      OH2             8.6071596015        1.3412242534       13.6573453365  WZ3       2444            0.0000000000
     19331      6444  TIP3      H1              7.6596996015        1.3731942534       13.7896753365  WZ3       2444            0.0000000000
     19332      6444  TIP3      H2              8.9198296015        0.7159342534       14.3111653365  WZ3       2444            0.0000000000
     19333      6445  TIP3      OH2            10.2413096015       -0.0246657466       15.6625353365  WZ3       2445            0.0000000000
     19334      6445  TIP3      H1             10.1444896015       -0.9769357466       15.6567253365  WZ3       2445            0.0000000000
     19335      6445  TIP3      H2              9.9196196015        0.2440142534       16.5230853365  WZ3       2445            0.0000000000
     19336      6446  TIP3      OH2             0.0682396015        1.1849142534       14.7100853365  WZ3       2446            0.0000000000
     19337      6446  TIP3      H1              0.2799796015        0.4785242534       14.0998353365  WZ3       2446            0.0000000000
     19338      6446  TIP3      H2             -0.0430103985        0.7475142534       15.5542053365  WZ3       2446            0.0000000000
     19339      6447  TIP3      OH2             4.8492596015       -2.8139257466       13.6894353365  WZ3       2447            0.0000000000
     19340      6447  TIP3      H1              5.5610996015       -3.4537057466       13.6753453365  WZ3       2447            0.0000000000
     19341      6447  TIP3      H2              4.7482996015       -2.5470957466       12.7757453365  WZ3       2447            0.0000000000
     19342      6448  TIP3      OH2             5.2030096015       -1.1310857466       15.7430653365  WZ3       2448            0.0000000000
     19343      6448  TIP3      H1              5.0712296015       -1.6067057466       14.9229153365  WZ3       2448            0.0000000000
     19344      6448  TIP3      H2              4.6037496015       -0.3867257466       15.6877753365  WZ3       2448            0.0000000000
     19345      6449  TIP3      OH2             4.7492396015       15.7519442534       -1.0805346635  WZ3       2449            0.0000000000
     19346      6449  TIP3      H1              5.6823096015       15.9098142534       -0.9366946635  WZ3       2449            0.0000000000
     19347      6449  TIP3      H2              4.4851196015       16.4272442534       -1.7053846635  WZ3       2449            0.0000000000
     19348      6450  TIP3      OH2            -1.6822703985       10.3883242534       -1.5977246635  WZ3       2450            0.0000000000
     19349      6450  TIP3      H1             -0.7683503985       10.4672142534       -1.3243346635  WZ3       2450            0.0000000000
     19350      6450  TIP3      H2             -1.6749603985        9.7012842534       -2.2641646635  WZ3       2450            0.0000000000
     19351      6451  TIP3      OH2            -3.0332103985       15.7811742534        3.4796653365  WZ3       2451            0.0000000000
     19352      6451  TIP3      H1             -3.6805003985       15.3193442534        2.9467853365  WZ3       2451            0.0000000000
     19353      6451  TIP3      H2             -2.6787503985       15.1095042534        4.0622853365  WZ3       2451            0.0000000000
     19354      6452  TIP3      OH2            -2.1632903985       13.8618742534        5.2842853365  WZ3       2452            0.0000000000
     19355      6452  TIP3      H1             -2.4976103985       12.9816042534        5.4563053365  WZ3       2452            0.0000000000
     19356      6452  TIP3      H2             -1.9410503985       14.2073742534        6.1488453365  WZ3       2452            0.0000000000
     19357      6453  TIP3      OH2            15.3851896015       14.6715142534        8.2647653365  WZ3       2453            0.0000000000
     19358      6453  TIP3      H1             15.3638596015       14.8563542534        9.2037053365  WZ3       2453            0.0000000000
     19359      6453  TIP3      H2             16.0758096015       15.2399142534        7.9239053365  WZ3       2453            0.0000000000
     19360      6454  TIP3      OH2            14.9484796015       14.2386242534       11.1866753365  WZ3       2454            0.0000000000
     19361      6454  TIP3      H1             14.4613496015       13.5030342534       10.8154153365  WZ3       2454            0.0000000000
     19362      6454  TIP3      H2             15.4977496015       13.8450142534       11.8646153365  WZ3       2454            0.0000000000
     19363      6455  TIP3      OH2            13.3992096015       10.0284342534       15.8247053365  WZ3       2455            0.0000000000
     19364      6455  TIP3      H1             12.5333196015        9.9234042534       16.2189353365  WZ3       2455            0.0000000000
     19365      6455  TIP3      H2             13.7757996015       10.7867642534       16.2711753365  WZ3       2455            0.0000000000
     19366      6456  TIP3      OH2            14.7001796015        8.2848042534        1.3389553365  WZ3       2456            0.0000000000
     19367      6456  TIP3      H1             15.5503196015        8.7058942534        1.4661153365  WZ3       2456            0.0000000000
     19368      6456  TIP3      H2             14.7056896015        7.5448142534        1.9460953365  WZ3       2456            0.0000000000
     19369      6457  TIP3      OH2            15.0947396015        6.3385442534        3.1625253365  WZ3       2457            0.0000000000
     19370      6457  TIP3      H1             14.3681996015        5.8588042534        3.5602853365  WZ3       2457            0.0000000000
     19371      6457  TIP3      H2             15.6760696015        6.5440142534        3.8946853365  WZ3       2457            0.0000000000
     19372      6458  TIP3      OH2            14.8538596015        9.1232942534        8.1102853365  WZ3       2458            0.0000000000
     19373      6458  TIP3      H1             15.6872796015        8.7452942534        7.8296453365  WZ3       2458            0.0000000000
     19374      6458  TIP3      H2             14.9658896015       10.0664142534        7.9911953365  WZ3       2458            0.0000000000
     19375      6459  TIP3      OH2            13.3400896015       12.0010442534       10.4171253365  WZ3       2459            0.0000000000
     19376      6459  TIP3      H1             12.6926196015       12.3261942534       11.0426453365  WZ3       2459            0.0000000000
     19377      6459  TIP3      H2             12.8224896015       11.5608142534        9.7429553365  WZ3       2459            0.0000000000
     19378      6460  TIP3      OH2            15.3630496015        6.2393942534       -0.4463446635  WZ3       2460            0.0000000000
     19379      6460  TIP3      H1             14.8411596015        6.5958042534       -1.1652546635  WZ3       2460            0.0000000000
     19380      6460  TIP3      H2             15.3299696015        6.9141742534        0.2317453365  WZ3       2460            0.0000000000
     19381      6461  TIP3      OH2            13.7119496015        3.4789542534       -1.8956346635  WZ3       2461            0.0000000000
     19382      6461  TIP3      H1             13.8083896015        4.1456542534       -2.5756646635  WZ3       2461            0.0000000000
     19383      6461  TIP3      H2             13.5719096015        2.6635842534       -2.3770846635  WZ3       2461            0.0000000000
     19384      6462  TIP3      OH2            12.8814196015        4.8591942534        3.7253953365  WZ3       2462            0.0000000000
     19385      6462  TIP3      H1             12.7312996015        3.9140542534        3.7051753365  WZ3       2462            0.0000000000
     19386      6462  TIP3      H2             12.5278696015        5.1403342534        4.5693053365  WZ3       2462            0.0000000000
     19387      6463  TIP3      OH2            -2.0833403985        6.9374142534        7.7357753365  WZ3       2463            0.0000000000
     19388      6463  TIP3      H1             -1.8990503985        6.8555842534        6.8000653365  WZ3       2463            0.0000000000
     19389      6463  TIP3      H2             -1.2340503985        6.8131142534        8.1594153365  WZ3       2463            0.0000000000
     19390      6464  TIP3      OH2            13.7377096015        6.8295242534       13.3642253365  WZ3       2464            0.0000000000
     19391      6464  TIP3      H1             14.3204396015        6.0947542534       13.5559453365  WZ3       2464            0.0000000000
     19392      6464  TIP3      H2             14.3016396015        7.6015542534       13.4108053365  WZ3       2464            0.0000000000
     19393      6465  TIP3      OH2            15.2344196015        4.7321042534       14.0487653365  WZ3       2465            0.0000000000
     19394      6465  TIP3      H1             14.3710896015        4.3533142534       13.8832353365  WZ3       2465            0.0000000000
     19395      6465  TIP3      H2             15.8387896015        3.9935842534       13.9743453365  WZ3       2465            0.0000000000
     19396      6466  TIP3      OH2            12.9593296015        0.8869342534       -2.7780846635  WZ3       2466            0.0000000000
     19397      6466  TIP3      H1             13.5699096015        0.5156142534       -2.1412646635  WZ3       2466            0.0000000000
     19398      6466  TIP3      H2             12.1224796015        0.4656242534       -2.5820846635  WZ3       2466            0.0000000000
     19399      6467  TIP3      OH2            12.5918996015        2.4417742534        2.1879053365  WZ3       2467            0.0000000000
     19400      6467  TIP3      H1             12.8716096015        1.5348142534        2.3120753365  WZ3       2467            0.0000000000
     19401      6467  TIP3      H2             13.3510696015        2.8759242534        1.7988253365  WZ3       2467            0.0000000000
     19402      6468  TIP3      OH2            13.2037296015        3.0235142534        7.6237953365  WZ3       2468            0.0000000000
     19403      6468  TIP3      H1             14.1365296015        3.2355042534        7.5893953365  WZ3       2468            0.0000000000
     19404      6468  TIP3      H2             12.9684796015        3.1247242534        8.5460953365  WZ3       2468            0.0000000000
     19405      6469  TIP3      OH2            13.2329196015        3.7600442534       10.3997353365  WZ3       2469            0.0000000000
     19406      6469  TIP3      H1             12.3900496015        4.0280842534       10.7657153365  WZ3       2469            0.0000000000
     19407      6469  TIP3      H2             13.6753496015        4.5822342534       10.1888453365  WZ3       2469            0.0000000000
     19408      6470  TIP3      OH2            -2.4858603985        2.2079142534       13.8766553365  WZ3       2470            0.0000000000
     19409      6470  TIP3      H1             -1.5663703985        2.0857442534       14.1129653365  WZ3       2470            0.0000000000
     19410      6470  TIP3      H2             -2.9354103985        1.4578842534       14.2660053365  WZ3       2470            0.0000000000
     19411      6471  TIP3      OH2            15.5160796015       -2.2599357466       15.7532353365  WZ3       2471            0.0000000000
     19412      6471  TIP3      H1             15.8657796015       -2.9135857466       15.1477053365  WZ3       2471            0.0000000000
     19413      6471  TIP3      H2             15.6630296015       -1.4225257466       15.3134953365  WZ3       2471            0.0000000000
     19414      6472  TIP3      OH2            13.2053796015       -0.2952957466        2.2361053365  WZ3       2472            0.0000000000
     19415      6472  TIP3      H1             13.3878796015       -0.7441457466        3.0616053365  WZ3       2472            0.0000000000
     19416      6472  TIP3      H2             12.6056696015       -0.8798557466        1.7725653365  WZ3       2472            0.0000000000
     19417      6473  TIP3      OH2            -1.2646103985        0.5200742534        6.7679453365  WZ3       2473            0.0000000000
     19418      6473  TIP3      H1             -0.8194503985       -0.2716757466        7.0699153365  WZ3       2473            0.0000000000
     19419      6473  TIP3      H2             -0.7983103985        1.2365942534        7.1985053365  WZ3       2473            0.0000000000
     19420      6474  TIP3      OH2            -2.9605803985        3.5193742534        7.8369653365  WZ3       2474            0.0000000000
     19421      6474  TIP3      H1             -2.4686003985        3.2984242534        7.0461653365  WZ3       2474            0.0000000000
     19422      6474  TIP3      H2             -2.5984903985        4.3597142534        8.1179153365  WZ3       2474            0.0000000000
     19423      6475  TIP3      OH2            15.0357996015       -0.1504757466       14.1023653365  WZ3       2475            0.0000000000
     19424      6475  TIP3      H1             14.1183696015        0.1202342534       14.0667153365  WZ3       2475            0.0000000000
     19425      6475  TIP3      H2             15.1587396015       -0.6856357466       13.3183353365  WZ3       2475            0.0000000000
     19426      6476  TIP3      OH2            15.0719996015       -0.2274857466       -1.2358646635  WZ3       2476            0.0000000000
     19427      6476  TIP3      H1             15.4842596015       -0.9489157466       -1.7110646635  WZ3       2476            0.0000000000
     19428      6476  TIP3      H2             15.7536496015        0.4419742534       -1.1774346635  WZ3       2476            0.0000000000
     19429      6477  TIP3      OH2            -2.6469303985       -0.2227157466        1.8912053365  WZ3       2477            0.0000000000
     19430      6477  TIP3      H1             -3.5720903985       -0.0140557466        1.7617553365  WZ3       2477            0.0000000000
     19431      6477  TIP3      H2             -2.1929403985        0.2613642534        1.2014353365  WZ3       2477            0.0000000000
     19432      6478  TIP3      OH2            12.1237896015       14.7614542534        3.8369453365  WZ3       2478            0.0000000000
     19433      6478  TIP3      H1             12.7760796015       14.4136642534        3.2288553365  WZ3       2478            0.0000000000
     19434      6478  TIP3      H2             12.6341696015       15.2497742534        4.4829153365  WZ3       2478            0.0000000000
     19435      6479  TIP3      OH2            -2.6833903985       -1.4848157466       10.2354553365  WZ3       2479            0.0000000000
     19436      6479  TIP3      H1             -3.3483403985       -1.7307857466       10.8785453365  WZ3       2479            0.0000000000
     19437      6479  TIP3      H2             -3.1262603985       -0.8627757466        9.6582553365  WZ3       2479            0.0000000000
     19438      6480  TIP3      OH2            -0.4914603985       11.6905942534       14.3800353365  WZ3       2480            0.0000000000
     19439      6480  TIP3      H1             -1.3122103985       11.8652442534       13.9195053365  WZ3       2480            0.0000000000
     19440      6480  TIP3      H2             -0.7436803985       11.6170642534       15.3004753365  WZ3       2480            0.0000000000
     19441      6481  TIP3      OH2             2.4628296015       12.6647142534       10.6384353365  WZ3       2481            0.0000000000
     19442      6481  TIP3      H1              2.0379396015       13.4745642534       10.3558953365  WZ3       2481            0.0000000000
     19443      6481  TIP3      H2              3.3671096015       12.7501242534       10.3364153365  WZ3       2481            0.0000000000
     19444      6482  TIP3      OH2             6.7739696015       14.0637142534       13.5978053365  WZ3       2482            0.0000000000
     19445      6482  TIP3      H1              6.9587196015       13.7303242534       14.4758353365  WZ3       2482            0.0000000000
     19446      6482  TIP3      H2              7.6204196015       14.3735742534       13.2757253365  WZ3       2482            0.0000000000
     19447      6483  TIP3      OH2             9.1190096015       15.3496042534       12.8419453365  WZ3       2483            0.0000000000
     19448      6483  TIP3      H1              9.7958996015       14.7168342534       12.6018653365  WZ3       2483            0.0000000000
     19449      6483  TIP3      H2              9.4408896015       15.7506542534       13.6492753365  WZ3       2483            0.0000000000
     19450      6484  TIP3      OH2            14.0363896015       -2.0608457466       11.9214453365  WZ3       2484            0.0000000000
     19451      6484  TIP3      H1             13.2237396015       -1.7358157466       11.5339153365  WZ3       2484            0.0000000000
     19452      6484  TIP3      H2             14.2692396015       -2.8209957466       11.3883553365  WZ3       2484            0.0000000000
     19453      6485  TIP3      OH2            -0.1355003985       15.9211042534       10.6859653365  WZ3       2485            0.0000000000
     19454      6485  TIP3      H1             -0.8558603985       16.3612042534       10.2347353365  WZ3       2485            0.0000000000
     19455      6485  TIP3      H2             -0.5011003985       15.6705742534       11.5343653365  WZ3       2485            0.0000000000
     19456      6486  TIP3      OH2             2.3317596015       15.5214942534        9.7156853365  WZ3       2486            0.0000000000
     19457      6486  TIP3      H1              1.4669796015       15.5933442534       10.1196953365  WZ3       2486            0.0000000000
     19458      6486  TIP3      H2              2.2766596015       16.0682242534        8.9319353365  WZ3       2486            0.0000000000
     19459      6487  TIP3      OH2             7.0423196015       15.4093842534        8.8912853365  WZ3       2487            0.0000000000
     19460      6487  TIP3      H1              6.5857196015       15.9383542534        8.2371253365  WZ3       2487            0.0000000000
     19461      6487  TIP3      H2              7.2051196015       16.0125242534        9.6165153365  WZ3       2487            0.0000000000
     19462      6488  TIP3      OH2             9.3699496015       14.2873442534        9.8363153365  WZ3       2488            0.0000000000
     19463      6488  TIP3      H1              8.4653196015       14.4523642534        9.5705253365  WZ3       2488            0.0000000000
     19464      6488  TIP3      H2              9.7988096015       15.1405642534        9.7706553365  WZ3       2488            0.0000000000
     19465      6489  TIP3      OH2            11.9741396015       15.8572542534       10.1310953365  WZ3       2489            0.0000000000
     19466      6489  TIP3      H1             11.7923396015       16.7731442534        9.9205853365  WZ3       2489            0.0000000000
     19467      6489  TIP3      H2             12.1509196015       15.4469642534        9.2845553365  WZ3       2489            0.0000000000
     19468      6490  TIP3      OH2            -0.7206903985       14.5443542534        7.5961453365  WZ3       2490            0.0000000000
     19469      6490  TIP3      H1             -0.7390903985       14.1188642534        8.4533753365  WZ3       2490            0.0000000000
     19470      6490  TIP3      H2              0.0840996015       14.2258542534        7.1873653365  WZ3       2490            0.0000000000
     19471      6491  TIP3      OH2             1.4206196015       13.2542242534        6.2511353365  WZ3       2491            0.0000000000
     19472      6491  TIP3      H1              1.2016896015       12.3379642534        6.4207353365  WZ3       2491            0.0000000000
     19473      6491  TIP3      H2              2.2448396015       13.3942642534        6.7172753365  WZ3       2491            0.0000000000
     19474      6492  TIP3      OH2             3.9578696015       13.7241542534        7.0999353365  WZ3       2492            0.0000000000
     19475      6492  TIP3      H1              4.1704396015       12.8360542534        6.8130253365  WZ3       2492            0.0000000000
     19476      6492  TIP3      H2              4.0223796015       13.6899242534        8.0543353365  WZ3       2492            0.0000000000
     19477      6493  TIP3      OH2             7.4662396015       -0.6117857466        6.2442653365  WZ3       2493            0.0000000000
     19478      6493  TIP3      H1              6.7919196015       -1.2412257466        6.4998453365  WZ3       2493            0.0000000000
     19479      6493  TIP3      H2              8.0301596015       -1.0958957466        5.6410553365  WZ3       2493            0.0000000000
     19480      6494  TIP3      OH2            12.6089596015       -2.5043857466        6.3569753365  WZ3       2494            0.0000000000
     19481      6494  TIP3      H1             13.2127196015       -1.9568457466        5.8550753365  WZ3       2494            0.0000000000
     19482      6494  TIP3      H2             11.7391596015       -2.1853457466        6.1163853365  WZ3       2494            0.0000000000
     19483      6495  TIP3      OH2            14.3359996015       -1.3655157466        4.6900653365  WZ3       2495            0.0000000000
     19484      6495  TIP3      H1             14.9477496015       -1.8799457466        4.1634253365  WZ3       2495            0.0000000000
     19485      6495  TIP3      H2             14.7183396015       -0.4883057466        4.7135053365  WZ3       2495            0.0000000000
     19486      6496  TIP3      OH2            -0.2070103985       -1.9777557466        4.0662553365  WZ3       2496            0.0000000000
     19487      6496  TIP3      H1             -0.9840303985       -2.2122657466        3.5588453365  WZ3       2496            0.0000000000
     19488      6496  TIP3      H2              0.3233496015       -2.7745457466        4.0750553365  WZ3       2496            0.0000000000
     19489      6497  TIP3      OH2            -1.3706703985       -2.1799457466       -0.1301346635  WZ3       2497            0.0000000000
     19490      6497  TIP3      H1             -0.9316003985       -1.5688957466       -0.7217846635  WZ3       2497            0.0000000000
     19491      6497  TIP3      H2             -2.0044303985       -1.6415357466        0.3438653365  WZ3       2497            0.0000000000
     19492      6498  TIP3      OH2             4.3722496015       -2.0510457466        3.8795653365  WZ3       2498            0.0000000000
     19493      6498  TIP3      H1              5.2465896015       -1.6626157466        3.8499953365  WZ3       2498            0.0000000000
     19494      6498  TIP3      H2              4.2363296015       -2.2662657466        4.8022853365  WZ3       2498            0.0000000000
     19495      6499  TIP3      OH2             9.9290896015       -2.0210657466        5.5287353365  WZ3       2499            0.0000000000
     19496      6499  TIP3      H1             10.0052496015       -1.9259057466        4.5793353365  WZ3       2499            0.0000000000
     19497      6499  TIP3      H2              9.6540096015       -2.9287757466        5.6576453365  WZ3       2499            0.0000000000
     19498      6500  TIP3      OH2            11.2823496015       -1.9952857466        1.2212353365  WZ3       2500            0.0000000000
     19499      6500  TIP3      H1             10.5794596015       -1.3803657466        1.0113753365  WZ3       2500            0.0000000000
     19500      6500  TIP3      H2             10.8374896015       -2.8326157466        1.3523253365  WZ3       2500            0.0000000000
     19501      6501  TIP3      OH2            -1.4697203985       13.7682742534        0.7673753365  WZ3       2501            0.0000000000
     19502      6501  TIP3      H1             -2.1547303985       13.7301642534        0.0998853365  WZ3       2501            0.0000000000
     19503      6501  TIP3      H2             -1.4660003985       14.6810342534        1.0555853365  WZ3       2501            0.0000000000
     19504      6502  TIP3      OH2             0.4902396015       -0.2637957466       -1.6877246635  WZ3       2502            0.0000000000
     19505      6502  TIP3      H1              0.9815796015       -0.8935557466       -2.2151746635  WZ3       2502            0.0000000000
     19506      6502  TIP3      H2              1.1138696015        0.0321442534       -1.0246046635  WZ3       2502            0.0000000000
     19507      6503  TIP3      OH2             5.5162496015        0.0293542534        0.7693253365  WZ3       2503            0.0000000000
     19508      6503  TIP3      H1              5.6943796015       -0.6173257466        1.4521853365  WZ3       2503            0.0000000000
     19509      6503  TIP3      H2              5.4628696015        0.8631242534        1.2364353365  WZ3       2503            0.0000000000
     19510      6504  TIP3      OH2             7.3946296015       14.9777642534       -0.8350046635  WZ3       2504            0.0000000000
     19511      6504  TIP3      H1              8.2606496015       15.3445042534       -1.0131846635  WZ3       2504            0.0000000000
     19512      6504  TIP3      H2              7.1479096015       14.5385642534       -1.6489246635  WZ3       2504            0.0000000000
     19513      6505  TIP3      OH2            14.1035896015       14.5407942534        1.8441053365  WZ3       2505            0.0000000000
     19514      6505  TIP3      H1             13.9092996015       13.7930042534        1.2790653365  WZ3       2505            0.0000000000
     19515      6505  TIP3      H2             14.0645996015       15.2988042534        1.2608953365  WZ3       2505            0.0000000000
     19516      6506  TIP3      OH2            -0.2492103985       -1.4635657466       13.5838753365  WZ3       2506            0.0000000000
     19517      6506  TIP3      H1             -0.6153903985       -2.2293057466       14.0263453365  WZ3       2506            0.0000000000
     19518      6506  TIP3      H2              0.6636396015       -1.4345457466       13.8703853365  WZ3       2506            0.0000000000
     19519      6507  TIP3      OH2             1.7238696015       -2.1131257466       15.1195853365  WZ3       2507            0.0000000000
     19520      6507  TIP3      H1              2.6222296015       -2.3871057466       14.9349253365  WZ3       2507            0.0000000000
     19521      6507  TIP3      H2              1.3371796015       -2.8555257466       15.5838453365  WZ3       2507            0.0000000000
     19522      6508  TIP3      OH2             0.3483996015       14.6883542534       -2.2074146635  WZ3       2508            0.0000000000
     19523      6508  TIP3      H1              0.0808596015       14.9746442534       -1.3341046635  WZ3       2508            0.0000000000
     19524      6508  TIP3      H2              1.1196596015       14.1422742534       -2.0551646635  WZ3       2508            0.0000000000
     19525      6509  TIP3      OH2            10.1450996015       -2.7805957466       15.3018653365  WZ3       2509            0.0000000000
     19526      6509  TIP3      H1             10.2218196015       -3.2065257466       16.1556353365  WZ3       2509            0.0000000000
     19527      6509  TIP3      H2             11.0387596015       -2.7671257466       14.9592153365  WZ3       2509            0.0000000000
     19528      6510  TIP3      OH2            13.3212096015       13.2920342534       13.9942853365  WZ3       2510            0.0000000000
     19529      6510  TIP3      H1             12.5393996015       13.1058342534       13.4743453365  WZ3       2510            0.0000000000
     19530      6510  TIP3      H2             13.2491996015       14.2214642534       14.2115353365  WZ3       2510            0.0000000000
     19531      6511  TIP3      OH2            27.7272496015        7.1784742534        4.0250053365  WZ3       2511            0.0000000000
     19532      6511  TIP3      H1             27.8163596015        8.1222942534        3.8927153365  WZ3       2511            0.0000000000
     19533      6511  TIP3      H2             27.0890096015        6.9031142534        3.3669453365  WZ3       2511            0.0000000000
     19534      6512  TIP3      OH2            26.6603796015        6.4335442534        7.4438253365  WZ3       2512            0.0000000000
     19535      6512  TIP3      H1             26.6221296015        5.7871742534        8.1487853365  WZ3       2512            0.0000000000
     19536      6512  TIP3      H2             26.3380296015        5.9669842534        6.6726953365  WZ3       2512            0.0000000000
     19537      6513  TIP3      OH2            19.0288796015        6.0477542534        9.0368153365  WZ3       2513            0.0000000000
     19538      6513  TIP3      H1             19.0700896015        5.4220842534        9.7600553365  WZ3       2513            0.0000000000
     19539      6513  TIP3      H2             19.7316496015        6.6716142534        9.2188553365  WZ3       2513            0.0000000000
     19540      6514  TIP3      OH2            30.3663996015        9.3725842534        5.7453353365  WZ3       2514            0.0000000000
     19541      6514  TIP3      H1             29.9256696015        8.6521842534        6.1958953365  WZ3       2514            0.0000000000
     19542      6514  TIP3      H2             30.3533696015       10.0933042534        6.3751053365  WZ3       2514            0.0000000000
     19543      6515  TIP3      OH2            19.9521896015       10.4976442534        7.5717253365  WZ3       2515            0.0000000000
     19544      6515  TIP3      H1             19.5827096015        9.6956942534        7.2021553365  WZ3       2515            0.0000000000
     19545      6515  TIP3      H2             20.8932996015       10.3291342534        7.6180653365  WZ3       2515            0.0000000000
     19546      6516  TIP3      OH2            16.5622396015        4.1579042534        2.9646053365  WZ3       2516            0.0000000000
     19547      6516  TIP3      H1             16.1145796015        5.0037742534        2.9462553365  WZ3       2516            0.0000000000
     19548      6516  TIP3      H2             16.0013596015        3.5783242534        2.4491153365  WZ3       2516            0.0000000000
     19549      6517  TIP3      OH2            17.2728496015        6.3198642534        5.0904053365  WZ3       2517            0.0000000000
     19550      6517  TIP3      H1             17.4861996015        5.5500242534        5.6177053365  WZ3       2517            0.0000000000
     19551      6517  TIP3      H2             18.0106096015        6.4095342534        4.4871653365  WZ3       2517            0.0000000000
     19552      6518  TIP3      OH2            27.4779496015       14.4767542534        5.9573753365  WZ3       2518            0.0000000000
     19553      6518  TIP3      H1             28.0975896015       13.8002242534        5.6842953365  WZ3       2518            0.0000000000
     19554      6518  TIP3      H2             27.2696896015       14.2588342534        6.8658653365  WZ3       2518            0.0000000000
     19555      6519  TIP3      OH2            25.0498196015        8.8656842534        7.8499253365  WZ3       2519            0.0000000000
     19556      6519  TIP3      H1             25.3536096015        8.1798242534        7.2553353365  WZ3       2519            0.0000000000
     19557      6519  TIP3      H2             25.7712196015        8.9845542534        8.4677253365  WZ3       2519            0.0000000000
     19558      6520  TIP3      OH2            33.7127996015        0.4672142534        8.7105453365  WZ3       2520            0.0000000000
     19559      6520  TIP3      H1             33.7620196015        1.0773342534        9.4464553365  WZ3       2520            0.0000000000
     19560      6520  TIP3      H2             34.1383096015        0.9283042534        7.9876553365  WZ3       2520            0.0000000000
     19561      6521  TIP3      OH2            28.1905196015        3.2599242534        8.1774053365  WZ3       2521            0.0000000000
     19562      6521  TIP3      H1             28.3331096015        2.3136242534        8.1975653365  WZ3       2521            0.0000000000
     19563      6521  TIP3      H2             28.0844196015        3.4669042534        7.2488953365  WZ3       2521            0.0000000000
     19564      6522  TIP3      OH2            21.3453496015        1.3615642534        5.4498853365  WZ3       2522            0.0000000000
     19565      6522  TIP3      H1             21.3884596015        2.2214142534        5.0315153365  WZ3       2522            0.0000000000
     19566      6522  TIP3      H2             20.8877596015        0.8090342534        4.8162053365  WZ3       2522            0.0000000000
     19567      6523  TIP3      OH2            29.0676196015        1.4921242534        3.8507153365  WZ3       2523            0.0000000000
     19568      6523  TIP3      H1             29.7140496015        1.1634442534        4.4754753365  WZ3       2523            0.0000000000
     19569      6523  TIP3      H2             29.5775596015        2.0100242534        3.2278553365  WZ3       2523            0.0000000000
     19570      6524  TIP3      OH2            17.9654996015        3.7581442534        6.2120253365  WZ3       2524            0.0000000000
     19571      6524  TIP3      H1             18.6191596015        3.2083142534        6.6440353365  WZ3       2524            0.0000000000
     19572      6524  TIP3      H2             17.9894296015        3.4840442534        5.2952253365  WZ3       2524            0.0000000000
     19573      6525  TIP3      OH2            23.1219496015        5.3082742534        5.4271753365  WZ3       2525            0.0000000000
     19574      6525  TIP3      H1             23.7380496015        4.7818142534        5.9365753365  WZ3       2525            0.0000000000
     19575      6525  TIP3      H2             22.5358296015        4.6681442534        5.0235353365  WZ3       2525            0.0000000000
     19576      6526  TIP3      OH2            34.1042596015        1.9451342534       10.9465253365  WZ3       2526            0.0000000000
     19577      6526  TIP3      H1             33.4157196015        2.6032042534       10.8511853365  WZ3       2526            0.0000000000
     19578      6526  TIP3      H2             34.1197196015        1.7479242534       11.8830653365  WZ3       2526            0.0000000000
     19579      6527  TIP3      OH2            20.1555396015        0.2794042534        9.5239653365  WZ3       2527            0.0000000000
     19580      6527  TIP3      H1             19.9367096015        0.8094642534        8.7575653365  WZ3       2527            0.0000000000
     19581      6527  TIP3      H2             19.4876296015        0.5059542534       10.1711053365  WZ3       2527            0.0000000000
     19582      6528  TIP3      OH2            27.5245196015        9.7795142534        3.0678753365  WZ3       2528            0.0000000000
     19583      6528  TIP3      H1             27.2290296015        9.4567442534        2.2165653365  WZ3       2528            0.0000000000
     19584      6528  TIP3      H2             27.2002996015       10.6791842534        3.1091353365  WZ3       2528            0.0000000000
     19585      6529  TIP3      OH2            22.7246796015        7.9549742534        9.8113353365  WZ3       2529            0.0000000000
     19586      6529  TIP3      H1             21.9845896015        8.5531242534        9.9148553365  WZ3       2529            0.0000000000
     19587      6529  TIP3      H2             23.4386296015        8.5089342534        9.4956953365  WZ3       2529            0.0000000000
     19588      6530  TIP3      OH2            30.8314596015        0.7830542534        5.8313053365  WZ3       2530            0.0000000000
     19589      6530  TIP3      H1             30.6162596015        0.0173942534        6.3639053365  WZ3       2530            0.0000000000
     19590      6530  TIP3      H2             31.4871996015        1.2555142534        6.3441553365  WZ3       2530            0.0000000000
     19591      6531  TIP3      OH2            19.7492696015        2.1715842534        7.4761853365  WZ3       2531            0.0000000000
     19592      6531  TIP3      H1             20.3628996015        2.8043442534        7.8494253365  WZ3       2531            0.0000000000
     19593      6531  TIP3      H2             20.2613396015        1.6990842534        6.8198753365  WZ3       2531            0.0000000000
     19594      6532  TIP3      OH2            21.1321096015        9.9192742534       10.5984853365  WZ3       2532            0.0000000000
     19595      6532  TIP3      H1             21.1268696015       10.7986242534       10.2204153365  WZ3       2532            0.0000000000
     19596      6532  TIP3      H2             20.2785196015        9.8356842534       11.0234753365  WZ3       2532            0.0000000000
     19597      6533  TIP3      OH2            17.2531996015        9.5900642534        1.3804153365  WZ3       2533            0.0000000000
     19598      6533  TIP3      H1             16.9812896015        9.8191642534        0.4917053365  WZ3       2533            0.0000000000
     19599      6533  TIP3      H2             17.2987696015       10.4279442534        1.8409453365  WZ3       2533            0.0000000000
     19600      6534  TIP3      OH2            30.8781696015       11.2116542534        8.0932653365  WZ3       2534            0.0000000000
     19601      6534  TIP3      H1             29.9365396015       11.2700442534        8.2549553365  WZ3       2534            0.0000000000
     19602      6534  TIP3      H2             31.1547796015       12.1177042534        7.9562353365  WZ3       2534            0.0000000000
     19603      6535  TIP3      OH2            31.1788696015       -0.5018157466        9.5106553365  WZ3       2535            0.0000000000
     19604      6535  TIP3      H1             30.4427896015        0.1088942534        9.4727853365  WZ3       2535            0.0000000000
     19605      6535  TIP3      H2             31.8622696015       -0.0869157466        8.9842953365  WZ3       2535            0.0000000000
     19606      6536  TIP3      OH2            24.1820096015       -2.4150857466        6.9764553365  WZ3       2536            0.0000000000
     19607      6536  TIP3      H1             24.0644296015       -3.3634857466        6.9222853365  WZ3       2536            0.0000000000
     19608      6536  TIP3      H2             23.3270196015       -2.0824757466        7.2495653365  WZ3       2536            0.0000000000
     19609      6537  TIP3      OH2            29.1302896015       12.9930042534        4.7184253365  WZ3       2537            0.0000000000
     19610      6537  TIP3      H1             29.5555196015       12.2857942534        4.2333853365  WZ3       2537            0.0000000000
     19611      6537  TIP3      H2             29.4472896015       13.7942742534        4.3016453365  WZ3       2537            0.0000000000
     19612      6538  TIP3      OH2            30.2899396015       10.8938542534        3.2270853365  WZ3       2538            0.0000000000
     19613      6538  TIP3      H1             30.0324196015       10.2038642534        2.6156753365  WZ3       2538            0.0000000000
     19614      6538  TIP3      H2             30.3610196015       10.4509742534        4.0726753365  WZ3       2538            0.0000000000
     19615      6539  TIP3      OH2            31.9759596015        9.4605242534       11.7044353365  WZ3       2539            0.0000000000
     19616      6539  TIP3      H1             32.1155896015        8.8687742534       10.9651353365  WZ3       2539            0.0000000000
     19617      6539  TIP3      H2             32.1432396015       10.3331142534       11.3483153365  WZ3       2539            0.0000000000
     19618      6540  TIP3      OH2            26.4484996015        6.4224742534        1.4770353365  WZ3       2540            0.0000000000
     19619      6540  TIP3      H1             25.7370496015        6.9574442534        1.1250853365  WZ3       2540            0.0000000000
     19620      6540  TIP3      H2             27.1394596015        6.4776842534        0.8169253365  WZ3       2540            0.0000000000
     19621      6541  TIP3      OH2            26.5024196015        4.8799042534       -1.4844646635  WZ3       2541            0.0000000000
     19622      6541  TIP3      H1             27.2034096015        4.9025942534       -0.8330646635  WZ3       2541            0.0000000000
     19623      6541  TIP3      H2             26.8047096015        4.2518742534       -2.1405346635  WZ3       2541            0.0000000000
     19624      6542  TIP3      OH2            33.8178896015        5.8003242534        9.7704753365  WZ3       2542            0.0000000000
     19625      6542  TIP3      H1             33.1652996015        6.4948842534        9.8595653365  WZ3       2542            0.0000000000
     19626      6542  TIP3      H2             34.2829196015        6.0104142534        8.9606353365  WZ3       2542            0.0000000000
     19627      6543  TIP3      OH2            29.8542696015        6.6318042534        2.4286253365  WZ3       2543            0.0000000000
     19628      6543  TIP3      H1             29.1223696015        6.8601742534        3.0016853365  WZ3       2543            0.0000000000
     19629      6543  TIP3      H2             30.3014896015        5.9180742534        2.8833753365  WZ3       2543            0.0000000000
     19630      6544  TIP3      OH2            29.7516196015        4.8060642534       11.4963253365  WZ3       2544            0.0000000000
     19631      6544  TIP3      H1             29.8315296015        5.5695042534       12.0681753365  WZ3       2544            0.0000000000
     19632      6544  TIP3      H2             29.1503896015        5.0853042534       10.8058353365  WZ3       2544            0.0000000000
     19633      6545  TIP3      OH2            21.4996396015        7.2624242534        4.3111253365  WZ3       2545            0.0000000000
     19634      6545  TIP3      H1             21.1691596015        6.8917642534        3.4928253365  WZ3       2545            0.0000000000
     19635      6545  TIP3      H2             22.0880496015        6.5918242534        4.6579553365  WZ3       2545            0.0000000000
     19636      6546  TIP3      OH2            22.8663896015       10.6904842534        6.9923453365  WZ3       2546            0.0000000000
     19637      6546  TIP3      H1             22.7715196015       10.1117942534        6.2358053365  WZ3       2546            0.0000000000
     19638      6546  TIP3      H2             23.5957496015       10.3190542534        7.4886253365  WZ3       2546            0.0000000000
     19639      6547  TIP3      OH2            21.8661896015        6.0309842534        7.9446253365  WZ3       2547            0.0000000000
     19640      6547  TIP3      H1             22.4314396015        6.1524042534        7.1817453365  WZ3       2547            0.0000000000
     19641      6547  TIP3      H2             22.1850796015        6.6684842534        8.5834753365  WZ3       2547            0.0000000000
     19642      6548  TIP3      OH2            28.1754096015       11.5341742534        8.6786753365  WZ3       2548            0.0000000000
     19643      6548  TIP3      H1             27.9350696015       12.1964842534        9.3265953365  WZ3       2548            0.0000000000
     19644      6548  TIP3      H2             27.9772296015       10.6996942534        9.1036353365  WZ3       2548            0.0000000000
     19645      6549  TIP3      OH2            22.7462596015       10.4302542534       12.6618153365  WZ3       2549            0.0000000000
     19646      6549  TIP3      H1             22.4350096015       11.2125742534       13.1171353365  WZ3       2549            0.0000000000
     19647      6549  TIP3      H2             22.0962796015       10.2771642534       11.9760153365  WZ3       2549            0.0000000000
     19648      6550  TIP3      OH2            28.7252196015        5.7940942534        0.1137453365  WZ3       2550            0.0000000000
     19649      6550  TIP3      H1             29.3047696015        5.9441242534        0.8606353365  WZ3       2550            0.0000000000
     19650      6550  TIP3      H2             29.1392196015        6.2648342534       -0.6096146635  WZ3       2550            0.0000000000
     19651      6551  TIP3      OH2            19.6662496015        6.6283642534       11.8903853365  WZ3       2551            0.0000000000
     19652      6551  TIP3      H1             19.7365696015        7.2790442534       12.5888853365  WZ3       2551            0.0000000000
     19653      6551  TIP3      H2             18.7754696015        6.7311142534       11.5554753365  WZ3       2551            0.0000000000
     19654      6552  TIP3      OH2            26.4517096015       12.5309442534        3.5490553365  WZ3       2552            0.0000000000
     19655      6552  TIP3      H1             26.9254696015       12.8265742534        4.3264753365  WZ3       2552            0.0000000000
     19656      6552  TIP3      H2             25.8886396015       13.2691042534        3.3160153365  WZ3       2552            0.0000000000
     19657      6553  TIP3      OH2            20.9858496015       12.5017542534       13.4251953365  WZ3       2553            0.0000000000
     19658      6553  TIP3      H1             20.9933796015       12.3657242534       12.4777453365  WZ3       2553            0.0000000000
     19659      6553  TIP3      H2             20.0698896015       12.3845642534       13.6771953365  WZ3       2553            0.0000000000
     19660      6554  TIP3      OH2            32.4240596015       -2.4558657466       -0.0732846635  WZ3       2554            0.0000000000
     19661      6554  TIP3      H1             31.5241296015       -2.3169657466        0.2217753365  WZ3       2554            0.0000000000
     19662      6554  TIP3      H2             32.6758996015       -1.6244057466       -0.4751146635  WZ3       2554            0.0000000000
     19663      6555  TIP3      OH2            20.4899096015        6.3318542534        1.9004053365  WZ3       2555            0.0000000000
     19664      6555  TIP3      H1             20.1980396015        7.1000242534        1.4095353365  WZ3       2555            0.0000000000
     19665      6555  TIP3      H2             19.8154296015        5.6724742534        1.7375453365  WZ3       2555            0.0000000000
     19666      6556  TIP3      OH2            33.6131996015       11.9103742534       -1.6968946635  WZ3       2556            0.0000000000
     19667      6556  TIP3      H1             33.6865496015       12.8493942534       -1.5263646635  WZ3       2556            0.0000000000
     19668      6556  TIP3      H2             34.5187096015       11.6052342534       -1.7531646635  WZ3       2556            0.0000000000
     19669      6557  TIP3      OH2            16.5829196015        8.6947742534       10.7153853365  WZ3       2557            0.0000000000
     19670      6557  TIP3      H1             16.0817596015        8.6667142534        9.9003553365  WZ3       2557            0.0000000000
     19671      6557  TIP3      H2             16.5882896015        7.7890942534       11.0251153365  WZ3       2557            0.0000000000
     19672      6558  TIP3      OH2            16.3331896015       11.4751542534        7.5994053365  WZ3       2558            0.0000000000
     19673      6558  TIP3      H1             17.2792496015       11.3308542534        7.5803553365  WZ3       2558            0.0000000000
     19674      6558  TIP3      H2             16.2208196015       12.2594342534        8.1365253365  WZ3       2558            0.0000000000
     19675      6559  TIP3      OH2            34.5310396015       12.1411242534       13.2817753365  WZ3       2559            0.0000000000
     19676      6559  TIP3      H1             34.4817196015       11.1859342534       13.2445353365  WZ3       2559            0.0000000000
     19677      6559  TIP3      H2             33.7042696015       12.4086542534       13.6831553365  WZ3       2559            0.0000000000
     19678      6560  TIP3      OH2            25.5094396015       11.7150442534       12.1579153365  WZ3       2560            0.0000000000
     19679      6560  TIP3      H1             25.5968996015       12.5415042534       12.6328253365  WZ3       2560            0.0000000000
     19680      6560  TIP3      H2             24.6459496015       11.3854242534       12.4068453365  WZ3       2560            0.0000000000
     19681      6561  TIP3      OH2            25.9240196015       15.4874142534        1.9639753365  WZ3       2561            0.0000000000
     19682      6561  TIP3      H1             25.8486196015       15.3661342534        1.0174953365  WZ3       2561            0.0000000000
     19683      6561  TIP3      H2             25.9568896015       16.4366842534        2.0824353365  WZ3       2561            0.0000000000
     19684      6562  TIP3      OH2            19.5773996015       14.2761142534        3.7448753365  WZ3       2562            0.0000000000
     19685      6562  TIP3      H1             19.7294396015       13.9281542534        4.6235253365  WZ3       2562            0.0000000000
     19686      6562  TIP3      H2             18.7264396015       13.9198442534        3.4895953365  WZ3       2562            0.0000000000
     19687      6563  TIP3      OH2            29.0256196015       14.6414342534       -1.0337846635  WZ3       2563            0.0000000000
     19688      6563  TIP3      H1             29.4004596015       13.8970442534       -1.5045246635  WZ3       2563            0.0000000000
     19689      6563  TIP3      H2             29.0299896015       14.3714942534       -0.1154546635  WZ3       2563            0.0000000000
     19690      6564  TIP3      OH2            28.6944296015       14.5671442534        1.7154353365  WZ3       2564            0.0000000000
     19691      6564  TIP3      H1             27.7594096015       14.6673342534        1.8941353365  WZ3       2564            0.0000000000
     19692      6564  TIP3      H2             28.9746196015       13.8577442534        2.2937553365  WZ3       2564            0.0000000000
     19693      6565  TIP3      OH2            31.6830196015        3.6343742534       13.7619953365  WZ3       2565            0.0000000000
     19694      6565  TIP3      H1             31.2756996015        4.1149342534       13.0413253365  WZ3       2565            0.0000000000
     19695      6565  TIP3      H2             31.7235896015        2.7289742534       13.4540753365  WZ3       2565            0.0000000000
     19696      6566  TIP3      OH2            18.8319696015       10.0183142534       11.7586653365  WZ3       2566            0.0000000000
     19697      6566  TIP3      H1             19.0480996015        9.6568742534       12.6182453365  WZ3       2566            0.0000000000
     19698      6566  TIP3      H2             17.9764396015        9.6436942534       11.5490153365  WZ3       2566            0.0000000000
     19699      6567  TIP3      OH2            21.4507696015       -1.5116357466        7.7540853365  WZ3       2567            0.0000000000
     19700      6567  TIP3      H1             20.5891396015       -1.5988157466        7.3463753365  WZ3       2567            0.0000000000
     19701      6567  TIP3      H2             21.4283396015       -0.6556257466        8.1818453365  WZ3       2567            0.0000000000
     19702      6568  TIP3      OH2            26.1135496015       -1.7895957466       11.1287853365  WZ3       2568            0.0000000000
     19703      6568  TIP3      H1             26.5338596015       -2.2048857466       11.8818453365  WZ3       2568            0.0000000000
     19704      6568  TIP3      H2             25.1805096015       -1.9682657466       11.2459853365  WZ3       2568            0.0000000000
     19705      6569  TIP3      OH2            29.4400396015        1.9659242534       11.9822353365  WZ3       2569            0.0000000000
     19706      6569  TIP3      H1             28.9259896015        1.8401442534       12.7798353365  WZ3       2569            0.0000000000
     19707      6569  TIP3      H2             29.2845096015        2.8782342534       11.7378553365  WZ3       2569            0.0000000000
     19708      6570  TIP3      OH2            30.2025296015        6.8269242534       -2.2564646635  WZ3       2570            0.0000000000
     19709      6570  TIP3      H1             30.2446096015        6.6043142534       -3.1864646635  WZ3       2570            0.0000000000
     19710      6570  TIP3      H2             31.0517396015        7.2256342534       -2.0664746635  WZ3       2570            0.0000000000
     19711      6571  TIP3      OH2            25.7752796015        0.7027442534       -1.5861346635  WZ3       2571            0.0000000000
     19712      6571  TIP3      H1             25.5217596015        0.7219042534       -0.6633246635  WZ3       2571            0.0000000000
     19713      6571  TIP3      H2             25.5184896015       -0.1687157466       -1.8875146635  WZ3       2571            0.0000000000
     19714      6572  TIP3      OH2            21.5417796015        3.4538142534        8.8491053365  WZ3       2572            0.0000000000
     19715      6572  TIP3      H1             20.8999896015        3.4135442534        9.5581153365  WZ3       2572            0.0000000000
     19716      6572  TIP3      H2             21.5789796015        4.3802842534        8.6114053365  WZ3       2572            0.0000000000
     19717      6573  TIP3      OH2            21.5386896015        3.6748242534        3.7611053365  WZ3       2573            0.0000000000
     19718      6573  TIP3      H1             20.6459796015        3.3344342534        3.7024853365  WZ3       2573            0.0000000000
     19719      6573  TIP3      H2             21.9893496015        3.2979142534        3.0054253365  WZ3       2573            0.0000000000
     19720      6574  TIP3      OH2            27.0742396015        4.0908542534        2.5781853365  WZ3       2574            0.0000000000
     19721      6574  TIP3      H1             26.6652696015        4.9057142534        2.2866653365  WZ3       2574            0.0000000000
     19722      6574  TIP3      H2             27.7948596015        3.9508642534        1.9638953365  WZ3       2574            0.0000000000
     19723      6575  TIP3      OH2            26.1763996015        4.2664942534       14.0662553365  WZ3       2575            0.0000000000
     19724      6575  TIP3      H1             25.6137796015        3.5616542534       14.3870353365  WZ3       2575            0.0000000000
     19725      6575  TIP3      H2             27.0027396015        4.1456842534       14.5340153365  WZ3       2575            0.0000000000
     19726      6576  TIP3      OH2            28.0790096015        3.5368942534        5.3921553365  WZ3       2576            0.0000000000
     19727      6576  TIP3      H1             27.8834596015        4.1425742534        4.6772153365  WZ3       2576            0.0000000000
     19728      6576  TIP3      H2             28.2602696015        2.7034142534        4.9577853365  WZ3       2576            0.0000000000
     19729      6577  TIP3      OH2            19.2918296015        3.7741642534       10.7163053365  WZ3       2577            0.0000000000
     19730      6577  TIP3      H1             19.2537696015        4.1743242534       11.5850153365  WZ3       2577            0.0000000000
     19731      6577  TIP3      H2             18.8009396015        2.9574042534       10.8065953365  WZ3       2577            0.0000000000
     19732      6578  TIP3      OH2            22.6575696015        1.1483942534       -2.4850946635  WZ3       2578            0.0000000000
     19733      6578  TIP3      H1             22.2266396015        0.7034042534       -1.7553546635  WZ3       2578            0.0000000000
     19734      6578  TIP3      H2             21.9394396015        1.5200242534       -2.9973446635  WZ3       2578            0.0000000000
     19735      6579  TIP3      OH2            15.8999096015        0.8903442534        4.5667753365  WZ3       2579            0.0000000000
     19736      6579  TIP3      H1             16.5306796015        0.8615542534        5.2861653365  WZ3       2579            0.0000000000
     19737      6579  TIP3      H2             16.3493396015        0.4652142534        3.8363653365  WZ3       2579            0.0000000000
     19738      6580  TIP3      OH2            17.1741196015        1.6365442534       -0.0091846635  WZ3       2580            0.0000000000
     19739      6580  TIP3      H1             17.6482896015        2.2275342534       -0.5940946635  WZ3       2580            0.0000000000
     19740      6580  TIP3      H2             16.4567596015        2.1668342534        0.3378253365  WZ3       2580            0.0000000000
     19741      6581  TIP3      OH2            27.3429296015        5.1750242534       10.0633953365  WZ3       2581            0.0000000000
     19742      6581  TIP3      H1             27.6664096015        4.5439942534        9.4204453365  WZ3       2581            0.0000000000
     19743      6581  TIP3      H2             26.9028596015        4.6402442534       10.7241353365  WZ3       2581            0.0000000000
     19744      6582  TIP3      OH2            24.1202196015        1.1025742534        4.8475153365  WZ3       2582            0.0000000000
     19745      6582  TIP3      H1             23.2093296015        1.1592542534        5.1361153365  WZ3       2582            0.0000000000
     19746      6582  TIP3      H2             24.6255096015        1.0421242534        5.6582353365  WZ3       2582            0.0000000000
     19747      6583  TIP3      OH2            18.9485596015        2.7312042534        3.6742753365  WZ3       2583            0.0000000000
     19748      6583  TIP3      H1             18.0593596015        2.8307542534        3.3342353365  WZ3       2583            0.0000000000
     19749      6583  TIP3      H2             19.2450496015        1.8895042534        3.3280653365  WZ3       2583            0.0000000000
     19750      6584  TIP3      OH2            22.6017396015        2.7314642534        1.3307353365  WZ3       2584            0.0000000000
     19751      6584  TIP3      H1             23.5332896015        2.8604642534        1.5090453365  WZ3       2584            0.0000000000
     19752      6584  TIP3      H2             22.3867696015        3.4008942534        0.6812053365  WZ3       2584            0.0000000000
     19753      6585  TIP3      OH2            28.5254096015        0.3372042534        8.1116953365  WZ3       2585            0.0000000000
     19754      6585  TIP3      H1             27.8485696015        0.4685142534        8.7756653365  WZ3       2585            0.0000000000
     19755      6585  TIP3      H2             28.0398996015        0.1821542534        7.3014653365  WZ3       2585            0.0000000000
     19756      6586  TIP3      OH2            21.2757596015        3.9256842534       -1.1026546635  WZ3       2586            0.0000000000
     19757      6586  TIP3      H1             20.7332696015        3.5460642534       -1.7938946635  WZ3       2586            0.0000000000
     19758      6586  TIP3      H2             22.1092496015        4.1201542534       -1.5312446635  WZ3       2586            0.0000000000
     19759      6587  TIP3      OH2            31.8129196015       16.0087442534       14.3884553365  WZ3       2587            0.0000000000
     19760      6587  TIP3      H1             32.0127896015       16.4329342534       13.5539853365  WZ3       2587            0.0000000000
     19761      6587  TIP3      H2             32.4682896015       16.3525642534       14.9954953365  WZ3       2587            0.0000000000
     19762      6588  TIP3      OH2            19.4108996015        8.4828742534       13.9965053365  WZ3       2588            0.0000000000
     19763      6588  TIP3      H1             20.1431396015        8.7374642534       14.5579553365  WZ3       2588            0.0000000000
     19764      6588  TIP3      H2             18.6307696015        8.6874142534       14.5120453365  WZ3       2588            0.0000000000
     19765      6589  TIP3      OH2            25.4401896015        3.8898742534        6.7344753365  WZ3       2589            0.0000000000
     19766      6589  TIP3      H1             26.0045296015        3.3435342534        6.1874353365  WZ3       2589            0.0000000000
     19767      6589  TIP3      H2             25.2925296015        3.3680642534        7.5232353365  WZ3       2589            0.0000000000
     19768      6590  TIP3      OH2            20.4421596015        0.0264842534        3.1529553365  WZ3       2590            0.0000000000
     19769      6590  TIP3      H1             20.1251096015       -0.8759857466        3.1174953365  WZ3       2590            0.0000000000
     19770      6590  TIP3      H2             21.2235696015        0.0282242534        2.6001153365  WZ3       2590            0.0000000000
     19771      6591  TIP3      OH2            24.0667796015        2.2784842534        9.1485153365  WZ3       2591            0.0000000000
     19772      6591  TIP3      H1             23.2313096015        2.7324342534        9.2587553365  WZ3       2591            0.0000000000
     19773      6591  TIP3      H2             24.5908396015        2.5543342534        9.9005053365  WZ3       2591            0.0000000000
     19774      6592  TIP3      OH2            24.6110396015        8.4912542534        0.8331553365  WZ3       2592            0.0000000000
     19775      6592  TIP3      H1             23.8661396015        7.9837842534        0.5109453365  WZ3       2592            0.0000000000
     19776      6592  TIP3      H2             24.4767596015        8.5400542534        1.7796353365  WZ3       2592            0.0000000000
     19777      6593  TIP3      OH2            31.7609296015        7.6240742534        9.6199153365  WZ3       2593            0.0000000000
     19778      6593  TIP3      H1             32.4028096015        8.0807042534        9.0761353365  WZ3       2593            0.0000000000
     19779      6593  TIP3      H2             30.9306196015        7.7373142534        9.1573253365  WZ3       2593            0.0000000000
     19780      6594  TIP3      OH2            28.5087196015        1.3052442534       -0.9675846635  WZ3       2594            0.0000000000
     19781      6594  TIP3      H1             27.5701396015        1.4168042534       -1.1187046635  WZ3       2594            0.0000000000
     19782      6594  TIP3      H2             28.8059296015        2.1619342534       -0.6610146635  WZ3       2594            0.0000000000
     19783      6595  TIP3      OH2            26.1302496015        8.6755842534       12.0700653365  WZ3       2595            0.0000000000
     19784      6595  TIP3      H1             25.7848596015        8.2938242534       12.8770253365  WZ3       2595            0.0000000000
     19785      6595  TIP3      H2             25.9302596015        9.6089442534       12.1413553365  WZ3       2595            0.0000000000
     19786      6596  TIP3      OH2            29.2270696015        3.1725142534        0.6931553365  WZ3       2596            0.0000000000
     19787      6596  TIP3      H1             30.1189696015        3.0350142534        1.0122753365  WZ3       2596            0.0000000000
     19788      6596  TIP3      H2             29.2834296015        3.9631242534        0.1565053365  WZ3       2596            0.0000000000
     19789      6597  TIP3      OH2            19.7358696015        7.7862542534        6.6029453365  WZ3       2597            0.0000000000
     19790      6597  TIP3      H1             20.4805896015        7.7838242534        6.0015953365  WZ3       2597            0.0000000000
     19791      6597  TIP3      H2             19.8135296015        6.9626342534        7.0844553365  WZ3       2597            0.0000000000
     19792      6598  TIP3      OH2            26.7364496015        9.9496842534       -0.1413846635  WZ3       2598            0.0000000000
     19793      6598  TIP3      H1             26.4412896015       10.7764742534        0.2400953365  WZ3       2598            0.0000000000
     19794      6598  TIP3      H2             26.0334496015        9.3303742534        0.0547553365  WZ3       2598            0.0000000000
     19795      6599  TIP3      OH2            16.7438396015        6.2469442534       11.9177953365  WZ3       2599            0.0000000000
     19796      6599  TIP3      H1             16.9666996015        5.8289042534       12.7495453365  WZ3       2599            0.0000000000
     19797      6599  TIP3      H2             16.1418496015        5.6344442534       11.4950753365  WZ3       2599            0.0000000000
     19798      6600  TIP3      OH2            23.7603296015        5.7639342534       14.1307653365  WZ3       2600            0.0000000000
     19799      6600  TIP3      H1             23.4644096015        5.5982342534       13.2356753365  WZ3       2600            0.0000000000
     19800      6600  TIP3      H2             24.6918496015        5.5439642534       14.1201553365  WZ3       2600            0.0000000000
     19801      6601  TIP3      OH2            28.3806096015       11.1371342534       12.0205653365  WZ3       2601            0.0000000000
     19802      6601  TIP3      H1             27.4800396015       11.3203942534       11.7529553365  WZ3       2601            0.0000000000
     19803      6601  TIP3      H2             28.4147196015       11.3960642534       12.9414453365  WZ3       2601            0.0000000000
     19804      6602  TIP3      OH2            34.1119396015        3.3819242534        0.3878253365  WZ3       2602            0.0000000000
     19805      6602  TIP3      H1             33.5575696015        2.9857242534       -0.2844246635  WZ3       2602            0.0000000000
     19806      6602  TIP3      H2             34.2122996015        4.2924442534        0.1101553365  WZ3       2602            0.0000000000
     19807      6603  TIP3      OH2            34.0751396015        9.1820942534       13.2249753365  WZ3       2603            0.0000000000
     19808      6603  TIP3      H1             33.2239896015        9.4204742534       12.8576153365  WZ3       2603            0.0000000000
     19809      6603  TIP3      H2             34.6654796015        9.1654142534       12.4716853365  WZ3       2603            0.0000000000
     19810      6604  TIP3      OH2            32.4071096015       12.1679642534        0.8530353365  WZ3       2604            0.0000000000
     19811      6604  TIP3      H1             32.0342196015       11.3423442534        1.1620953365  WZ3       2604            0.0000000000
     19812      6604  TIP3      H2             32.6844596015       11.9849042534       -0.0446246635  WZ3       2604            0.0000000000
     19813      6605  TIP3      OH2            29.5674996015        6.9759142534        7.8742253365  WZ3       2605            0.0000000000
     19814      6605  TIP3      H1             28.6391896015        6.7441042534        7.8471553365  WZ3       2605            0.0000000000
     19815      6605  TIP3      H2             30.0186096015        6.1988942534        7.5441053365  WZ3       2605            0.0000000000
     19816      6606  TIP3      OH2            22.1108096015       11.3040742534        4.0070953365  WZ3       2606            0.0000000000
     19817      6606  TIP3      H1             22.6380296015       12.0775142534        3.8069753365  WZ3       2606            0.0000000000
     19818      6606  TIP3      H2             21.2306596015       11.5289942534        3.7054953365  WZ3       2606            0.0000000000
     19819      6607  TIP3      OH2            17.8655796015        6.1664842534       -1.4056646635  WZ3       2607            0.0000000000
     19820      6607  TIP3      H1             18.4815696015        6.7932042534       -1.0261846635  WZ3       2607            0.0000000000
     19821      6607  TIP3      H2             17.0038396015        6.4824642534       -1.1340146635  WZ3       2607            0.0000000000
     19822      6608  TIP3      OH2            23.5380396015        8.9670642534        3.5835253365  WZ3       2608            0.0000000000
     19823      6608  TIP3      H1             23.2970396015        9.8925042534        3.6250553365  WZ3       2608            0.0000000000
     19824      6608  TIP3      H2             22.7973996015        8.5081942534        3.9799153365  WZ3       2608            0.0000000000
     19825      6609  TIP3      OH2            24.0526996015       13.1164242534        9.8986353365  WZ3       2609            0.0000000000
     19826      6609  TIP3      H1             24.4151696015       13.9709842534        9.6650753365  WZ3       2609            0.0000000000
     19827      6609  TIP3      H2             24.5842196015       12.8245842534       10.6392653365  WZ3       2609            0.0000000000
     19828      6610  TIP3      OH2            22.2211196015       13.9888242534        3.1287453365  WZ3       2610            0.0000000000
     19829      6610  TIP3      H1             21.2711696015       14.0945642534        3.1800753365  WZ3       2610            0.0000000000
     19830      6610  TIP3      H2             22.5729296015       14.8095642534        3.4734953365  WZ3       2610            0.0000000000
     19831      6611  TIP3      OH2            27.5967796015        9.2154942534        9.5991953365  WZ3       2611            0.0000000000
     19832      6611  TIP3      H1             27.1709096015        8.9876642534       10.4255953365  WZ3       2611            0.0000000000
     19833      6611  TIP3      H2             28.1773596015        8.4766742534        9.4167253365  WZ3       2611            0.0000000000
     19834      6612  TIP3      OH2            29.7996696015       10.1445442534       -1.3269046635  WZ3       2612            0.0000000000
     19835      6612  TIP3      H1             30.1529796015        9.7645242534       -0.5225546635  WZ3       2612            0.0000000000
     19836      6612  TIP3      H2             28.8510196015       10.0510242534       -1.2399746635  WZ3       2612            0.0000000000
     19837      6613  TIP3      OH2            30.2551996015       13.7674442534       12.0686753365  WZ3       2613            0.0000000000
     19838      6613  TIP3      H1             29.6535196015       13.2117342534       11.5733053365  WZ3       2613            0.0000000000
     19839      6613  TIP3      H2             30.5365696015       14.4344242534       11.4424153365  WZ3       2613            0.0000000000
     19840      6614  TIP3      OH2            34.3031096015       14.6237942534       -1.1258846635  WZ3       2614            0.0000000000
     19841      6614  TIP3      H1             35.0468996015       15.2098442534       -1.2657246635  WZ3       2614            0.0000000000
     19842      6614  TIP3      H2             33.6089196015       15.1923742534       -0.7926446635  WZ3       2614            0.0000000000
     19843      6615  TIP3      OH2            18.3777896015        1.0002142534       11.4759353365  WZ3       2615            0.0000000000
     19844      6615  TIP3      H1             17.4850196015        1.3387542534       11.4083353365  WZ3       2615            0.0000000000
     19845      6615  TIP3      H2             18.2790696015        0.1448242534       11.8940153365  WZ3       2615            0.0000000000
     19846      6616  TIP3      OH2            30.6655996015        8.8167442534        0.8998853365  WZ3       2616            0.0000000000
     19847      6616  TIP3      H1             30.3883596015        8.0886742534        1.4559953365  WZ3       2616            0.0000000000
     19848      6616  TIP3      H2             31.5928996015        8.9359442534        1.1051453365  WZ3       2616            0.0000000000
     19849      6617  TIP3      OH2            18.0289896015       12.8046542534        9.9108753365  WZ3       2617            0.0000000000
     19850      6617  TIP3      H1             18.2460196015       11.8728942534        9.8798453365  WZ3       2617            0.0000000000
     19851      6617  TIP3      H2             18.2753396015       13.0791542534       10.7941553365  WZ3       2617            0.0000000000
     19852      6618  TIP3      OH2            23.8904496015       11.2561542534       -2.8799046635  WZ3       2618            0.0000000000
     19853      6618  TIP3      H1             24.1294296015       10.5079642534       -3.4270146635  WZ3       2618            0.0000000000
     19854      6618  TIP3      H2             23.6215796015       10.8683242534       -2.0471246635  WZ3       2618            0.0000000000
     19855      6619  TIP3      OH2            22.8275096015       10.8265342534       -0.4236446635  WZ3       2619            0.0000000000
     19856      6619  TIP3      H1             22.9743096015       10.3065142534        0.3664453365  WZ3       2619            0.0000000000
     19857      6619  TIP3      H2             22.8246796015       11.7332942534       -0.1170546635  WZ3       2619            0.0000000000
     19858      6620  TIP3      OH2            19.2806196015        8.0788642534        0.0868953365  WZ3       2620            0.0000000000
     19859      6620  TIP3      H1             18.5945496015        8.4311142534        0.6538653365  WZ3       2620            0.0000000000
     19860      6620  TIP3      H2             19.8034096015        8.8418242534       -0.1596746635  WZ3       2620            0.0000000000
     19861      6621  TIP3      OH2            27.1121296015        0.7412442534       10.3657953365  WZ3       2621            0.0000000000
     19862      6621  TIP3      H1             27.8109196015        0.8151142534       11.0157653365  WZ3       2621            0.0000000000
     19863      6621  TIP3      H2             26.7312696015       -0.1232557466       10.5200853365  WZ3       2621            0.0000000000
     19864      6622  TIP3      OH2            27.8966196015        0.3934142534        1.4630253365  WZ3       2622            0.0000000000
     19865      6622  TIP3      H1             28.1164496015        0.8649542534        0.6595653365  WZ3       2622            0.0000000000
     19866      6622  TIP3      H2             28.4550196015        0.7876742534        2.1330853365  WZ3       2622            0.0000000000
     19867      6623  TIP3      OH2            25.5652296015       12.5238942534        0.3257753365  WZ3       2623            0.0000000000
     19868      6623  TIP3      H1             24.7488396015       13.0208642534        0.3782053365  WZ3       2623            0.0000000000
     19869      6623  TIP3      H2             26.0948596015       12.9992442534       -0.3143446635  WZ3       2623            0.0000000000
     19870      6624  TIP3      OH2            25.0966096015        2.1212942534        2.2978653365  WZ3       2624            0.0000000000
     19871      6624  TIP3      H1             25.9088696015        2.6256142534        2.3440353365  WZ3       2624            0.0000000000
     19872      6624  TIP3      H2             24.8519096015        1.9762642534        3.2118253365  WZ3       2624            0.0000000000
     19873      6625  TIP3      OH2            25.6322496015        3.1075642534       11.4825253365  WZ3       2625            0.0000000000
     19874      6625  TIP3      H1             25.7512796015        3.6811042534       12.2395653365  WZ3       2625            0.0000000000
     19875      6625  TIP3      H2             26.2877096015        2.4195042534       11.5973053365  WZ3       2625            0.0000000000
     19876      6626  TIP3      OH2            25.9802796015       -0.7974057466        3.2359753365  WZ3       2626            0.0000000000
     19877      6626  TIP3      H1             25.6336296015       -0.1803457466        3.8804053365  WZ3       2626            0.0000000000
     19878      6626  TIP3      H2             26.6389696015       -0.2968357466        2.7545253365  WZ3       2626            0.0000000000
     19879      6627  TIP3      OH2            22.9035396015       13.5676142534        0.3074653365  WZ3       2627            0.0000000000
     19880      6627  TIP3      H1             23.0644096015       14.3673642534       -0.1932746635  WZ3       2627            0.0000000000
     19881      6627  TIP3      H2             22.7063196015       13.8742142534        1.1925253365  WZ3       2627            0.0000000000
     19882      6628  TIP3      OH2            21.6379796015        0.2655342534       -0.0767746635  WZ3       2628            0.0000000000
     19883      6628  TIP3      H1             21.5544596015        1.1538442534        0.2698653365  WZ3       2628            0.0000000000
     19884      6628  TIP3      H2             22.5280096015        0.0002042534        0.1549053365  WZ3       2628            0.0000000000
     19885      6629  TIP3      OH2            31.8368296015        1.0145942534       12.3174953365  WZ3       2629            0.0000000000
     19886      6629  TIP3      H1             30.9204096015        1.2767642534       12.2298653365  WZ3       2629            0.0000000000
     19887      6629  TIP3      H2             32.1723296015        1.0114942534       11.4210253365  WZ3       2629            0.0000000000
     19888      6630  TIP3      OH2            30.4389296015        4.7646942534        6.4132253365  WZ3       2630            0.0000000000
     19889      6630  TIP3      H1             29.6413696015        4.3497142534        6.0847253365  WZ3       2630            0.0000000000
     19890      6630  TIP3      H2             30.8840396015        4.0740642534        6.9042753365  WZ3       2630            0.0000000000
     19891      6631  TIP3      OH2            19.8965096015       10.6927542534       -1.0163246635  WZ3       2631            0.0000000000
     19892      6631  TIP3      H1             20.4886596015       11.3922342534       -0.7400846635  WZ3       2631            0.0000000000
     19893      6631  TIP3      H2             20.3558096015       10.2597042534       -1.7358646635  WZ3       2631            0.0000000000
     19894      6632  TIP3      OH2            18.2124296015        3.3570542534       -1.9003846635  WZ3       2632            0.0000000000
     19895      6632  TIP3      H1             18.1676896015        4.2963642534       -1.7216846635  WZ3       2632            0.0000000000
     19896      6632  TIP3      H2             17.3247496015        3.1215442534       -2.1701746635  WZ3       2632            0.0000000000
     19897      6633  TIP3      OH2            31.5253896015       14.0209442534        8.0355753365  WZ3       2633            0.0000000000
     19898      6633  TIP3      H1             31.3698196015       14.6993842534        7.3785053365  WZ3       2633            0.0000000000
     19899      6633  TIP3      H2             32.4580296015       14.0928742534        8.2386353365  WZ3       2633            0.0000000000
     19900      6634  TIP3      OH2            19.0206296015       -1.8612857466        6.7727153365  WZ3       2634            0.0000000000
     19901      6634  TIP3      H1             18.7916096015       -1.8020357466        5.8452153365  WZ3       2634            0.0000000000
     19902      6634  TIP3      H2             18.5779696015       -2.6527357466        7.0791253365  WZ3       2634            0.0000000000
     19903      6635  TIP3      OH2            17.9509596015       12.0794242534        2.9332953365  WZ3       2635            0.0000000000
     19904      6635  TIP3      H1             17.1188196015       12.5516942534        2.9604353365  WZ3       2635            0.0000000000
     19905      6635  TIP3      H2             18.4967896015       12.5891842534        2.3346053365  WZ3       2635            0.0000000000
     19906      6636  TIP3      OH2            17.2393296015       14.6917942534       14.2630953365  WZ3       2636            0.0000000000
     19907      6636  TIP3      H1             17.7795496015       14.4751942534       15.0230153365  WZ3       2636            0.0000000000
     19908      6636  TIP3      H2             16.7581296015       13.8863942534       14.0733453365  WZ3       2636            0.0000000000
     19909      6637  TIP3      OH2            21.8366696015       13.6112342534       15.8835153365  WZ3       2637            0.0000000000
     19910      6637  TIP3      H1             22.6043896015       13.1523142534       16.2244353365  WZ3       2637            0.0000000000
     19911      6637  TIP3      H2             21.8152896015       13.3852142534       14.9536353365  WZ3       2637            0.0000000000
     19912      6638  TIP3      OH2            25.9286296015       13.1192942534       -2.7413046635  WZ3       2638            0.0000000000
     19913      6638  TIP3      H1             25.2847296015       12.4881542534       -2.4199346635  WZ3       2638            0.0000000000
     19914      6638  TIP3      H2             26.6904596015       12.5880942534       -2.9729546635  WZ3       2638            0.0000000000
     19915      6639  TIP3      OH2            28.4135396015       11.9913442534       14.6126653365  WZ3       2639            0.0000000000
     19916      6639  TIP3      H1             28.0624896015       11.1346442534       14.8557053365  WZ3       2639            0.0000000000
     19917      6639  TIP3      H2             29.1398596015       12.1340142534       15.2195653365  WZ3       2639            0.0000000000
     19918      6640  TIP3      OH2            30.5329196015       12.9362842534       -2.5075046635  WZ3       2640            0.0000000000
     19919      6640  TIP3      H1             30.8159596015       12.1418042534       -2.0548146635  WZ3       2640            0.0000000000
     19920      6640  TIP3      H2             31.2727096015       13.1693842534       -3.0683946635  WZ3       2640            0.0000000000
     19921      6641  TIP3      OH2            17.1462796015        8.5022042534       15.2175253365  WZ3       2641            0.0000000000
     19922      6641  TIP3      H1             17.2903296015        7.6002742534       14.9311953365  WZ3       2641            0.0000000000
     19923      6641  TIP3      H2             16.3740196015        8.7884142534       14.7297553365  WZ3       2641            0.0000000000
     19924      6642  TIP3      OH2            21.4876496015        8.8457742534       -2.6500146635  WZ3       2642            0.0000000000
     19925      6642  TIP3      H1             21.5520596015        8.0517342534       -2.1193746635  WZ3       2642            0.0000000000
     19926      6642  TIP3      H2             22.1405696015        8.7270542534       -3.3398146635  WZ3       2642            0.0000000000
     19927      6643  TIP3      OH2            23.8018896015        8.4720142534       14.6501653365  WZ3       2643            0.0000000000
     19928      6643  TIP3      H1             23.4732696015        8.7428242534       13.7929053365  WZ3       2643            0.0000000000
     19929      6643  TIP3      H2             23.9537096015        7.5309942534       14.5626653365  WZ3       2643            0.0000000000
     19930      6644  TIP3      OH2            26.8399896015        9.8929442534       -2.9142146635  WZ3       2644            0.0000000000
     19931      6644  TIP3      H1             26.5713996015       10.0731542534       -2.0133246635  WZ3       2644            0.0000000000
     19932      6644  TIP3      H2             26.6335496015        8.9675642534       -3.0456346635  WZ3       2644            0.0000000000
     19933      6645  TIP3      OH2            29.5364096015        8.3877442534       12.0333953365  WZ3       2645            0.0000000000
     19934      6645  TIP3      H1             30.2818896015        8.9761142534       11.9137953365  WZ3       2645            0.0000000000
     19935      6645  TIP3      H2             28.7790896015        8.9697142534       12.0967053365  WZ3       2645            0.0000000000
     19936      6646  TIP3      OH2            17.9789296015        5.7025342534       14.6374553365  WZ3       2646            0.0000000000
     19937      6646  TIP3      H1             18.3870496015        4.8451942534       14.5165153365  WZ3       2646            0.0000000000
     19938      6646  TIP3      H2             17.7186896015        5.7166642534       15.5584853365  WZ3       2646            0.0000000000
     19939      6647  TIP3      OH2            22.6370296015        6.8183942534       -0.3442146635  WZ3       2647            0.0000000000
     19940      6647  TIP3      H1             22.1772296015        6.3342242534        0.3416353365  WZ3       2647            0.0000000000
     19941      6647  TIP3      H2             22.8918996015        6.1499342534       -0.9801646635  WZ3       2647            0.0000000000
     19942      6648  TIP3      OH2            21.9259596015        4.7111042534       12.0117453365  WZ3       2648            0.0000000000
     19943      6648  TIP3      H1             21.3075696015        5.3857642534       12.2922153365  WZ3       2648            0.0000000000
     19944      6648  TIP3      H2             22.2700796015        5.0324942534       11.1783653365  WZ3       2648            0.0000000000
     19945      6649  TIP3      OH2            23.7080696015        5.0615742534       -2.0818946635  WZ3       2649            0.0000000000
     19946      6649  TIP3      H1             23.5275696015        4.9066942534       -3.0090646635  WZ3       2649            0.0000000000
     19947      6649  TIP3      H2             24.6581196015        5.1694442534       -2.0371046635  WZ3       2649            0.0000000000
     19948      6650  TIP3      OH2            26.9457796015        7.1826342534       15.2892253365  WZ3       2650            0.0000000000
     19949      6650  TIP3      H1             27.8988996015        7.2665442534       15.2618253365  WZ3       2650            0.0000000000
     19950      6650  TIP3      H2             26.7852396015        6.4708142534       15.9087153365  WZ3       2650            0.0000000000
     19951      6651  TIP3      OH2            33.0978996015        7.4159942534       -2.6360846635  WZ3       2651            0.0000000000
     19952      6651  TIP3      H1             32.8243796015        6.9915442534       -3.4492546635  WZ3       2651            0.0000000000
     19953      6651  TIP3      H2             33.1373096015        8.3474442534       -2.8530446635  WZ3       2651            0.0000000000
     19954      6652  TIP3      OH2            22.2653296015        2.0661842534       13.0940553365  WZ3       2652            0.0000000000
     19955      6652  TIP3      H1             22.4154196015        1.3373142534       12.4920253365  WZ3       2652            0.0000000000
     19956      6652  TIP3      H2             22.2675696015        2.8433542534       12.5352753365  WZ3       2652            0.0000000000
     19957      6653  TIP3      OH2            22.6778996015        0.4357642534       10.5867953365  WZ3       2653            0.0000000000
     19958      6653  TIP3      H1             23.2136496015        0.8874342534        9.9347253365  WZ3       2653            0.0000000000
     19959      6653  TIP3      H2             21.8258596015        0.3277442534       10.1642053365  WZ3       2653            0.0000000000
     19960      6654  TIP3      OH2            24.2597396015        5.8753842534       10.8263153365  WZ3       2654            0.0000000000
     19961      6654  TIP3      H1             25.0102196015        5.7191342534       10.2530953365  WZ3       2654            0.0000000000
     19962      6654  TIP3      H2             23.9205696015        6.7270442534       10.5508653365  WZ3       2654            0.0000000000
     19963      6655  TIP3      OH2            28.6753596015        3.6905642534       15.8548453365  WZ3       2655            0.0000000000
     19964      6655  TIP3      H1             28.8674896015        2.7595042534       15.7432953365  WZ3       2655            0.0000000000
     19965      6655  TIP3      H2             29.5329896015        4.1155142534       15.8443853365  WZ3       2655            0.0000000000
     19966      6656  TIP3      OH2            29.9920796015        6.4790842534       13.9321153365  WZ3       2656            0.0000000000
     19967      6656  TIP3      H1             29.7105796015        7.1885442534       13.3544953365  WZ3       2656            0.0000000000
     19968      6656  TIP3      H2             30.9345096015        6.4063842534       13.7812353365  WZ3       2656            0.0000000000
     19969      6657  TIP3      OH2            20.7439596015        3.2645342534       15.0056153365  WZ3       2657            0.0000000000
     19970      6657  TIP3      H1             19.9768596015        2.7320142534       14.7953753365  WZ3       2657            0.0000000000
     19971      6657  TIP3      H2             21.4228596015        2.9545742534       14.4062453365  WZ3       2657            0.0000000000
     19972      6658  TIP3      OH2            23.4834496015       -2.1076657466       11.0181553365  WZ3       2658            0.0000000000
     19973      6658  TIP3      H1             23.3854096015       -1.1613457466       10.9127753365  WZ3       2658            0.0000000000
     19974      6658  TIP3      H2             22.7410696015       -2.4802857466       10.5425053365  WZ3       2658            0.0000000000
     19975      6659  TIP3      OH2            24.7474996015        2.2138742534       14.5819953365  WZ3       2659            0.0000000000
     19976      6659  TIP3      H1             24.5120396015        1.9945442534       15.4834853365  WZ3       2659            0.0000000000
     19977      6659  TIP3      H2             23.9641896015        2.0069942534       14.0722453365  WZ3       2659            0.0000000000
     19978      6660  TIP3      OH2            27.4631596015        1.3412242534       13.6573453365  WZ3       2660            0.0000000000
     19979      6660  TIP3      H1             26.5156996015        1.3731942534       13.7896753365  WZ3       2660            0.0000000000
     19980      6660  TIP3      H2             27.7758296015        0.7159342534       14.3111653365  WZ3       2660            0.0000000000
     19981      6661  TIP3      OH2            29.0973096015       -0.0246657466       15.6625353365  WZ3       2661            0.0000000000
     19982      6661  TIP3      H1             29.0004896015       -0.9769357466       15.6567253365  WZ3       2661            0.0000000000
     19983      6661  TIP3      H2             28.7756196015        0.2440142534       16.5230853365  WZ3       2661            0.0000000000
     19984      6662  TIP3      OH2            18.9242396015        1.1849142534       14.7100853365  WZ3       2662            0.0000000000
     19985      6662  TIP3      H1             19.1359796015        0.4785242534       14.0998353365  WZ3       2662            0.0000000000
     19986      6662  TIP3      H2             18.8129896015        0.7475142534       15.5542053365  WZ3       2662            0.0000000000
     19987      6663  TIP3      OH2            23.7052596015       -2.8139257466       13.6894353365  WZ3       2663            0.0000000000
     19988      6663  TIP3      H1             24.4170996015       -3.4537057466       13.6753453365  WZ3       2663            0.0000000000
     19989      6663  TIP3      H2             23.6042996015       -2.5470957466       12.7757453365  WZ3       2663            0.0000000000
     19990      6664  TIP3      OH2            24.0590096015       -1.1310857466       15.7430653365  WZ3       2664            0.0000000000
     19991      6664  TIP3      H1             23.9272296015       -1.6067057466       14.9229153365  WZ3       2664            0.0000000000
     19992      6664  TIP3      H2             23.4597496015       -0.3867257466       15.6877753365  WZ3       2664            0.0000000000
     19993      6665  TIP3      OH2            23.6052396015       15.7519442534       -1.0805346635  WZ3       2665            0.0000000000
     19994      6665  TIP3      H1             24.5383096015       15.9098142534       -0.9366946635  WZ3       2665            0.0000000000
     19995      6665  TIP3      H2             23.3411196015       16.4272442534       -1.7053846635  WZ3       2665            0.0000000000
     19996      6666  TIP3      OH2            17.1737296015       10.3883242534       -1.5977246635  WZ3       2666            0.0000000000
     19997      6666  TIP3      H1             18.0876496015       10.4672142534       -1.3243346635  WZ3       2666            0.0000000000
     19998      6666  TIP3      H2             17.1810396015        9.7012842534       -2.2641646635  WZ3       2666            0.0000000000
     19999      6667  TIP3      OH2            15.8227896015       15.7811742534        3.4796653365  WZ3       2667            0.0000000000
     20000      6667  TIP3      H1             15.1754996015       15.3193442534        2.9467853365  WZ3       2667            0.0000000000
     20001      6667  TIP3      H2             16.1772496015       15.1095042534        4.0622853365  WZ3       2667            0.0000000000
     20002      6668  TIP3      OH2            16.6927096015       13.8618742534        5.2842853365  WZ3       2668            0.0000000000
     20003      6668  TIP3      H1             16.3583896015       12.9816042534        5.4563053365  WZ3       2668            0.0000000000
     20004      6668  TIP3      H2             16.9149496015       14.2073742534        6.1488453365  WZ3       2668            0.0000000000
     20005      6669  TIP3      OH2            34.2411896015       14.6715142534        8.2647653365  WZ3       2669            0.0000000000
     20006      6669  TIP3      H1             34.2198596015       14.8563542534        9.2037053365  WZ3       2669            0.0000000000
     20007      6669  TIP3      H2             34.9318096015       15.2399142534        7.9239053365  WZ3       2669            0.0000000000
     20008      6670  TIP3      OH2            33.8044796015       14.2386242534       11.1866753365  WZ3       2670            0.0000000000
     20009      6670  TIP3      H1             33.3173496015       13.5030342534       10.8154153365  WZ3       2670            0.0000000000
     20010      6670  TIP3      H2             34.3537496015       13.8450142534       11.8646153365  WZ3       2670            0.0000000000
     20011      6671  TIP3      OH2            32.2552096015       10.0284342534       15.8247053365  WZ3       2671            0.0000000000
     20012      6671  TIP3      H1             31.3893196015        9.9234042534       16.2189353365  WZ3       2671            0.0000000000
     20013      6671  TIP3      H2             32.6317996015       10.7867642534       16.2711753365  WZ3       2671            0.0000000000
     20014      6672  TIP3      OH2            33.5561796015        8.2848042534        1.3389553365  WZ3       2672            0.0000000000
     20015      6672  TIP3      H1             34.4063196015        8.7058942534        1.4661153365  WZ3       2672            0.0000000000
     20016      6672  TIP3      H2             33.5616896015        7.5448142534        1.9460953365  WZ3       2672            0.0000000000
     20017      6673  TIP3      OH2            33.9507396015        6.3385442534        3.1625253365  WZ3       2673            0.0000000000
     20018      6673  TIP3      H1             33.2241996015        5.8588042534        3.5602853365  WZ3       2673            0.0000000000
     20019      6673  TIP3      H2             34.5320696015        6.5440142534        3.8946853365  WZ3       2673            0.0000000000
     20020      6674  TIP3      OH2            33.7098596015        9.1232942534        8.1102853365  WZ3       2674            0.0000000000
     20021      6674  TIP3      H1             34.5432796015        8.7452942534        7.8296453365  WZ3       2674            0.0000000000
     20022      6674  TIP3      H2             33.8218896015       10.0664142534        7.9911953365  WZ3       2674            0.0000000000
     20023      6675  TIP3      OH2            32.1960896015       12.0010442534       10.4171253365  WZ3       2675            0.0000000000
     20024      6675  TIP3      H1             31.5486196015       12.3261942534       11.0426453365  WZ3       2675            0.0000000000
     20025      6675  TIP3      H2             31.6784896015       11.5608142534        9.7429553365  WZ3       2675            0.0000000000
     20026      6676  TIP3      OH2            34.2190496015        6.2393942534       -0.4463446635  WZ3       2676            0.0000000000
     20027      6676  TIP3      H1             33.6971596015        6.5958042534       -1.1652546635  WZ3       2676            0.0000000000
     20028      6676  TIP3      H2             34.1859696015        6.9141742534        0.2317453365  WZ3       2676            0.0000000000
     20029      6677  TIP3      OH2            32.5679496015        3.4789542534       -1.8956346635  WZ3       2677            0.0000000000
     20030      6677  TIP3      H1             32.6643896015        4.1456542534       -2.5756646635  WZ3       2677            0.0000000000
     20031      6677  TIP3      H2             32.4279096015        2.6635842534       -2.3770846635  WZ3       2677            0.0000000000
     20032      6678  TIP3      OH2            31.7374196015        4.8591942534        3.7253953365  WZ3       2678            0.0000000000
     20033      6678  TIP3      H1             31.5872996015        3.9140542534        3.7051753365  WZ3       2678            0.0000000000
     20034      6678  TIP3      H2             31.3838696015        5.1403342534        4.5693053365  WZ3       2678            0.0000000000
     20035      6679  TIP3      OH2            16.7726596015        6.9374142534        7.7357753365  WZ3       2679            0.0000000000
     20036      6679  TIP3      H1             16.9569496015        6.8555842534        6.8000653365  WZ3       2679            0.0000000000
     20037      6679  TIP3      H2             17.6219496015        6.8131142534        8.1594153365  WZ3       2679            0.0000000000
     20038      6680  TIP3      OH2            32.5937096015        6.8295242534       13.3642253365  WZ3       2680            0.0000000000
     20039      6680  TIP3      H1             33.1764396015        6.0947542534       13.5559453365  WZ3       2680            0.0000000000
     20040      6680  TIP3      H2             33.1576396015        7.6015542534       13.4108053365  WZ3       2680            0.0000000000
     20041      6681  TIP3      OH2            34.0904196015        4.7321042534       14.0487653365  WZ3       2681            0.0000000000
     20042      6681  TIP3      H1             33.2270896015        4.3533142534       13.8832353365  WZ3       2681            0.0000000000
     20043      6681  TIP3      H2             34.6947896015        3.9935842534       13.9743453365  WZ3       2681            0.0000000000
     20044      6682  TIP3      OH2            31.8153296015        0.8869342534       -2.7780846635  WZ3       2682            0.0000000000
     20045      6682  TIP3      H1             32.4259096015        0.5156142534       -2.1412646635  WZ3       2682            0.0000000000
     20046      6682  TIP3      H2             30.9784796015        0.4656242534       -2.5820846635  WZ3       2682            0.0000000000
     20047      6683  TIP3      OH2            31.4478996015        2.4417742534        2.1879053365  WZ3       2683            0.0000000000
     20048      6683  TIP3      H1             31.7276096015        1.5348142534        2.3120753365  WZ3       2683            0.0000000000
     20049      6683  TIP3      H2             32.2070696015        2.8759242534        1.7988253365  WZ3       2683            0.0000000000
     20050      6684  TIP3      OH2            32.0597296015        3.0235142534        7.6237953365  WZ3       2684            0.0000000000
     20051      6684  TIP3      H1             32.9925296015        3.2355042534        7.5893953365  WZ3       2684            0.0000000000
     20052      6684  TIP3      H2             31.8244796015        3.1247242534        8.5460953365  WZ3       2684            0.0000000000
     20053      6685  TIP3      OH2            32.0889196015        3.7600442534       10.3997353365  WZ3       2685            0.0000000000
     20054      6685  TIP3      H1             31.2460496015        4.0280842534       10.7657153365  WZ3       2685            0.0000000000
     20055      6685  TIP3      H2             32.5313496015        4.5822342534       10.1888453365  WZ3       2685            0.0000000000
     20056      6686  TIP3      OH2            16.3701396015        2.2079142534       13.8766553365  WZ3       2686            0.0000000000
     20057      6686  TIP3      H1             17.2896296015        2.0857442534       14.1129653365  WZ3       2686            0.0000000000
     20058      6686  TIP3      H2             15.9205896015        1.4578842534       14.2660053365  WZ3       2686            0.0000000000
     20059      6687  TIP3      OH2            34.3720796015       -2.2599357466       15.7532353365  WZ3       2687            0.0000000000
     20060      6687  TIP3      H1             34.7217796015       -2.9135857466       15.1477053365  WZ3       2687            0.0000000000
     20061      6687  TIP3      H2             34.5190296015       -1.4225257466       15.3134953365  WZ3       2687            0.0000000000
     20062      6688  TIP3      OH2            32.0613796015       -0.2952957466        2.2361053365  WZ3       2688            0.0000000000
     20063      6688  TIP3      H1             32.2438796015       -0.7441457466        3.0616053365  WZ3       2688            0.0000000000
     20064      6688  TIP3      H2             31.4616696015       -0.8798557466        1.7725653365  WZ3       2688            0.0000000000
     20065      6689  TIP3      OH2            17.5913896015        0.5200742534        6.7679453365  WZ3       2689            0.0000000000
     20066      6689  TIP3      H1             18.0365496015       -0.2716757466        7.0699153365  WZ3       2689            0.0000000000
     20067      6689  TIP3      H2             18.0576896015        1.2365942534        7.1985053365  WZ3       2689            0.0000000000
     20068      6690  TIP3      OH2            15.8954196015        3.5193742534        7.8369653365  WZ3       2690            0.0000000000
     20069      6690  TIP3      H1             16.3873996015        3.2984242534        7.0461653365  WZ3       2690            0.0000000000
     20070      6690  TIP3      H2             16.2575096015        4.3597142534        8.1179153365  WZ3       2690            0.0000000000
     20071      6691  TIP3      OH2            33.8917996015       -0.1504757466       14.1023653365  WZ3       2691            0.0000000000
     20072      6691  TIP3      H1             32.9743696015        0.1202342534       14.0667153365  WZ3       2691            0.0000000000
     20073      6691  TIP3      H2             34.0147396015       -0.6856357466       13.3183353365  WZ3       2691            0.0000000000
     20074      6692  TIP3      OH2            33.9279996015       -0.2274857466       -1.2358646635  WZ3       2692            0.0000000000
     20075      6692  TIP3      H1             34.3402596015       -0.9489157466       -1.7110646635  WZ3       2692            0.0000000000
     20076      6692  TIP3      H2             34.6096496015        0.4419742534       -1.1774346635  WZ3       2692            0.0000000000
     20077      6693  TIP3      OH2            16.2090696015       -0.2227157466        1.8912053365  WZ3       2693            0.0000000000
     20078      6693  TIP3      H1             15.2839096015       -0.0140557466        1.7617553365  WZ3       2693            0.0000000000
     20079      6693  TIP3      H2             16.6630596015        0.2613642534        1.2014353365  WZ3       2693            0.0000000000
     20080      6694  TIP3      OH2            30.9797896015       14.7614542534        3.8369453365  WZ3       2694            0.0000000000
     20081      6694  TIP3      H1             31.6320796015       14.4136642534        3.2288553365  WZ3       2694            0.0000000000
     20082      6694  TIP3      H2             31.4901696015       15.2497742534        4.4829153365  WZ3       2694            0.0000000000
     20083      6695  TIP3      OH2            16.1726096015       -1.4848157466       10.2354553365  WZ3       2695            0.0000000000
     20084      6695  TIP3      H1             15.5076596015       -1.7307857466       10.8785453365  WZ3       2695            0.0000000000
     20085      6695  TIP3      H2             15.7297396015       -0.8627757466        9.6582553365  WZ3       2695            0.0000000000
     20086      6696  TIP3      OH2            18.3645396015       11.6905942534       14.3800353365  WZ3       2696            0.0000000000
     20087      6696  TIP3      H1             17.5437896015       11.8652442534       13.9195053365  WZ3       2696            0.0000000000
     20088      6696  TIP3      H2             18.1123196015       11.6170642534       15.3004753365  WZ3       2696            0.0000000000
     20089      6697  TIP3      OH2            21.3188296015       12.6647142534       10.6384353365  WZ3       2697            0.0000000000
     20090      6697  TIP3      H1             20.8939396015       13.4745642534       10.3558953365  WZ3       2697            0.0000000000
     20091      6697  TIP3      H2             22.2231096015       12.7501242534       10.3364153365  WZ3       2697            0.0000000000
     20092      6698  TIP3      OH2            25.6299696015       14.0637142534       13.5978053365  WZ3       2698            0.0000000000
     20093      6698  TIP3      H1             25.8147196015       13.7303242534       14.4758353365  WZ3       2698            0.0000000000
     20094      6698  TIP3      H2             26.4764196015       14.3735742534       13.2757253365  WZ3       2698            0.0000000000
     20095      6699  TIP3      OH2            27.9750096015       15.3496042534       12.8419453365  WZ3       2699            0.0000000000
     20096      6699  TIP3      H1             28.6518996015       14.7168342534       12.6018653365  WZ3       2699            0.0000000000
     20097      6699  TIP3      H2             28.2968896015       15.7506542534       13.6492753365  WZ3       2699            0.0000000000
     20098      6700  TIP3      OH2            32.8923896015       -2.0608457466       11.9214453365  WZ3       2700            0.0000000000
     20099      6700  TIP3      H1             32.0797396015       -1.7358157466       11.5339153365  WZ3       2700            0.0000000000
     20100      6700  TIP3      H2             33.1252396015       -2.8209957466       11.3883553365  WZ3       2700            0.0000000000
     20101      6701  TIP3      OH2            18.7204996015       15.9211042534       10.6859653365  WZ3       2701            0.0000000000
     20102      6701  TIP3      H1             18.0001396015       16.3612042534       10.2347353365  WZ3       2701            0.0000000000
     20103      6701  TIP3      H2             18.3548996015       15.6705742534       11.5343653365  WZ3       2701            0.0000000000
     20104      6702  TIP3      OH2            21.1877596015       15.5214942534        9.7156853365  WZ3       2702            0.0000000000
     20105      6702  TIP3      H1             20.3229796015       15.5933442534       10.1196953365  WZ3       2702            0.0000000000
     20106      6702  TIP3      H2             21.1326596015       16.0682242534        8.9319353365  WZ3       2702            0.0000000000
     20107      6703  TIP3      OH2            25.8983196015       15.4093842534        8.8912853365  WZ3       2703            0.0000000000
     20108      6703  TIP3      H1             25.4417196015       15.9383542534        8.2371253365  WZ3       2703            0.0000000000
     20109      6703  TIP3      H2             26.0611196015       16.0125242534        9.6165153365  WZ3       2703            0.0000000000
     20110      6704  TIP3      OH2            28.2259496015       14.2873442534        9.8363153365  WZ3       2704            0.0000000000
     20111      6704  TIP3      H1             27.3213196015       14.4523642534        9.5705253365  WZ3       2704            0.0000000000
     20112      6704  TIP3      H2             28.6548096015       15.1405642534        9.7706553365  WZ3       2704            0.0000000000
     20113      6705  TIP3      OH2            30.8301396015       15.8572542534       10.1310953365  WZ3       2705            0.0000000000
     20114      6705  TIP3      H1             30.6483396015       16.7731442534        9.9205853365  WZ3       2705            0.0000000000
     20115      6705  TIP3      H2             31.0069196015       15.4469642534        9.2845553365  WZ3       2705            0.0000000000
     20116      6706  TIP3      OH2            18.1353096015       14.5443542534        7.5961453365  WZ3       2706            0.0000000000
     20117      6706  TIP3      H1             18.1169096015       14.1188642534        8.4533753365  WZ3       2706            0.0000000000
     20118      6706  TIP3      H2             18.9400996015       14.2258542534        7.1873653365  WZ3       2706            0.0000000000
     20119      6707  TIP3      OH2            20.2766196015       13.2542242534        6.2511353365  WZ3       2707            0.0000000000
     20120      6707  TIP3      H1             20.0576896015       12.3379642534        6.4207353365  WZ3       2707            0.0000000000
     20121      6707  TIP3      H2             21.1008396015       13.3942642534        6.7172753365  WZ3       2707            0.0000000000
     20122      6708  TIP3      OH2            22.8138696015       13.7241542534        7.0999353365  WZ3       2708            0.0000000000
     20123      6708  TIP3      H1             23.0264396015       12.8360542534        6.8130253365  WZ3       2708            0.0000000000
     20124      6708  TIP3      H2             22.8783796015       13.6899242534        8.0543353365  WZ3       2708            0.0000000000
     20125      6709  TIP3      OH2            26.3222396015       -0.6117857466        6.2442653365  WZ3       2709            0.0000000000
     20126      6709  TIP3      H1             25.6479196015       -1.2412257466        6.4998453365  WZ3       2709            0.0000000000
     20127      6709  TIP3      H2             26.8861596015       -1.0958957466        5.6410553365  WZ3       2709            0.0000000000
     20128      6710  TIP3      OH2            31.4649596015       -2.5043857466        6.3569753365  WZ3       2710            0.0000000000
     20129      6710  TIP3      H1             32.0687196015       -1.9568457466        5.8550753365  WZ3       2710            0.0000000000
     20130      6710  TIP3      H2             30.5951596015       -2.1853457466        6.1163853365  WZ3       2710            0.0000000000
     20131      6711  TIP3      OH2            33.1919996015       -1.3655157466        4.6900653365  WZ3       2711            0.0000000000
     20132      6711  TIP3      H1             33.8037496015       -1.8799457466        4.1634253365  WZ3       2711            0.0000000000
     20133      6711  TIP3      H2             33.5743396015       -0.4883057466        4.7135053365  WZ3       2711            0.0000000000
     20134      6712  TIP3      OH2            18.6489896015       -1.9777557466        4.0662553365  WZ3       2712            0.0000000000
     20135      6712  TIP3      H1             17.8719696015       -2.2122657466        3.5588453365  WZ3       2712            0.0000000000
     20136      6712  TIP3      H2             19.1793496015       -2.7745457466        4.0750553365  WZ3       2712            0.0000000000
     20137      6713  TIP3      OH2            17.4853296015       -2.1799457466       -0.1301346635  WZ3       2713            0.0000000000
     20138      6713  TIP3      H1             17.9243996015       -1.5688957466       -0.7217846635  WZ3       2713            0.0000000000
     20139      6713  TIP3      H2             16.8515696015       -1.6415357466        0.3438653365  WZ3       2713            0.0000000000
     20140      6714  TIP3      OH2            23.2282496015       -2.0510457466        3.8795653365  WZ3       2714            0.0000000000
     20141      6714  TIP3      H1             24.1025896015       -1.6626157466        3.8499953365  WZ3       2714            0.0000000000
     20142      6714  TIP3      H2             23.0923296015       -2.2662657466        4.8022853365  WZ3       2714            0.0000000000
     20143      6715  TIP3      OH2            28.7850896015       -2.0210657466        5.5287353365  WZ3       2715            0.0000000000
     20144      6715  TIP3      H1             28.8612496015       -1.9259057466        4.5793353365  WZ3       2715            0.0000000000
     20145      6715  TIP3      H2             28.5100096015       -2.9287757466        5.6576453365  WZ3       2715            0.0000000000
     20146      6716  TIP3      OH2            30.1383496015       -1.9952857466        1.2212353365  WZ3       2716            0.0000000000
     20147      6716  TIP3      H1             29.4354596015       -1.3803657466        1.0113753365  WZ3       2716            0.0000000000
     20148      6716  TIP3      H2             29.6934896015       -2.8326157466        1.3523253365  WZ3       2716            0.0000000000
     20149      6717  TIP3      OH2            17.3862796015       13.7682742534        0.7673753365  WZ3       2717            0.0000000000
     20150      6717  TIP3      H1             16.7012696015       13.7301642534        0.0998853365  WZ3       2717            0.0000000000
     20151      6717  TIP3      H2             17.3899996015       14.6810342534        1.0555853365  WZ3       2717            0.0000000000
     20152      6718  TIP3      OH2            19.3462396015       -0.2637957466       -1.6877246635  WZ3       2718            0.0000000000
     20153      6718  TIP3      H1             19.8375796015       -0.8935557466       -2.2151746635  WZ3       2718            0.0000000000
     20154      6718  TIP3      H2             19.9698696015        0.0321442534       -1.0246046635  WZ3       2718            0.0000000000
     20155      6719  TIP3      OH2            24.3722496015        0.0293542534        0.7693253365  WZ3       2719            0.0000000000
     20156      6719  TIP3      H1             24.5503796015       -0.6173257466        1.4521853365  WZ3       2719            0.0000000000
     20157      6719  TIP3      H2             24.3188696015        0.8631242534        1.2364353365  WZ3       2719            0.0000000000
     20158      6720  TIP3      OH2            26.2506296015       14.9777642534       -0.8350046635  WZ3       2720            0.0000000000
     20159      6720  TIP3      H1             27.1166496015       15.3445042534       -1.0131846635  WZ3       2720            0.0000000000
     20160      6720  TIP3      H2             26.0039096015       14.5385642534       -1.6489246635  WZ3       2720            0.0000000000
     20161      6721  TIP3      OH2            32.9595896015       14.5407942534        1.8441053365  WZ3       2721            0.0000000000
     20162      6721  TIP3      H1             32.7652996015       13.7930042534        1.2790653365  WZ3       2721            0.0000000000
     20163      6721  TIP3      H2             32.9205996015       15.2988042534        1.2608953365  WZ3       2721            0.0000000000
     20164      6722  TIP3      OH2            18.6067896015       -1.4635657466       13.5838753365  WZ3       2722            0.0000000000
     20165      6722  TIP3      H1             18.2406096015       -2.2293057466       14.0263453365  WZ3       2722            0.0000000000
     20166      6722  TIP3      H2             19.5196396015       -1.4345457466       13.8703853365  WZ3       2722            0.0000000000
     20167      6723  TIP3      OH2            20.5798696015       -2.1131257466       15.1195853365  WZ3       2723            0.0000000000
     20168      6723  TIP3      H1             21.4782296015       -2.3871057466       14.9349253365  WZ3       2723            0.0000000000
     20169      6723  TIP3      H2             20.1931796015       -2.8555257466       15.5838453365  WZ3       2723            0.0000000000
     20170      6724  TIP3      OH2            19.2043996015       14.6883542534       -2.2074146635  WZ3       2724            0.0000000000
     20171      6724  TIP3      H1             18.9368596015       14.9746442534       -1.3341046635  WZ3       2724            0.0000000000
     20172      6724  TIP3      H2             19.9756596015       14.1422742534       -2.0551646635  WZ3       2724            0.0000000000
     20173      6725  TIP3      OH2            29.0010996015       -2.7805957466       15.3018653365  WZ3       2725            0.0000000000
     20174      6725  TIP3      H1             29.0778196015       -3.2065257466       16.1556353365  WZ3       2725            0.0000000000
     20175      6725  TIP3      H2             29.8947596015       -2.7671257466       14.9592153365  WZ3       2725            0.0000000000
     20176      6726  TIP3      OH2            32.1772096015       13.2920342534       13.9942853365  WZ3       2726            0.0000000000
     20177      6726  TIP3      H1             31.3953996015       13.1058342534       13.4743453365  WZ3       2726            0.0000000000
     20178      6726  TIP3      H2             32.1051996015       14.2214642534       14.2115353365  WZ3       2726            0.0000000000
     20179      6727  TIP3      OH2            37.8848796015        6.0477542534        9.0368153365  WZ3       2727            0.0000000000
     20180      6727  TIP3      H1             37.9260896015        5.4220842534        9.7600553365  WZ3       2727            0.0000000000
     20181      6727  TIP3      H2             38.5876496015        6.6716142534        9.2188553365  WZ3       2727            0.0000000000
     20182      6728  TIP3      OH2            38.8081896015       10.4976442534        7.5717253365  WZ3       2728            0.0000000000
     20183      6728  TIP3      H1             38.4387096015        9.6956942534        7.2021553365  WZ3       2728            0.0000000000
     20184      6728  TIP3      H2             39.7492996015       10.3291342534        7.6180653365  WZ3       2728            0.0000000000
     20185      6729  TIP3      OH2            35.4182396015        4.1579042534        2.9646053365  WZ3       2729            0.0000000000
     20186      6729  TIP3      H1             34.9705796015        5.0037742534        2.9462553365  WZ3       2729            0.0000000000
     20187      6729  TIP3      H2             34.8573596015        3.5783242534        2.4491153365  WZ3       2729            0.0000000000
     20188      6730  TIP3      OH2            36.1288496015        6.3198642534        5.0904053365  WZ3       2730            0.0000000000
     20189      6730  TIP3      H1             36.3421996015        5.5500242534        5.6177053365  WZ3       2730            0.0000000000
     20190      6730  TIP3      H2             36.8666096015        6.4095342534        4.4871653365  WZ3       2730            0.0000000000
     20191      6731  TIP3      OH2            36.8214996015        3.7581442534        6.2120253365  WZ3       2732            0.0000000000
     20192      6731  TIP3      H1             37.4751596015        3.2083142534        6.6440353365  WZ3       2732            0.0000000000
     20193      6731  TIP3      H2             36.8454296015        3.4840442534        5.2952253365  WZ3       2732            0.0000000000
     20194      6732  TIP3      OH2            39.0115396015        0.2794042534        9.5239653365  WZ3       2733            0.0000000000
     20195      6732  TIP3      H1             38.7927096015        0.8094642534        8.7575653365  WZ3       2733            0.0000000000
     20196      6732  TIP3      H2             38.3436296015        0.5059542534       10.1711053365  WZ3       2733            0.0000000000
     20197      6733  TIP3      OH2            38.6052696015        2.1715842534        7.4761853365  WZ3       2734            0.0000000000
     20198      6733  TIP3      H1             39.2188996015        2.8043442534        7.8494253365  WZ3       2734            0.0000000000
     20199      6733  TIP3      H2             39.1173396015        1.6990842534        6.8198753365  WZ3       2734            0.0000000000
     20200      6734  TIP3      OH2            39.9881096015        9.9192742534       10.5984853365  WZ3       2735            0.0000000000
     20201      6734  TIP3      H1             39.9828696015       10.7986242534       10.2204153365  WZ3       2735            0.0000000000
     20202      6734  TIP3      H2             39.1345196015        9.8356842534       11.0234753365  WZ3       2735            0.0000000000
     20203      6735  TIP3      OH2            36.1091996015        9.5900642534        1.3804153365  WZ3       2736            0.0000000000
     20204      6735  TIP3      H1             35.8372896015        9.8191642534        0.4917053365  WZ3       2736            0.0000000000
     20205      6735  TIP3      H2             36.1547696015       10.4279442534        1.8409453365  WZ3       2736            0.0000000000
     20206      6736  TIP3      OH2            40.3556396015        7.2624242534        4.3111253365  WZ3       2737            0.0000000000
     20207      6736  TIP3      H1             40.0251596015        6.8917642534        3.4928253365  WZ3       2737            0.0000000000
     20208      6736  TIP3      H2             40.9440496015        6.5918242534        4.6579553365  WZ3       2737            0.0000000000
     20209      6737  TIP3      OH2            38.5222496015        6.6283642534       11.8903853365  WZ3       2738            0.0000000000
     20210      6737  TIP3      H1             38.5925696015        7.2790442534       12.5888853365  WZ3       2738            0.0000000000
     20211      6737  TIP3      H2             37.6314696015        6.7311142534       11.5554753365  WZ3       2738            0.0000000000
     20212      6738  TIP3      OH2            39.8418496015       12.5017542534       13.4251953365  WZ3       2739            0.0000000000
     20213      6738  TIP3      H1             39.8493796015       12.3657242534       12.4777453365  WZ3       2739            0.0000000000
     20214      6738  TIP3      H2             38.9258896015       12.3845642534       13.6771953365  WZ3       2739            0.0000000000
     20215      6739  TIP3      OH2            39.3459096015        6.3318542534        1.9004053365  WZ3       2740            0.0000000000
     20216      6739  TIP3      H1             39.0540396015        7.1000242534        1.4095353365  WZ3       2740            0.0000000000
     20217      6739  TIP3      H2             38.6714296015        5.6724742534        1.7375453365  WZ3       2740            0.0000000000
     20218      6740  TIP3      OH2            35.4389196015        8.6947742534       10.7153853365  WZ3       2741            0.0000000000
     20219      6740  TIP3      H1             34.9377596015        8.6667142534        9.9003553365  WZ3       2741            0.0000000000
     20220      6740  TIP3      H2             35.4442896015        7.7890942534       11.0251153365  WZ3       2741            0.0000000000
     20221      6741  TIP3      OH2            35.1891896015       11.4751542534        7.5994053365  WZ3       2742            0.0000000000
     20222      6741  TIP3      H1             36.1352496015       11.3308542534        7.5803553365  WZ3       2742            0.0000000000
     20223      6741  TIP3      H2             35.0768196015       12.2594342534        8.1365253365  WZ3       2742            0.0000000000
     20224      6742  TIP3      OH2            38.4333996015       14.2761142534        3.7448753365  WZ3       2743            0.0000000000
     20225      6742  TIP3      H1             38.5854396015       13.9281542534        4.6235253365  WZ3       2743            0.0000000000
     20226      6742  TIP3      H2             37.5824396015       13.9198442534        3.4895953365  WZ3       2743            0.0000000000
     20227      6743  TIP3      OH2            37.6879696015       10.0183142534       11.7586653365  WZ3       2744            0.0000000000
     20228      6743  TIP3      H1             37.9040996015        9.6568742534       12.6182453365  WZ3       2744            0.0000000000
     20229      6743  TIP3      H2             36.8324396015        9.6436942534       11.5490153365  WZ3       2744            0.0000000000
     20230      6744  TIP3      OH2            40.3977796015        3.4538142534        8.8491053365  WZ3       2746            0.0000000000
     20231      6744  TIP3      H1             39.7559896015        3.4135442534        9.5581153365  WZ3       2746            0.0000000000
     20232      6744  TIP3      H2             40.4349796015        4.3802842534        8.6114053365  WZ3       2746            0.0000000000
     20233      6745  TIP3      OH2            40.3946896015        3.6748242534        3.7611053365  WZ3       2747            0.0000000000
     20234      6745  TIP3      H1             39.5019796015        3.3344342534        3.7024853365  WZ3       2747            0.0000000000
     20235      6745  TIP3      H2             40.8453496015        3.2979142534        3.0054253365  WZ3       2747            0.0000000000
     20236      6746  TIP3      OH2            38.1478296015        3.7741642534       10.7163053365  WZ3       2748            0.0000000000
     20237      6746  TIP3      H1             38.1097696015        4.1743242534       11.5850153365  WZ3       2748            0.0000000000
     20238      6746  TIP3      H2             37.6569396015        2.9574042534       10.8065953365  WZ3       2748            0.0000000000
     20239      6747  TIP3      OH2            34.7559096015        0.8903442534        4.5667753365  WZ3       2749            0.0000000000
     20240      6747  TIP3      H1             35.3866796015        0.8615542534        5.2861653365  WZ3       2749            0.0000000000
     20241      6747  TIP3      H2             35.2053396015        0.4652142534        3.8363653365  WZ3       2749            0.0000000000
     20242      6748  TIP3      OH2            36.0301196015        1.6365442534       -0.0091846635  WZ3       2750            0.0000000000
     20243      6748  TIP3      H1             36.5042896015        2.2275342534       -0.5940946635  WZ3       2750            0.0000000000
     20244      6748  TIP3      H2             35.3127596015        2.1668342534        0.3378253365  WZ3       2750            0.0000000000
     20245      6749  TIP3      OH2            37.8045596015        2.7312042534        3.6742753365  WZ3       2751            0.0000000000
     20246      6749  TIP3      H1             36.9153596015        2.8307542534        3.3342353365  WZ3       2751            0.0000000000
     20247      6749  TIP3      H2             38.1010496015        1.8895042534        3.3280653365  WZ3       2751            0.0000000000
     20248      6750  TIP3      OH2            40.1317596015        3.9256842534       -1.1026546635  WZ3       2752            0.0000000000
     20249      6750  TIP3      H1             39.5892696015        3.5460642534       -1.7938946635  WZ3       2752            0.0000000000
     20250      6750  TIP3      H2             40.9652496015        4.1201542534       -1.5312446635  WZ3       2752            0.0000000000
     20251      6751  TIP3      OH2            38.2668996015        8.4828742534       13.9965053365  WZ3       2753            0.0000000000
     20252      6751  TIP3      H1             38.9991396015        8.7374642534       14.5579553365  WZ3       2753            0.0000000000
     20253      6751  TIP3      H2             37.4867696015        8.6874142534       14.5120453365  WZ3       2753            0.0000000000
     20254      6752  TIP3      OH2            38.5918696015        7.7862542534        6.6029453365  WZ3       2755            0.0000000000
     20255      6752  TIP3      H1             39.3365896015        7.7838242534        6.0015953365  WZ3       2755            0.0000000000
     20256      6752  TIP3      H2             38.6695296015        6.9626342534        7.0844553365  WZ3       2755            0.0000000000
     20257      6753  TIP3      OH2            35.5998396015        6.2469442534       11.9177953365  WZ3       2756            0.0000000000
     20258      6753  TIP3      H1             35.8226996015        5.8289042534       12.7495453365  WZ3       2756            0.0000000000
     20259      6753  TIP3      H2             34.9978496015        5.6344442534       11.4950753365  WZ3       2756            0.0000000000
     20260      6754  TIP3      OH2            36.7215796015        6.1664842534       -1.4056646635  WZ3       2757            0.0000000000
     20261      6754  TIP3      H1             37.3375696015        6.7932042534       -1.0261846635  WZ3       2757            0.0000000000
     20262      6754  TIP3      H2             35.8598396015        6.4824642534       -1.1340146635  WZ3       2757            0.0000000000
     20263      6755  TIP3      OH2            37.2337896015        1.0002142534       11.4759353365  WZ3       2758            0.0000000000
     20264      6755  TIP3      H1             36.3410196015        1.3387542534       11.4083353365  WZ3       2758            0.0000000000
     20265      6755  TIP3      H2             37.1350696015        0.1448242534       11.8940153365  WZ3       2758            0.0000000000
     20266      6756  TIP3      OH2            36.8849896015       12.8046542534        9.9108753365  WZ3       2759            0.0000000000
     20267      6756  TIP3      H1             37.1020196015       11.8728942534        9.8798453365  WZ3       2759            0.0000000000
     20268      6756  TIP3      H2             37.1313396015       13.0791542534       10.7941553365  WZ3       2759            0.0000000000
     20269      6757  TIP3      OH2            38.1366196015        8.0788642534        0.0868953365  WZ3       2760            0.0000000000
     20270      6757  TIP3      H1             37.4505496015        8.4311142534        0.6538653365  WZ3       2760            0.0000000000
     20271      6757  TIP3      H2             38.6594096015        8.8418242534       -0.1596746635  WZ3       2760            0.0000000000
     20272      6758  TIP3      OH2            38.7525096015       10.6927542534       -1.0163246635  WZ3       2762            0.0000000000
     20273      6758  TIP3      H1             39.3446596015       11.3922342534       -0.7400846635  WZ3       2762            0.0000000000
     20274      6758  TIP3      H2             39.2118096015       10.2597042534       -1.7358646635  WZ3       2762            0.0000000000
     20275      6759  TIP3      OH2            37.0684296015        3.3570542534       -1.9003846635  WZ3       2763            0.0000000000
     20276      6759  TIP3      H1             37.0236896015        4.2963642534       -1.7216846635  WZ3       2763            0.0000000000
     20277      6759  TIP3      H2             36.1807496015        3.1215442534       -2.1701746635  WZ3       2763            0.0000000000
     20278      6760  TIP3      OH2            37.8766296015       -1.8612857466        6.7727153365  WZ3       2764            0.0000000000
     20279      6760  TIP3      H1             37.6476096015       -1.8020357466        5.8452153365  WZ3       2764            0.0000000000
     20280      6760  TIP3      H2             37.4339696015       -2.6527357466        7.0791253365  WZ3       2764            0.0000000000
     20281      6761  TIP3      OH2            36.8069596015       12.0794242534        2.9332953365  WZ3       2765            0.0000000000
     20282      6761  TIP3      H1             35.9748196015       12.5516942534        2.9604353365  WZ3       2765            0.0000000000
     20283      6761  TIP3      H2             37.3527896015       12.5891842534        2.3346053365  WZ3       2765            0.0000000000
     20284      6762  TIP3      OH2            36.0953296015       14.6917942534       14.2630953365  WZ3       2766            0.0000000000
     20285      6762  TIP3      H1             36.6355496015       14.4751942534       15.0230153365  WZ3       2766            0.0000000000
     20286      6762  TIP3      H2             35.6141296015       13.8863942534       14.0733453365  WZ3       2766            0.0000000000
     20287      6763  TIP3      OH2            36.0022796015        8.5022042534       15.2175253365  WZ3       2767            0.0000000000
     20288      6763  TIP3      H1             36.1463296015        7.6002742534       14.9311953365  WZ3       2767            0.0000000000
     20289      6763  TIP3      H2             35.2300196015        8.7884142534       14.7297553365  WZ3       2767            0.0000000000
     20290      6764  TIP3      OH2            40.3436496015        8.8457742534       -2.6500146635  WZ3       2768            0.0000000000
     20291      6764  TIP3      H1             40.4080596015        8.0517342534       -2.1193746635  WZ3       2768            0.0000000000
     20292      6764  TIP3      H2             40.9965696015        8.7270542534       -3.3398146635  WZ3       2768            0.0000000000
     20293      6765  TIP3      OH2            36.8349296015        5.7025342534       14.6374553365  WZ3       2769            0.0000000000
     20294      6765  TIP3      H1             37.2430496015        4.8451942534       14.5165153365  WZ3       2769            0.0000000000
     20295      6765  TIP3      H2             36.5746896015        5.7166642534       15.5584853365  WZ3       2769            0.0000000000
     20296      6766  TIP3      OH2            39.5999596015        3.2645342534       15.0056153365  WZ3       2770            0.0000000000
     20297      6766  TIP3      H1             38.8328596015        2.7320142534       14.7953753365  WZ3       2770            0.0000000000
     20298      6766  TIP3      H2             40.2788596015        2.9545742534       14.4062453365  WZ3       2770            0.0000000000
     20299      6767  TIP3      OH2            37.7802396015        1.1849142534       14.7100853365  WZ3       2771            0.0000000000
     20300      6767  TIP3      H1             37.9919796015        0.4785242534       14.0998353365  WZ3       2771            0.0000000000
     20301      6767  TIP3      H2             37.6689896015        0.7475142534       15.5542053365  WZ3       2771            0.0000000000
     20302      6768  TIP3      OH2            36.0297296015       10.3883242534       -1.5977246635  WZ3       2772            0.0000000000
     20303      6768  TIP3      H1             36.9436496015       10.4672142534       -1.3243346635  WZ3       2772            0.0000000000
     20304      6768  TIP3      H2             36.0370396015        9.7012842534       -2.2641646635  WZ3       2772            0.0000000000
     20305      6769  TIP3      OH2            34.6787896015       15.7811742534        3.4796653365  WZ3       2773            0.0000000000
     20306      6769  TIP3      H1             34.0314996015       15.3193442534        2.9467853365  WZ3       2773            0.0000000000
     20307      6769  TIP3      H2             35.0332496015       15.1095042534        4.0622853365  WZ3       2773            0.0000000000
     20308      6770  TIP3      OH2            35.5487096015       13.8618742534        5.2842853365  WZ3       2774            0.0000000000
     20309      6770  TIP3      H1             35.2143896015       12.9816042534        5.4563053365  WZ3       2774            0.0000000000
     20310      6770  TIP3      H2             35.7709496015       14.2073742534        6.1488453365  WZ3       2774            0.0000000000
     20311      6771  TIP3      OH2            35.6286596015        6.9374142534        7.7357753365  WZ3       2775            0.0000000000
     20312      6771  TIP3      H1             35.8129496015        6.8555842534        6.8000653365  WZ3       2775            0.0000000000
     20313      6771  TIP3      H2             36.4779496015        6.8131142534        8.1594153365  WZ3       2775            0.0000000000
     20314      6772  TIP3      OH2            35.2261396015        2.2079142534       13.8766553365  WZ3       2776            0.0000000000
     20315      6772  TIP3      H1             36.1456296015        2.0857442534       14.1129653365  WZ3       2776            0.0000000000
     20316      6772  TIP3      H2             34.7765896015        1.4578842534       14.2660053365  WZ3       2776            0.0000000000
     20317      6773  TIP3      OH2            36.4473896015        0.5200742534        6.7679453365  WZ3       2777            0.0000000000
     20318      6773  TIP3      H1             36.8925496015       -0.2716757466        7.0699153365  WZ3       2777            0.0000000000
     20319      6773  TIP3      H2             36.9136896015        1.2365942534        7.1985053365  WZ3       2777            0.0000000000
     20320      6774  TIP3      OH2            34.7514196015        3.5193742534        7.8369653365  WZ3       2778            0.0000000000
     20321      6774  TIP3      H1             35.2433996015        3.2984242534        7.0461653365  WZ3       2778            0.0000000000
     20322      6774  TIP3      H2             35.1135096015        4.3597142534        8.1179153365  WZ3       2778            0.0000000000
     20323      6775  TIP3      OH2            35.0650696015       -0.2227157466        1.8912053365  WZ3       2779            0.0000000000
     20324      6775  TIP3      H1             34.1399096015       -0.0140557466        1.7617553365  WZ3       2779            0.0000000000
     20325      6775  TIP3      H2             35.5190596015        0.2613642534        1.2014353365  WZ3       2779            0.0000000000
     20326      6776  TIP3      OH2            35.0286096015       -1.4848157466       10.2354553365  WZ3       2780            0.0000000000
     20327      6776  TIP3      H1             34.3636596015       -1.7307857466       10.8785453365  WZ3       2780            0.0000000000
     20328      6776  TIP3      H2             34.5857396015       -0.8627757466        9.6582553365  WZ3       2780            0.0000000000
     20329      6777  TIP3      OH2            37.2205396015       11.6905942534       14.3800353365  WZ3       2781            0.0000000000
     20330      6777  TIP3      H1             36.3997896015       11.8652442534       13.9195053365  WZ3       2781            0.0000000000
     20331      6777  TIP3      H2             36.9683196015       11.6170642534       15.3004753365  WZ3       2781            0.0000000000
     20332      6778  TIP3      OH2            40.1748296015       12.6647142534       10.6384353365  WZ3       2782            0.0000000000
     20333      6778  TIP3      H1             39.7499396015       13.4745642534       10.3558953365  WZ3       2782            0.0000000000
     20334      6778  TIP3      H2             41.0791096015       12.7501242534       10.3364153365  WZ3       2782            0.0000000000
     20335      6779  TIP3      OH2            37.5764996015       15.9211042534       10.6859653365  WZ3       2783            0.0000000000
     20336      6779  TIP3      H1             36.8561396015       16.3612042534       10.2347353365  WZ3       2783            0.0000000000
     20337      6779  TIP3      H2             37.2108996015       15.6705742534       11.5343653365  WZ3       2783            0.0000000000
     20338      6780  TIP3      OH2            40.0437596015       15.5214942534        9.7156853365  WZ3       2784            0.0000000000
     20339      6780  TIP3      H1             39.1789796015       15.5933442534       10.1196953365  WZ3       2784            0.0000000000
     20340      6780  TIP3      H2             39.9886596015       16.0682242534        8.9319353365  WZ3       2784            0.0000000000
     20341      6781  TIP3      OH2            36.9913096015       14.5443542534        7.5961453365  WZ3       2785            0.0000000000
     20342      6781  TIP3      H1             36.9729096015       14.1188642534        8.4533753365  WZ3       2785            0.0000000000
     20343      6781  TIP3      H2             37.7960996015       14.2258542534        7.1873653365  WZ3       2785            0.0000000000
     20344      6782  TIP3      OH2            39.1326196015       13.2542242534        6.2511353365  WZ3       2786            0.0000000000
     20345      6782  TIP3      H1             38.9136896015       12.3379642534        6.4207353365  WZ3       2786            0.0000000000
     20346      6782  TIP3      H2             39.9568396015       13.3942642534        6.7172753365  WZ3       2786            0.0000000000
     20347      6783  TIP3      OH2            37.5049896015       -1.9777557466        4.0662553365  WZ3       2787            0.0000000000
     20348      6783  TIP3      H1             36.7279696015       -2.2122657466        3.5588453365  WZ3       2787            0.0000000000
     20349      6783  TIP3      H2             38.0353496015       -2.7745457466        4.0750553365  WZ3       2787            0.0000000000
     20350      6784  TIP3      OH2            36.3413296015       -2.1799457466       -0.1301346635  WZ3       2788            0.0000000000
     20351      6784  TIP3      H1             36.7803996015       -1.5688957466       -0.7217846635  WZ3       2788            0.0000000000
     20352      6784  TIP3      H2             35.7075696015       -1.6415357466        0.3438653365  WZ3       2788            0.0000000000
     20353      6785  TIP3      OH2            36.2422796015       13.7682742534        0.7673753365  WZ3       2789            0.0000000000
     20354      6785  TIP3      H1             35.5572696015       13.7301642534        0.0998853365  WZ3       2789            0.0000000000
     20355      6785  TIP3      H2             36.2459996015       14.6810342534        1.0555853365  WZ3       2789            0.0000000000
     20356      6786  TIP3      OH2            38.2022396015       -0.2637957466       -1.6877246635  WZ3       2790            0.0000000000
     20357      6786  TIP3      H1             38.6935796015       -0.8935557466       -2.2151746635  WZ3       2790            0.0000000000
     20358      6786  TIP3      H2             38.8258696015        0.0321442534       -1.0246046635  WZ3       2790            0.0000000000
     20359      6787  TIP3      OH2            37.4627896015       -1.4635657466       13.5838753365  WZ3       2791            0.0000000000
     20360      6787  TIP3      H1             37.0966096015       -2.2293057466       14.0263453365  WZ3       2791            0.0000000000
     20361      6787  TIP3      H2             38.3756396015       -1.4345457466       13.8703853365  WZ3       2791            0.0000000000
     20362      6788  TIP3      OH2            38.0603996015       14.6883542534       -2.2074146635  WZ3       2793            0.0000000000
     20363      6788  TIP3      H1             37.7928596015       14.9746442534       -1.3341046635  WZ3       2793            0.0000000000
     20364      6788  TIP3      H2             38.8316596015       14.1422742534       -2.0551646635  WZ3       2793            0.0000000000
     20365      6789  TIP3      OH2           -28.8407503985       26.0344742534        4.0250053365  WZ3       2794            0.0000000000
     20366      6789  TIP3      H1            -28.7516403985       26.9782942534        3.8927153365  WZ3       2794            0.0000000000
     20367      6789  TIP3      H2            -29.4789903985       25.7591142534        3.3669453365  WZ3       2794            0.0000000000
     20368      6790  TIP3      OH2           -29.9076203985       25.2895442534        7.4438253365  WZ3       2795            0.0000000000
     20369      6790  TIP3      H1            -29.9458703985       24.6431742534        8.1487853365  WZ3       2795            0.0000000000
     20370      6790  TIP3      H2            -30.2299703985       24.8229842534        6.6726953365  WZ3       2795            0.0000000000
     20371      6791  TIP3      OH2           -26.2016003985       28.2285842534        5.7453353365  WZ3       2797            0.0000000000
     20372      6791  TIP3      H1            -26.6423303985       27.5081842534        6.1958953365  WZ3       2797            0.0000000000
     20373      6791  TIP3      H2            -26.2146303985       28.9493042534        6.3751053365  WZ3       2797            0.0000000000
     20374      6792  TIP3      OH2           -22.8552003985       19.3232142534        8.7105453365  WZ3       2803            0.0000000000
     20375      6792  TIP3      H1            -22.8059803985       19.9333342534        9.4464553365  WZ3       2803            0.0000000000
     20376      6792  TIP3      H2            -22.4296903985       19.7843042534        7.9876553365  WZ3       2803            0.0000000000
     20377      6793  TIP3      OH2           -28.3774803985       22.1159242534        8.1774053365  WZ3       2804            0.0000000000
     20378      6793  TIP3      H1            -28.2348903985       21.1696242534        8.1975653365  WZ3       2804            0.0000000000
     20379      6793  TIP3      H2            -28.4835803985       22.3229042534        7.2488953365  WZ3       2804            0.0000000000
     20380      6794  TIP3      OH2           -27.5003803985       20.3481242534        3.8507153365  WZ3       2806            0.0000000000
     20381      6794  TIP3      H1            -26.8539503985       20.0194442534        4.4754753365  WZ3       2806            0.0000000000
     20382      6794  TIP3      H2            -26.9904403985       20.8660242534        3.2278553365  WZ3       2806            0.0000000000
     20383      6795  TIP3      OH2           -22.4637403985       20.8011342534       10.9465253365  WZ3       2809            0.0000000000
     20384      6795  TIP3      H1            -23.1522803985       21.4592042534       10.8511853365  WZ3       2809            0.0000000000
     20385      6795  TIP3      H2            -22.4482803985       20.6039242534       11.8830653365  WZ3       2809            0.0000000000
     20386      6796  TIP3      OH2           -25.7365403985       19.6390542534        5.8313053365  WZ3       2813            0.0000000000
     20387      6796  TIP3      H1            -25.9517403985       18.8733942534        6.3639053365  WZ3       2813            0.0000000000
     20388      6796  TIP3      H2            -25.0808003985       20.1115142534        6.3441553365  WZ3       2813            0.0000000000
     20389      6797  TIP3      OH2           -25.6898303985       30.0676542534        8.0932653365  WZ3       2817            0.0000000000
     20390      6797  TIP3      H1            -26.6314603985       30.1260442534        8.2549553365  WZ3       2817            0.0000000000
     20391      6797  TIP3      H2            -25.4132203985       30.9737042534        7.9562353365  WZ3       2817            0.0000000000
     20392      6798  TIP3      OH2           -25.3891303985       18.3541842534        9.5106553365  WZ3       2818            0.0000000000
     20393      6798  TIP3      H1            -26.1252103985       18.9648942534        9.4727853365  WZ3       2818            0.0000000000
     20394      6798  TIP3      H2            -24.7057303985       18.7690842534        8.9842953365  WZ3       2818            0.0000000000
     20395      6799  TIP3      OH2           -32.3859903985       16.4409142534        6.9764553365  WZ3       2819            0.0000000000
     20396      6799  TIP3      H1            -32.5035703985       15.4925142534        6.9222853365  WZ3       2819            0.0000000000
     20397      6799  TIP3      H2            -33.2409803985       16.7735242534        7.2495653365  WZ3       2819            0.0000000000
     20398      6800  TIP3      OH2           -27.4377103985       31.8490042534        4.7184253365  WZ3       2820            0.0000000000
     20399      6800  TIP3      H1            -27.0124803985       31.1417942534        4.2333853365  WZ3       2820            0.0000000000
     20400      6800  TIP3      H2            -27.1207103985       32.6502742534        4.3016453365  WZ3       2820            0.0000000000
     20401      6801  TIP3      OH2           -26.2780603985       29.7498542534        3.2270853365  WZ3       2821            0.0000000000
     20402      6801  TIP3      H1            -26.5355803985       29.0598642534        2.6156753365  WZ3       2821            0.0000000000
     20403      6801  TIP3      H2            -26.2069803985       29.3069742534        4.0726753365  WZ3       2821            0.0000000000
     20404      6802  TIP3      OH2           -24.5920403985       28.3165242534       11.7044353365  WZ3       2822            0.0000000000
     20405      6802  TIP3      H1            -24.4524103985       27.7247742534       10.9651353365  WZ3       2822            0.0000000000
     20406      6802  TIP3      H2            -24.4247603985       29.1891142534       11.3483153365  WZ3       2822            0.0000000000
     20407      6803  TIP3      OH2           -30.1195003985       25.2784742534        1.4770353365  WZ3       2823            0.0000000000
     20408      6803  TIP3      H1            -30.8309503985       25.8134442534        1.1250853365  WZ3       2823            0.0000000000
     20409      6803  TIP3      H2            -29.4285403985       25.3336842534        0.8169253365  WZ3       2823            0.0000000000
     20410      6804  TIP3      OH2           -30.0655803985       23.7359042534       -1.4844646635  WZ3       2824            0.0000000000
     20411      6804  TIP3      H1            -29.3645903985       23.7585942534       -0.8330646635  WZ3       2824            0.0000000000
     20412      6804  TIP3      H2            -29.7632903985       23.1078742534       -2.1405346635  WZ3       2824            0.0000000000
     20413      6805  TIP3      OH2           -22.7501103985       24.6563242534        9.7704753365  WZ3       2825            0.0000000000
     20414      6805  TIP3      H1            -23.4027003985       25.3508842534        9.8595653365  WZ3       2825            0.0000000000
     20415      6805  TIP3      H2            -22.2850803985       24.8664142534        8.9606353365  WZ3       2825            0.0000000000
     20416      6806  TIP3      OH2           -26.7137303985       25.4878042534        2.4286253365  WZ3       2826            0.0000000000
     20417      6806  TIP3      H1            -27.4456303985       25.7161742534        3.0016853365  WZ3       2826            0.0000000000
     20418      6806  TIP3      H2            -26.2665103985       24.7740742534        2.8833753365  WZ3       2826            0.0000000000
     20419      6807  TIP3      OH2           -26.8163803985       23.6620642534       11.4963253365  WZ3       2827            0.0000000000
     20420      6807  TIP3      H1            -26.7364703985       24.4255042534       12.0681753365  WZ3       2827            0.0000000000
     20421      6807  TIP3      H2            -27.4176103985       23.9413042534       10.8058353365  WZ3       2827            0.0000000000
     20422      6808  TIP3      OH2           -27.8427803985       24.6500942534        0.1137453365  WZ3       2833            0.0000000000
     20423      6808  TIP3      H1            -27.2632303985       24.8001242534        0.8606353365  WZ3       2833            0.0000000000
     20424      6808  TIP3      H2            -27.4287803985       25.1208342534       -0.6096146635  WZ3       2833            0.0000000000
     20425      6809  TIP3      OH2           -24.1439403985       16.4001342534       -0.0732846635  WZ3       2837            0.0000000000
     20426      6809  TIP3      H1            -25.0438703985       16.5390342534        0.2217753365  WZ3       2837            0.0000000000
     20427      6809  TIP3      H2            -23.8921003985       17.2315942534       -0.4751146635  WZ3       2837            0.0000000000
     20428      6810  TIP3      OH2           -22.9548003985       30.7663742534       -1.6968946635  WZ3       2839            0.0000000000
     20429      6810  TIP3      H1            -22.8814503985       31.7053942534       -1.5263646635  WZ3       2839            0.0000000000
     20430      6810  TIP3      H2            -22.0492903985       30.4612342534       -1.7531646635  WZ3       2839            0.0000000000
     20431      6811  TIP3      OH2           -22.0369603985       30.9971242534       13.2817753365  WZ3       2842            0.0000000000
     20432      6811  TIP3      H1            -22.0862803985       30.0419342534       13.2445353365  WZ3       2842            0.0000000000
     20433      6811  TIP3      H2            -22.8637303985       31.2646542534       13.6831553365  WZ3       2842            0.0000000000
     20434      6812  TIP3      OH2           -27.5423803985       33.4974342534       -1.0337846635  WZ3       2846            0.0000000000
     20435      6812  TIP3      H1            -27.1675403985       32.7530442534       -1.5045246635  WZ3       2846            0.0000000000
     20436      6812  TIP3      H2            -27.5380103985       33.2274942534       -0.1154546635  WZ3       2846            0.0000000000
     20437      6813  TIP3      OH2           -24.8849803985       22.4903742534       13.7619953365  WZ3       2848            0.0000000000
     20438      6813  TIP3      H1            -25.2923003985       22.9709342534       13.0413253365  WZ3       2848            0.0000000000
     20439      6813  TIP3      H2            -24.8444103985       21.5849742534       13.4540753365  WZ3       2848            0.0000000000
     20440      6814  TIP3      OH2           -30.4544503985       17.0664042534       11.1287853365  WZ3       2851            0.0000000000
     20441      6814  TIP3      H1            -30.0341403985       16.6511142534       11.8818453365  WZ3       2851            0.0000000000
     20442      6814  TIP3      H2            -31.3874903985       16.8877342534       11.2459853365  WZ3       2851            0.0000000000
     20443      6815  TIP3      OH2           -27.1279603985       20.8219242534       11.9822353365  WZ3       2852            0.0000000000
     20444      6815  TIP3      H1            -27.6420103985       20.6961442534       12.7798353365  WZ3       2852            0.0000000000
     20445      6815  TIP3      H2            -27.2834903985       21.7342342534       11.7378553365  WZ3       2852            0.0000000000
     20446      6816  TIP3      OH2           -26.3654703985       25.6829242534       -2.2564646635  WZ3       2853            0.0000000000
     20447      6816  TIP3      H1            -26.3233903985       25.4603142534       -3.1864646635  WZ3       2853            0.0000000000
     20448      6816  TIP3      H2            -25.5162603985       26.0816342534       -2.0664746635  WZ3       2853            0.0000000000
     20449      6817  TIP3      OH2           -30.7927203985       19.5587442534       -1.5861346635  WZ3       2854            0.0000000000
     20450      6817  TIP3      H1            -31.0462403985       19.5779042534       -0.6633246635  WZ3       2854            0.0000000000
     20451      6817  TIP3      H2            -31.0495103985       18.6872842534       -1.8875146635  WZ3       2854            0.0000000000
     20452      6818  TIP3      OH2           -29.4937603985       22.9468542534        2.5781853365  WZ3       2857            0.0000000000
     20453      6818  TIP3      H1            -29.9027303985       23.7617142534        2.2866653365  WZ3       2857            0.0000000000
     20454      6818  TIP3      H2            -28.7731403985       22.8068642534        1.9638953365  WZ3       2857            0.0000000000
     20455      6819  TIP3      OH2           -30.3916003985       23.1224942534       14.0662553365  WZ3       2858            0.0000000000
     20456      6819  TIP3      H1            -30.9542203985       22.4176542534       14.3870353365  WZ3       2858            0.0000000000
     20457      6819  TIP3      H2            -29.5652603985       23.0016842534       14.5340153365  WZ3       2858            0.0000000000
     20458      6820  TIP3      OH2           -28.4889903985       22.3928942534        5.3921553365  WZ3       2859            0.0000000000
     20459      6820  TIP3      H1            -28.6845403985       22.9985742534        4.6772153365  WZ3       2859            0.0000000000
     20460      6820  TIP3      H2            -28.3077303985       21.5594142534        4.9577853365  WZ3       2859            0.0000000000
     20461      6821  TIP3      OH2           -29.2250703985       24.0310242534       10.0633953365  WZ3       2864            0.0000000000
     20462      6821  TIP3      H1            -28.9015903985       23.3999942534        9.4204453365  WZ3       2864            0.0000000000
     20463      6821  TIP3      H2            -29.6651403985       23.4962442534       10.7241353365  WZ3       2864            0.0000000000
     20464      6822  TIP3      OH2           -28.0425903985       19.1932042534        8.1116953365  WZ3       2868            0.0000000000
     20465      6822  TIP3      H1            -28.7194303985       19.3245142534        8.7756653365  WZ3       2868            0.0000000000
     20466      6822  TIP3      H2            -28.5281003985       19.0381542534        7.3014653365  WZ3       2868            0.0000000000
     20467      6823  TIP3      OH2           -24.7550803985       34.8647442534       14.3884553365  WZ3       2870            0.0000000000
     20468      6823  TIP3      H1            -24.5552103985       35.2889342534       13.5539853365  WZ3       2870            0.0000000000
     20469      6823  TIP3      H2            -24.0997103985       35.2085642534       14.9954953365  WZ3       2870            0.0000000000
     20470      6824  TIP3      OH2           -31.1278103985       22.7458742534        6.7344753365  WZ3       2872            0.0000000000
     20471      6824  TIP3      H1            -30.5634703985       22.1995342534        6.1874353365  WZ3       2872            0.0000000000
     20472      6824  TIP3      H2            -31.2754703985       22.2240642534        7.5232353365  WZ3       2872            0.0000000000
     20473      6825  TIP3      OH2           -24.8070703985       26.4800742534        9.6199153365  WZ3       2876            0.0000000000
     20474      6825  TIP3      H1            -24.1651903985       26.9367042534        9.0761353365  WZ3       2876            0.0000000000
     20475      6825  TIP3      H2            -25.6373803985       26.5933142534        9.1573253365  WZ3       2876            0.0000000000
     20476      6826  TIP3      OH2           -28.0592803985       20.1612442534       -0.9675846635  WZ3       2877            0.0000000000
     20477      6826  TIP3      H1            -28.9978603985       20.2728042534       -1.1187046635  WZ3       2877            0.0000000000
     20478      6826  TIP3      H2            -27.7620703985       21.0179342534       -0.6610146635  WZ3       2877            0.0000000000
     20479      6827  TIP3      OH2           -27.3409303985       22.0285142534        0.6931553365  WZ3       2879            0.0000000000
     20480      6827  TIP3      H1            -26.4490303985       21.8910142534        1.0122753365  WZ3       2879            0.0000000000
     20481      6827  TIP3      H2            -27.2845703985       22.8191242534        0.1565053365  WZ3       2879            0.0000000000
     20482      6828  TIP3      OH2           -22.4560603985       22.2379242534        0.3878253365  WZ3       2885            0.0000000000
     20483      6828  TIP3      H1            -23.0104303985       21.8417242534       -0.2844246635  WZ3       2885            0.0000000000
     20484      6828  TIP3      H2            -22.3557003985       23.1484442534        0.1101553365  WZ3       2885            0.0000000000
     20485      6829  TIP3      OH2           -22.4928603985       28.0380942534       13.2249753365  WZ3       2886            0.0000000000
     20486      6829  TIP3      H1            -23.3440103985       28.2764742534       12.8576153365  WZ3       2886            0.0000000000
     20487      6829  TIP3      H2            -21.9025203985       28.0214142534       12.4716853365  WZ3       2886            0.0000000000
     20488      6830  TIP3      OH2           -24.1608903985       31.0239642534        0.8530353365  WZ3       2887            0.0000000000
     20489      6830  TIP3      H1            -24.5337803985       30.1983442534        1.1620953365  WZ3       2887            0.0000000000
     20490      6830  TIP3      H2            -23.8835403985       30.8409042534       -0.0446246635  WZ3       2887            0.0000000000
     20491      6831  TIP3      OH2           -27.0005003985       25.8319142534        7.8742253365  WZ3       2888            0.0000000000
     20492      6831  TIP3      H1            -27.9288103985       25.6001042534        7.8471553365  WZ3       2888            0.0000000000
     20493      6831  TIP3      H2            -26.5493903985       25.0548942534        7.5441053365  WZ3       2888            0.0000000000
     20494      6832  TIP3      OH2           -28.9712203985       28.0714942534        9.5991953365  WZ3       2894            0.0000000000
     20495      6832  TIP3      H1            -29.3970903985       27.8436642534       10.4255953365  WZ3       2894            0.0000000000
     20496      6832  TIP3      H2            -28.3906403985       27.3326742534        9.4167253365  WZ3       2894            0.0000000000
     20497      6833  TIP3      OH2           -26.7683303985       29.0005442534       -1.3269046635  WZ3       2895            0.0000000000
     20498      6833  TIP3      H1            -26.4150203985       28.6205242534       -0.5225546635  WZ3       2895            0.0000000000
     20499      6833  TIP3      H2            -27.7169803985       28.9070242534       -1.2399746635  WZ3       2895            0.0000000000
     20500      6834  TIP3      OH2           -26.3128003985       32.6234442534       12.0686753365  WZ3       2896            0.0000000000
     20501      6834  TIP3      H1            -26.9144803985       32.0677342534       11.5733053365  WZ3       2896            0.0000000000
     20502      6834  TIP3      H2            -26.0314303985       33.2904242534       11.4424153365  WZ3       2896            0.0000000000
     20503      6835  TIP3      OH2           -22.2648903985       33.4797942534       -1.1258846635  WZ3       2897            0.0000000000
     20504      6835  TIP3      H1            -21.5211003985       34.0658442534       -1.2657246635  WZ3       2897            0.0000000000
     20505      6835  TIP3      H2            -22.9590803985       34.0483742534       -0.7926446635  WZ3       2897            0.0000000000
     20506      6836  TIP3      OH2           -25.9024003985       27.6727442534        0.8998853365  WZ3       2899            0.0000000000
     20507      6836  TIP3      H1            -26.1796403985       26.9446742534        1.4559953365  WZ3       2899            0.0000000000
     20508      6836  TIP3      H2            -24.9751003985       27.7919442534        1.1051453365  WZ3       2899            0.0000000000
     20509      6837  TIP3      OH2           -29.4558703985       19.5972442534       10.3657953365  WZ3       2904            0.0000000000
     20510      6837  TIP3      H1            -28.7570803985       19.6711142534       11.0157653365  WZ3       2904            0.0000000000
     20511      6837  TIP3      H2            -29.8367303985       18.7327442534       10.5200853365  WZ3       2904            0.0000000000
     20512      6838  TIP3      OH2           -28.6713803985       19.2494142534        1.4630253365  WZ3       2905            0.0000000000
     20513      6838  TIP3      H1            -28.4515503985       19.7209542534        0.6595653365  WZ3       2905            0.0000000000
     20514      6838  TIP3      H2            -28.1129803985       19.6436742534        2.1330853365  WZ3       2905            0.0000000000
     20515      6839  TIP3      OH2           -31.4713903985       20.9772942534        2.2978653365  WZ3       2907            0.0000000000
     20516      6839  TIP3      H1            -30.6591303985       21.4816142534        2.3440353365  WZ3       2907            0.0000000000
     20517      6839  TIP3      H2            -31.7160903985       20.8322642534        3.2118253365  WZ3       2907            0.0000000000
     20518      6840  TIP3      OH2           -30.9357503985       21.9635642534       11.4825253365  WZ3       2908            0.0000000000
     20519      6840  TIP3      H1            -30.8167203985       22.5371042534       12.2395653365  WZ3       2908            0.0000000000
     20520      6840  TIP3      H2            -30.2802903985       21.2755042534       11.5973053365  WZ3       2908            0.0000000000
     20521      6841  TIP3      OH2           -30.5877203985       18.0585942534        3.2359753365  WZ3       2909            0.0000000000
     20522      6841  TIP3      H1            -30.9343703985       18.6756542534        3.8804053365  WZ3       2909            0.0000000000
     20523      6841  TIP3      H2            -29.9290303985       18.5591642534        2.7545253365  WZ3       2909            0.0000000000
     20524      6842  TIP3      OH2           -24.7311703985       19.8705942534       12.3174953365  WZ3       2912            0.0000000000
     20525      6842  TIP3      H1            -25.6475903985       20.1327642534       12.2298653365  WZ3       2912            0.0000000000
     20526      6842  TIP3      H2            -24.3956703985       19.8674942534       11.4210253365  WZ3       2912            0.0000000000
     20527      6843  TIP3      OH2           -26.1290703985       23.6206942534        6.4132253365  WZ3       2913            0.0000000000
     20528      6843  TIP3      H1            -26.9266303985       23.2057142534        6.0847253365  WZ3       2913            0.0000000000
     20529      6843  TIP3      H2            -25.6839603985       22.9300642534        6.9042753365  WZ3       2913            0.0000000000
     20530      6844  TIP3      OH2           -25.0426103985       32.8769442534        8.0355753365  WZ3       2916            0.0000000000
     20531      6844  TIP3      H1            -25.1981803985       33.5553842534        7.3785053365  WZ3       2916            0.0000000000
     20532      6844  TIP3      H2            -24.1099703985       32.9488742534        8.2386353365  WZ3       2916            0.0000000000
     20533      6845  TIP3      OH2           -28.1544603985       30.8473442534       14.6126653365  WZ3       2922            0.0000000000
     20534      6845  TIP3      H1            -28.5055103985       29.9906442534       14.8557053365  WZ3       2922            0.0000000000
     20535      6845  TIP3      H2            -27.4281403985       30.9900142534       15.2195653365  WZ3       2922            0.0000000000
     20536      6846  TIP3      OH2           -26.0350803985       31.7922842534       -2.5075046635  WZ3       2923            0.0000000000
     20537      6846  TIP3      H1            -25.7520403985       30.9978042534       -2.0548146635  WZ3       2923            0.0000000000
     20538      6846  TIP3      H2            -25.2952903985       32.0253842534       -3.0683946635  WZ3       2923            0.0000000000
     20539      6847  TIP3      OH2           -27.0315903985       27.2437442534       12.0333953365  WZ3       2928            0.0000000000
     20540      6847  TIP3      H1            -26.2861103985       27.8321142534       11.9137953365  WZ3       2928            0.0000000000
     20541      6847  TIP3      H2            -27.7889103985       27.8257142534       12.0967053365  WZ3       2928            0.0000000000
     20542      6848  TIP3      OH2           -29.6222203985       26.0386342534       15.2892253365  WZ3       2933            0.0000000000
     20543      6848  TIP3      H1            -28.6691003985       26.1225442534       15.2618253365  WZ3       2933            0.0000000000
     20544      6848  TIP3      H2            -29.7827603985       25.3268142534       15.9087153365  WZ3       2933            0.0000000000
     20545      6849  TIP3      OH2           -23.4701003985       26.2719942534       -2.6360846635  WZ3       2934            0.0000000000
     20546      6849  TIP3      H1            -23.7436203985       25.8475442534       -3.4492546635  WZ3       2934            0.0000000000
     20547      6849  TIP3      H2            -23.4306903985       27.2034442534       -2.8530446635  WZ3       2934            0.0000000000
     20548      6850  TIP3      OH2           -27.8926403985       22.5465642534       15.8548453365  WZ3       2938            0.0000000000
     20549      6850  TIP3      H1            -27.7005103985       21.6155042534       15.7432953365  WZ3       2938            0.0000000000
     20550      6850  TIP3      H2            -27.0350103985       22.9715142534       15.8443853365  WZ3       2938            0.0000000000
     20551      6851  TIP3      OH2           -26.5759203985       25.3350842534       13.9321153365  WZ3       2939            0.0000000000
     20552      6851  TIP3      H1            -26.8574203985       26.0445442534       13.3544953365  WZ3       2939            0.0000000000
     20553      6851  TIP3      H2            -25.6334903985       25.2623842534       13.7812353365  WZ3       2939            0.0000000000
     20554      6852  TIP3      OH2           -29.1048403985       20.1972242534       13.6573453365  WZ3       2943            0.0000000000
     20555      6852  TIP3      H1            -30.0523003985       20.2291942534       13.7896753365  WZ3       2943            0.0000000000
     20556      6852  TIP3      H2            -28.7921703985       19.5719342534       14.3111653365  WZ3       2943            0.0000000000
     20557      6853  TIP3      OH2           -27.4706903985       18.8313342534       15.6625353365  WZ3       2944            0.0000000000
     20558      6853  TIP3      H1            -27.5675103985       17.8790642534       15.6567253365  WZ3       2944            0.0000000000
     20559      6853  TIP3      H2            -27.7923803985       19.1000142534       16.5230853365  WZ3       2944            0.0000000000
     20560      6854  TIP3      OH2           -32.8627403985       16.0420742534       13.6894353365  WZ3       2946            0.0000000000
     20561      6854  TIP3      H1            -32.1509003985       15.4022942534       13.6753453365  WZ3       2946            0.0000000000
     20562      6854  TIP3      H2            -32.9637003985       16.3089042534       12.7757453365  WZ3       2946            0.0000000000
     20563      6855  TIP3      OH2           -32.5089903985       17.7249142534       15.7430653365  WZ3       2947            0.0000000000
     20564      6855  TIP3      H1            -32.6407703985       17.2492942534       14.9229153365  WZ3       2947            0.0000000000
     20565      6855  TIP3      H2            -33.1082503985       18.4692742534       15.6877753365  WZ3       2947            0.0000000000
     20566      6856  TIP3      OH2           -22.3268103985       33.5275142534        8.2647653365  WZ3       2952            0.0000000000
     20567      6856  TIP3      H1            -22.3481403985       33.7123542534        9.2037053365  WZ3       2952            0.0000000000
     20568      6856  TIP3      H2            -21.6361903985       34.0959142534        7.9239053365  WZ3       2952            0.0000000000
     20569      6857  TIP3      OH2           -22.7635203985       33.0946242534       11.1866753365  WZ3       2953            0.0000000000
     20570      6857  TIP3      H1            -23.2506503985       32.3590342534       10.8154153365  WZ3       2953            0.0000000000
     20571      6857  TIP3      H2            -22.2142503985       32.7010142534       11.8646153365  WZ3       2953            0.0000000000
     20572      6858  TIP3      OH2           -24.3127903985       28.8844342534       15.8247053365  WZ3       2954            0.0000000000
     20573      6858  TIP3      H1            -25.1786803985       28.7794042534       16.2189353365  WZ3       2954            0.0000000000
     20574      6858  TIP3      H2            -23.9362003985       29.6427642534       16.2711753365  WZ3       2954            0.0000000000
     20575      6859  TIP3      OH2           -23.0118203985       27.1408042534        1.3389553365  WZ3       2955            0.0000000000
     20576      6859  TIP3      H1            -22.1616803985       27.5618942534        1.4661153365  WZ3       2955            0.0000000000
     20577      6859  TIP3      H2            -23.0063103985       26.4008142534        1.9460953365  WZ3       2955            0.0000000000
     20578      6860  TIP3      OH2           -22.6172603985       25.1945442534        3.1625253365  WZ3       2956            0.0000000000
     20579      6860  TIP3      H1            -23.3438003985       24.7148042534        3.5602853365  WZ3       2956            0.0000000000
     20580      6860  TIP3      H2            -22.0359303985       25.4000142534        3.8946853365  WZ3       2956            0.0000000000
     20581      6861  TIP3      OH2           -22.8581403985       27.9792942534        8.1102853365  WZ3       2957            0.0000000000
     20582      6861  TIP3      H1            -22.0247203985       27.6012942534        7.8296453365  WZ3       2957            0.0000000000
     20583      6861  TIP3      H2            -22.7461103985       28.9224142534        7.9911953365  WZ3       2957            0.0000000000
     20584      6862  TIP3      OH2           -24.3719103985       30.8570442534       10.4171253365  WZ3       2958            0.0000000000
     20585      6862  TIP3      H1            -25.0193803985       31.1821942534       11.0426453365  WZ3       2958            0.0000000000
     20586      6862  TIP3      H2            -24.8895103985       30.4168142534        9.7429553365  WZ3       2958            0.0000000000
     20587      6863  TIP3      OH2           -22.3489503985       25.0953942534       -0.4463446635  WZ3       2959            0.0000000000
     20588      6863  TIP3      H1            -22.8708403985       25.4518042534       -1.1652546635  WZ3       2959            0.0000000000
     20589      6863  TIP3      H2            -22.3820303985       25.7701742534        0.2317453365  WZ3       2959            0.0000000000
     20590      6864  TIP3      OH2           -24.0000503985       22.3349542534       -1.8956346635  WZ3       2960            0.0000000000
     20591      6864  TIP3      H1            -23.9036103985       23.0016542534       -2.5756646635  WZ3       2960            0.0000000000
     20592      6864  TIP3      H2            -24.1400903985       21.5195842534       -2.3770846635  WZ3       2960            0.0000000000
     20593      6865  TIP3      OH2           -24.8305803985       23.7151942534        3.7253953365  WZ3       2961            0.0000000000
     20594      6865  TIP3      H1            -24.9807003985       22.7700542534        3.7051753365  WZ3       2961            0.0000000000
     20595      6865  TIP3      H2            -25.1841303985       23.9963342534        4.5693053365  WZ3       2961            0.0000000000
     20596      6866  TIP3      OH2           -23.9742903985       25.6855242534       13.3642253365  WZ3       2963            0.0000000000
     20597      6866  TIP3      H1            -23.3915603985       24.9507542534       13.5559453365  WZ3       2963            0.0000000000
     20598      6866  TIP3      H2            -23.4103603985       26.4575542534       13.4108053365  WZ3       2963            0.0000000000
     20599      6867  TIP3      OH2           -22.4775803985       23.5881042534       14.0487653365  WZ3       2964            0.0000000000
     20600      6867  TIP3      H1            -23.3409103985       23.2093142534       13.8832353365  WZ3       2964            0.0000000000
     20601      6867  TIP3      H2            -21.8732103985       22.8495842534       13.9743453365  WZ3       2964            0.0000000000
     20602      6868  TIP3      OH2           -24.7526703985       19.7429342534       -2.7780846635  WZ3       2965            0.0000000000
     20603      6868  TIP3      H1            -24.1420903985       19.3716142534       -2.1412646635  WZ3       2965            0.0000000000
     20604      6868  TIP3      H2            -25.5895203985       19.3216242534       -2.5820846635  WZ3       2965            0.0000000000
     20605      6869  TIP3      OH2           -25.1201003985       21.2977742534        2.1879053365  WZ3       2966            0.0000000000
     20606      6869  TIP3      H1            -24.8403903985       20.3908142534        2.3120753365  WZ3       2966            0.0000000000
     20607      6869  TIP3      H2            -24.3609303985       21.7319242534        1.7988253365  WZ3       2966            0.0000000000
     20608      6870  TIP3      OH2           -24.5082703985       21.8795142534        7.6237953365  WZ3       2967            0.0000000000
     20609      6870  TIP3      H1            -23.5754703985       22.0915042534        7.5893953365  WZ3       2967            0.0000000000
     20610      6870  TIP3      H2            -24.7435203985       21.9807242534        8.5460953365  WZ3       2967            0.0000000000
     20611      6871  TIP3      OH2           -24.4790803985       22.6160442534       10.3997353365  WZ3       2968            0.0000000000
     20612      6871  TIP3      H1            -25.3219503985       22.8840842534       10.7657153365  WZ3       2968            0.0000000000
     20613      6871  TIP3      H2            -24.0366503985       23.4382342534       10.1888453365  WZ3       2968            0.0000000000
     20614      6872  TIP3      OH2           -22.1959203985       16.5960642534       15.7532353365  WZ3       2970            0.0000000000
     20615      6872  TIP3      H1            -21.8462203985       15.9424142534       15.1477053365  WZ3       2970            0.0000000000
     20616      6872  TIP3      H2            -22.0489703985       17.4334742534       15.3134953365  WZ3       2970            0.0000000000
     20617      6873  TIP3      OH2           -24.5066203985       18.5607042534        2.2361053365  WZ3       2971            0.0000000000
     20618      6873  TIP3      H1            -24.3241203985       18.1118542534        3.0616053365  WZ3       2971            0.0000000000
     20619      6873  TIP3      H2            -25.1063303985       17.9761442534        1.7725653365  WZ3       2971            0.0000000000
     20620      6874  TIP3      OH2           -22.6762003985       18.7055242534       14.1023653365  WZ3       2974            0.0000000000
     20621      6874  TIP3      H1            -23.5936303985       18.9762342534       14.0667153365  WZ3       2974            0.0000000000
     20622      6874  TIP3      H2            -22.5532603985       18.1703642534       13.3183353365  WZ3       2974            0.0000000000
     20623      6875  TIP3      OH2           -22.6400003985       18.6285142534       -1.2358646635  WZ3       2975            0.0000000000
     20624      6875  TIP3      H1            -22.2277403985       17.9070842534       -1.7110646635  WZ3       2975            0.0000000000
     20625      6875  TIP3      H2            -21.9583503985       19.2979742534       -1.1774346635  WZ3       2975            0.0000000000
     20626      6876  TIP3      OH2           -25.5882103985       33.6174542534        3.8369453365  WZ3       2977            0.0000000000
     20627      6876  TIP3      H1            -24.9359203985       33.2696642534        3.2288553365  WZ3       2977            0.0000000000
     20628      6876  TIP3      H2            -25.0778303985       34.1057742534        4.4829153365  WZ3       2977            0.0000000000
     20629      6877  TIP3      OH2           -23.6756103985       16.7951542534       11.9214453365  WZ3       2983            0.0000000000
     20630      6877  TIP3      H1            -24.4882603985       17.1201842534       11.5339153365  WZ3       2983            0.0000000000
     20631      6877  TIP3      H2            -23.4427603985       16.0350042534       11.3883553365  WZ3       2983            0.0000000000
     20632      6878  TIP3      OH2           -25.7378603985       34.7132542534       10.1310953365  WZ3       2988            0.0000000000
     20633      6878  TIP3      H1            -25.9196603985       35.6291442534        9.9205853365  WZ3       2988            0.0000000000
     20634      6878  TIP3      H2            -25.5610803985       34.3029642534        9.2845553365  WZ3       2988            0.0000000000
     20635      6879  TIP3      OH2           -30.2457603985       18.2442142534        6.2442653365  WZ3       2992            0.0000000000
     20636      6879  TIP3      H1            -30.9200803985       17.6147742534        6.4998453365  WZ3       2992            0.0000000000
     20637      6879  TIP3      H2            -29.6818403985       17.7601042534        5.6410553365  WZ3       2992            0.0000000000
     20638      6880  TIP3      OH2           -25.1030403985       16.3516142534        6.3569753365  WZ3       2993            0.0000000000
     20639      6880  TIP3      H1            -24.4992803985       16.8991542534        5.8550753365  WZ3       2993            0.0000000000
     20640      6880  TIP3      H2            -25.9728403985       16.6706542534        6.1163853365  WZ3       2993            0.0000000000
     20641      6881  TIP3      OH2           -23.3760003985       17.4904842534        4.6900653365  WZ3       2994            0.0000000000
     20642      6881  TIP3      H1            -22.7642503985       16.9760542534        4.1634253365  WZ3       2994            0.0000000000
     20643      6881  TIP3      H2            -22.9936603985       18.3676942534        4.7135053365  WZ3       2994            0.0000000000
     20644      6882  TIP3      OH2           -33.3397503985       16.8049542534        3.8795653365  WZ3       2997            0.0000000000
     20645      6882  TIP3      H1            -32.4654103985       17.1933842534        3.8499953365  WZ3       2997            0.0000000000
     20646      6882  TIP3      H2            -33.4756703985       16.5897342534        4.8022853365  WZ3       2997            0.0000000000
     20647      6883  TIP3      OH2           -27.7829103985       16.8349342534        5.5287353365  WZ3       2998            0.0000000000
     20648      6883  TIP3      H1            -27.7067503985       16.9300942534        4.5793353365  WZ3       2998            0.0000000000
     20649      6883  TIP3      H2            -28.0579903985       15.9272242534        5.6576453365  WZ3       2998            0.0000000000
     20650      6884  TIP3      OH2           -26.4296503985       16.8607142534        1.2212353365  WZ3       2999            0.0000000000
     20651      6884  TIP3      H1            -27.1325403985       17.4756342534        1.0113753365  WZ3       2999            0.0000000000
     20652      6884  TIP3      H2            -26.8745103985       16.0233842534        1.3523253365  WZ3       2999            0.0000000000
     20653      6885  TIP3      OH2           -32.1957503985       18.8853542534        0.7693253365  WZ3       3002            0.0000000000
     20654      6885  TIP3      H1            -32.0176203985       18.2386742534        1.4521853365  WZ3       3002            0.0000000000
     20655      6885  TIP3      H2            -32.2491303985       19.7191242534        1.2364353365  WZ3       3002            0.0000000000
     20656      6886  TIP3      OH2           -23.6084103985       33.3967942534        1.8441053365  WZ3       3004            0.0000000000
     20657      6886  TIP3      H1            -23.8027003985       32.6490042534        1.2790653365  WZ3       3004            0.0000000000
     20658      6886  TIP3      H2            -23.6474003985       34.1548042534        1.2608953365  WZ3       3004            0.0000000000
     20659      6887  TIP3      OH2           -27.5669003985       16.0754042534       15.3018653365  WZ3       3008            0.0000000000
     20660      6887  TIP3      H1            -27.4901803985       15.6494742534       16.1556353365  WZ3       3008            0.0000000000
     20661      6887  TIP3      H2            -26.6732403985       16.0888742534       14.9592153365  WZ3       3008            0.0000000000
     20662      6888  TIP3      OH2           -24.3907903985       32.1480342534       13.9942853365  WZ3       3009            0.0000000000
     20663      6888  TIP3      H1            -25.1726003985       31.9618342534       13.4743453365  WZ3       3009            0.0000000000
     20664      6888  TIP3      H2            -24.4628003985       33.0774642534       14.2115353365  WZ3       3009            0.0000000000
     20665      6889  TIP3      OH2            -9.9847503985       26.0344742534        4.0250053365  WZ3       3010            0.0000000000
     20666      6889  TIP3      H1             -9.8956403985       26.9782942534        3.8927153365  WZ3       3010            0.0000000000
     20667      6889  TIP3      H2            -10.6229903985       25.7591142534        3.3669453365  WZ3       3010            0.0000000000
     20668      6890  TIP3      OH2           -11.0516203985       25.2895442534        7.4438253365  WZ3       3011            0.0000000000
     20669      6890  TIP3      H1            -11.0898703985       24.6431742534        8.1487853365  WZ3       3011            0.0000000000
     20670      6890  TIP3      H2            -11.3739703985       24.8229842534        6.6726953365  WZ3       3011            0.0000000000
     20671      6891  TIP3      OH2           -18.6831203985       24.9037542534        9.0368153365  WZ3       3012            0.0000000000
     20672      6891  TIP3      H1            -18.6419103985       24.2780842534        9.7600553365  WZ3       3012            0.0000000000
     20673      6891  TIP3      H2            -17.9803503985       25.5276142534        9.2188553365  WZ3       3012            0.0000000000
     20674      6892  TIP3      OH2            -7.3456003985       28.2285842534        5.7453353365  WZ3       3013            0.0000000000
     20675      6892  TIP3      H1             -7.7863303985       27.5081842534        6.1958953365  WZ3       3013            0.0000000000
     20676      6892  TIP3      H2             -7.3586303985       28.9493042534        6.3751053365  WZ3       3013            0.0000000000
     20677      6893  TIP3      OH2           -17.7598103985       29.3536442534        7.5717253365  WZ3       3014            0.0000000000
     20678      6893  TIP3      H1            -18.1292903985       28.5516942534        7.2021553365  WZ3       3014            0.0000000000
     20679      6893  TIP3      H2            -16.8187003985       29.1851342534        7.6180653365  WZ3       3014            0.0000000000
     20680      6894  TIP3      OH2           -21.1497603985       23.0139042534        2.9646053365  WZ3       3015            0.0000000000
     20681      6894  TIP3      H1            -21.5974203985       23.8597742534        2.9462553365  WZ3       3015            0.0000000000
     20682      6894  TIP3      H2            -21.7106403985       22.4343242534        2.4491153365  WZ3       3015            0.0000000000
     20683      6895  TIP3      OH2           -20.4391503985       25.1758642534        5.0904053365  WZ3       3016            0.0000000000
     20684      6895  TIP3      H1            -20.2258003985       24.4060242534        5.6177053365  WZ3       3016            0.0000000000
     20685      6895  TIP3      H2            -19.7013903985       25.2655342534        4.4871653365  WZ3       3016            0.0000000000
     20686      6896  TIP3      OH2           -10.2340503985       33.3327542534        5.9573753365  WZ3       3017            0.0000000000
     20687      6896  TIP3      H1             -9.6144103985       32.6562242534        5.6842953365  WZ3       3017            0.0000000000
     20688      6896  TIP3      H2            -10.4423103985       33.1148342534        6.8658653365  WZ3       3017            0.0000000000
     20689      6897  TIP3      OH2           -12.6621803985       27.7216842534        7.8499253365  WZ3       3018            0.0000000000
     20690      6897  TIP3      H1            -12.3583903985       27.0358242534        7.2553353365  WZ3       3018            0.0000000000
     20691      6897  TIP3      H2            -11.9407803985       27.8405542534        8.4677253365  WZ3       3018            0.0000000000
     20692      6898  TIP3      OH2            -3.9992003985       19.3232142534        8.7105453365  WZ3       3019            0.0000000000
     20693      6898  TIP3      H1             -3.9499803985       19.9333342534        9.4464553365  WZ3       3019            0.0000000000
     20694      6898  TIP3      H2             -3.5736903985       19.7843042534        7.9876553365  WZ3       3019            0.0000000000
     20695      6899  TIP3      OH2            -9.5214803985       22.1159242534        8.1774053365  WZ3       3020            0.0000000000
     20696      6899  TIP3      H1             -9.3788903985       21.1696242534        8.1975653365  WZ3       3020            0.0000000000
     20697      6899  TIP3      H2             -9.6275803985       22.3229042534        7.2488953365  WZ3       3020            0.0000000000
     20698      6900  TIP3      OH2           -16.3666503985       20.2175642534        5.4498853365  WZ3       3021            0.0000000000
     20699      6900  TIP3      H1            -16.3235403985       21.0774142534        5.0315153365  WZ3       3021            0.0000000000
     20700      6900  TIP3      H2            -16.8242403985       19.6650342534        4.8162053365  WZ3       3021            0.0000000000
     20701      6901  TIP3      OH2            -8.6443803985       20.3481242534        3.8507153365  WZ3       3022            0.0000000000
     20702      6901  TIP3      H1             -7.9979503985       20.0194442534        4.4754753365  WZ3       3022            0.0000000000
     20703      6901  TIP3      H2             -8.1344403985       20.8660242534        3.2278553365  WZ3       3022            0.0000000000
     20704      6902  TIP3      OH2           -19.7465003985       22.6141442534        6.2120253365  WZ3       3023            0.0000000000
     20705      6902  TIP3      H1            -19.0928403985       22.0643142534        6.6440353365  WZ3       3023            0.0000000000
     20706      6902  TIP3      H2            -19.7225703985       22.3400442534        5.2952253365  WZ3       3023            0.0000000000
     20707      6903  TIP3      OH2           -14.5900503985       24.1642742534        5.4271753365  WZ3       3024            0.0000000000
     20708      6903  TIP3      H1            -13.9739503985       23.6378142534        5.9365753365  WZ3       3024            0.0000000000
     20709      6903  TIP3      H2            -15.1761703985       23.5241442534        5.0235353365  WZ3       3024            0.0000000000
     20710      6904  TIP3      OH2            -3.6077403985       20.8011342534       10.9465253365  WZ3       3025            0.0000000000
     20711      6904  TIP3      H1             -4.2962803985       21.4592042534       10.8511853365  WZ3       3025            0.0000000000
     20712      6904  TIP3      H2             -3.5922803985       20.6039242534       11.8830653365  WZ3       3025            0.0000000000
     20713      6905  TIP3      OH2           -17.5564603985       19.1354042534        9.5239653365  WZ3       3026            0.0000000000
     20714      6905  TIP3      H1            -17.7752903985       19.6654642534        8.7575653365  WZ3       3026            0.0000000000
     20715      6905  TIP3      H2            -18.2243703985       19.3619542534       10.1711053365  WZ3       3026            0.0000000000
     20716      6906  TIP3      OH2           -10.1874803985       28.6355142534        3.0678753365  WZ3       3027            0.0000000000
     20717      6906  TIP3      H1            -10.4829703985       28.3127442534        2.2165653365  WZ3       3027            0.0000000000
     20718      6906  TIP3      H2            -10.5117003985       29.5351842534        3.1091353365  WZ3       3027            0.0000000000
     20719      6907  TIP3      OH2           -14.9873203985       26.8109742534        9.8113353365  WZ3       3028            0.0000000000
     20720      6907  TIP3      H1            -15.7274103985       27.4091242534        9.9148553365  WZ3       3028            0.0000000000
     20721      6907  TIP3      H2            -14.2733703985       27.3649342534        9.4956953365  WZ3       3028            0.0000000000
     20722      6908  TIP3      OH2            -6.8805403985       19.6390542534        5.8313053365  WZ3       3029            0.0000000000
     20723      6908  TIP3      H1             -7.0957403985       18.8733942534        6.3639053365  WZ3       3029            0.0000000000
     20724      6908  TIP3      H2             -6.2248003985       20.1115142534        6.3441553365  WZ3       3029            0.0000000000
     20725      6909  TIP3      OH2           -17.9627303985       21.0275842534        7.4761853365  WZ3       3030            0.0000000000
     20726      6909  TIP3      H1            -17.3491003985       21.6603442534        7.8494253365  WZ3       3030            0.0000000000
     20727      6909  TIP3      H2            -17.4506603985       20.5550842534        6.8198753365  WZ3       3030            0.0000000000
     20728      6910  TIP3      OH2           -16.5798903985       28.7752742534       10.5984853365  WZ3       3031            0.0000000000
     20729      6910  TIP3      H1            -16.5851303985       29.6546242534       10.2204153365  WZ3       3031            0.0000000000
     20730      6910  TIP3      H2            -17.4334803985       28.6916842534       11.0234753365  WZ3       3031            0.0000000000
     20731      6911  TIP3      OH2           -20.4588003985       28.4460642534        1.3804153365  WZ3       3032            0.0000000000
     20732      6911  TIP3      H1            -20.7307103985       28.6751642534        0.4917053365  WZ3       3032            0.0000000000
     20733      6911  TIP3      H2            -20.4132303985       29.2839442534        1.8409453365  WZ3       3032            0.0000000000
     20734      6912  TIP3      OH2            -6.8338303985       30.0676542534        8.0932653365  WZ3       3033            0.0000000000
     20735      6912  TIP3      H1             -7.7754603985       30.1260442534        8.2549553365  WZ3       3033            0.0000000000
     20736      6912  TIP3      H2             -6.5572203985       30.9737042534        7.9562353365  WZ3       3033            0.0000000000
     20737      6913  TIP3      OH2            -6.5331303985       18.3541842534        9.5106553365  WZ3       3034            0.0000000000
     20738      6913  TIP3      H1             -7.2692103985       18.9648942534        9.4727853365  WZ3       3034            0.0000000000
     20739      6913  TIP3      H2             -5.8497303985       18.7690842534        8.9842953365  WZ3       3034            0.0000000000
     20740      6914  TIP3      OH2           -13.5299903985       16.4409142534        6.9764553365  WZ3       3035            0.0000000000
     20741      6914  TIP3      H1            -13.6475703985       15.4925142534        6.9222853365  WZ3       3035            0.0000000000
     20742      6914  TIP3      H2            -14.3849803985       16.7735242534        7.2495653365  WZ3       3035            0.0000000000
     20743      6915  TIP3      OH2            -8.5817103985       31.8490042534        4.7184253365  WZ3       3036            0.0000000000
     20744      6915  TIP3      H1             -8.1564803985       31.1417942534        4.2333853365  WZ3       3036            0.0000000000
     20745      6915  TIP3      H2             -8.2647103985       32.6502742534        4.3016453365  WZ3       3036            0.0000000000
     20746      6916  TIP3      OH2            -7.4220603985       29.7498542534        3.2270853365  WZ3       3037            0.0000000000
     20747      6916  TIP3      H1             -7.6795803985       29.0598642534        2.6156753365  WZ3       3037            0.0000000000
     20748      6916  TIP3      H2             -7.3509803985       29.3069742534        4.0726753365  WZ3       3037            0.0000000000
     20749      6917  TIP3      OH2            -5.7360403985       28.3165242534       11.7044353365  WZ3       3038            0.0000000000
     20750      6917  TIP3      H1             -5.5964103985       27.7247742534       10.9651353365  WZ3       3038            0.0000000000
     20751      6917  TIP3      H2             -5.5687603985       29.1891142534       11.3483153365  WZ3       3038            0.0000000000
     20752      6918  TIP3      OH2           -11.2635003985       25.2784742534        1.4770353365  WZ3       3039            0.0000000000
     20753      6918  TIP3      H1            -11.9749503985       25.8134442534        1.1250853365  WZ3       3039            0.0000000000
     20754      6918  TIP3      H2            -10.5725403985       25.3336842534        0.8169253365  WZ3       3039            0.0000000000
     20755      6919  TIP3      OH2           -11.2095803985       23.7359042534       -1.4844646635  WZ3       3040            0.0000000000
     20756      6919  TIP3      H1            -10.5085903985       23.7585942534       -0.8330646635  WZ3       3040            0.0000000000
     20757      6919  TIP3      H2            -10.9072903985       23.1078742534       -2.1405346635  WZ3       3040            0.0000000000
     20758      6920  TIP3      OH2            -3.8941103985       24.6563242534        9.7704753365  WZ3       3041            0.0000000000
     20759      6920  TIP3      H1             -4.5467003985       25.3508842534        9.8595653365  WZ3       3041            0.0000000000
     20760      6920  TIP3      H2             -3.4290803985       24.8664142534        8.9606353365  WZ3       3041            0.0000000000
     20761      6921  TIP3      OH2            -7.8577303985       25.4878042534        2.4286253365  WZ3       3042            0.0000000000
     20762      6921  TIP3      H1             -8.5896303985       25.7161742534        3.0016853365  WZ3       3042            0.0000000000
     20763      6921  TIP3      H2             -7.4105103985       24.7740742534        2.8833753365  WZ3       3042            0.0000000000
     20764      6922  TIP3      OH2            -7.9603803985       23.6620642534       11.4963253365  WZ3       3043            0.0000000000
     20765      6922  TIP3      H1             -7.8804703985       24.4255042534       12.0681753365  WZ3       3043            0.0000000000
     20766      6922  TIP3      H2             -8.5616103985       23.9413042534       10.8058353365  WZ3       3043            0.0000000000
     20767      6923  TIP3      OH2           -16.2123603985       26.1184242534        4.3111253365  WZ3       3044            0.0000000000
     20768      6923  TIP3      H1            -16.5428403985       25.7477642534        3.4928253365  WZ3       3044            0.0000000000
     20769      6923  TIP3      H2            -15.6239503985       25.4478242534        4.6579553365  WZ3       3044            0.0000000000
     20770      6924  TIP3      OH2           -14.8456103985       29.5464842534        6.9923453365  WZ3       3045            0.0000000000
     20771      6924  TIP3      H1            -14.9404803985       28.9677942534        6.2358053365  WZ3       3045            0.0000000000
     20772      6924  TIP3      H2            -14.1162503985       29.1750542534        7.4886253365  WZ3       3045            0.0000000000
     20773      6925  TIP3      OH2           -15.8458103985       24.8869842534        7.9446253365  WZ3       3046            0.0000000000
     20774      6925  TIP3      H1            -15.2805603985       25.0084042534        7.1817453365  WZ3       3046            0.0000000000
     20775      6925  TIP3      H2            -15.5269203985       25.5244842534        8.5834753365  WZ3       3046            0.0000000000
     20776      6926  TIP3      OH2            -9.5365903985       30.3901742534        8.6786753365  WZ3       3047            0.0000000000
     20777      6926  TIP3      H1             -9.7769303985       31.0524842534        9.3265953365  WZ3       3047            0.0000000000
     20778      6926  TIP3      H2             -9.7347703985       29.5556942534        9.1036353365  WZ3       3047            0.0000000000
     20779      6927  TIP3      OH2           -14.9657403985       29.2862542534       12.6618153365  WZ3       3048            0.0000000000
     20780      6927  TIP3      H1            -15.2769903985       30.0685742534       13.1171353365  WZ3       3048            0.0000000000
     20781      6927  TIP3      H2            -15.6157203985       29.1331642534       11.9760153365  WZ3       3048            0.0000000000
     20782      6928  TIP3      OH2            -8.9867803985       24.6500942534        0.1137453365  WZ3       3049            0.0000000000
     20783      6928  TIP3      H1             -8.4072303985       24.8001242534        0.8606353365  WZ3       3049            0.0000000000
     20784      6928  TIP3      H2             -8.5727803985       25.1208342534       -0.6096146635  WZ3       3049            0.0000000000
     20785      6929  TIP3      OH2           -18.0457503985       25.4843642534       11.8903853365  WZ3       3050            0.0000000000
     20786      6929  TIP3      H1            -17.9754303985       26.1350442534       12.5888853365  WZ3       3050            0.0000000000
     20787      6929  TIP3      H2            -18.9365303985       25.5871142534       11.5554753365  WZ3       3050            0.0000000000
     20788      6930  TIP3      OH2           -11.2602903985       31.3869442534        3.5490553365  WZ3       3051            0.0000000000
     20789      6930  TIP3      H1            -10.7865303985       31.6825742534        4.3264753365  WZ3       3051            0.0000000000
     20790      6930  TIP3      H2            -11.8233603985       32.1251042534        3.3160153365  WZ3       3051            0.0000000000
     20791      6931  TIP3      OH2           -16.7261503985       31.3577542534       13.4251953365  WZ3       3052            0.0000000000
     20792      6931  TIP3      H1            -16.7186203985       31.2217242534       12.4777453365  WZ3       3052            0.0000000000
     20793      6931  TIP3      H2            -17.6421103985       31.2405642534       13.6771953365  WZ3       3052            0.0000000000
     20794      6932  TIP3      OH2            -5.2879403985       16.4001342534       -0.0732846635  WZ3       3053            0.0000000000
     20795      6932  TIP3      H1             -6.1878703985       16.5390342534        0.2217753365  WZ3       3053            0.0000000000
     20796      6932  TIP3      H2             -5.0361003985       17.2315942534       -0.4751146635  WZ3       3053            0.0000000000
     20797      6933  TIP3      OH2           -17.2220903985       25.1878542534        1.9004053365  WZ3       3054            0.0000000000
     20798      6933  TIP3      H1            -17.5139603985       25.9560242534        1.4095353365  WZ3       3054            0.0000000000
     20799      6933  TIP3      H2            -17.8965703985       24.5284742534        1.7375453365  WZ3       3054            0.0000000000
     20800      6934  TIP3      OH2            -4.0988003985       30.7663742534       -1.6968946635  WZ3       3055            0.0000000000
     20801      6934  TIP3      H1             -4.0254503985       31.7053942534       -1.5263646635  WZ3       3055            0.0000000000
     20802      6934  TIP3      H2             -3.1932903985       30.4612342534       -1.7531646635  WZ3       3055            0.0000000000
     20803      6935  TIP3      OH2           -21.1290803985       27.5507742534       10.7153853365  WZ3       3056            0.0000000000
     20804      6935  TIP3      H1            -21.6302403985       27.5227142534        9.9003553365  WZ3       3056            0.0000000000
     20805      6935  TIP3      H2            -21.1237103985       26.6450942534       11.0251153365  WZ3       3056            0.0000000000
     20806      6936  TIP3      OH2           -21.3788103985       30.3311542534        7.5994053365  WZ3       3057            0.0000000000
     20807      6936  TIP3      H1            -20.4327503985       30.1868542534        7.5803553365  WZ3       3057            0.0000000000
     20808      6936  TIP3      H2            -21.4911803985       31.1154342534        8.1365253365  WZ3       3057            0.0000000000
     20809      6937  TIP3      OH2            -3.1809603985       30.9971242534       13.2817753365  WZ3       3058            0.0000000000
     20810      6937  TIP3      H1             -3.2302803985       30.0419342534       13.2445353365  WZ3       3058            0.0000000000
     20811      6937  TIP3      H2             -4.0077303985       31.2646542534       13.6831553365  WZ3       3058            0.0000000000
     20812      6938  TIP3      OH2           -12.2025603985       30.5710442534       12.1579153365  WZ3       3059            0.0000000000
     20813      6938  TIP3      H1            -12.1151003985       31.3975042534       12.6328253365  WZ3       3059            0.0000000000
     20814      6938  TIP3      H2            -13.0660503985       30.2414242534       12.4068453365  WZ3       3059            0.0000000000
     20815      6939  TIP3      OH2           -11.7879803985       34.3434142534        1.9639753365  WZ3       3060            0.0000000000
     20816      6939  TIP3      H1            -11.8633803985       34.2221342534        1.0174953365  WZ3       3060            0.0000000000
     20817      6939  TIP3      H2            -11.7551103985       35.2926842534        2.0824353365  WZ3       3060            0.0000000000
     20818      6940  TIP3      OH2           -18.1346003985       33.1321142534        3.7448753365  WZ3       3061            0.0000000000
     20819      6940  TIP3      H1            -17.9825603985       32.7841542534        4.6235253365  WZ3       3061            0.0000000000
     20820      6940  TIP3      H2            -18.9855603985       32.7758442534        3.4895953365  WZ3       3061            0.0000000000
     20821      6941  TIP3      OH2            -8.6863803985       33.4974342534       -1.0337846635  WZ3       3062            0.0000000000
     20822      6941  TIP3      H1             -8.3115403985       32.7530442534       -1.5045246635  WZ3       3062            0.0000000000
     20823      6941  TIP3      H2             -8.6820103985       33.2274942534       -0.1154546635  WZ3       3062            0.0000000000
     20824      6942  TIP3      OH2            -9.0175703985       33.4231442534        1.7154353365  WZ3       3063            0.0000000000
     20825      6942  TIP3      H1             -9.9525903985       33.5233342534        1.8941353365  WZ3       3063            0.0000000000
     20826      6942  TIP3      H2             -8.7373803985       32.7137442534        2.2937553365  WZ3       3063            0.0000000000
     20827      6943  TIP3      OH2            -6.0289803985       22.4903742534       13.7619953365  WZ3       3064            0.0000000000
     20828      6943  TIP3      H1             -6.4363003985       22.9709342534       13.0413253365  WZ3       3064            0.0000000000
     20829      6943  TIP3      H2             -5.9884103985       21.5849742534       13.4540753365  WZ3       3064            0.0000000000
     20830      6944  TIP3      OH2           -18.8800303985       28.8743142534       11.7586653365  WZ3       3065            0.0000000000
     20831      6944  TIP3      H1            -18.6639003985       28.5128742534       12.6182453365  WZ3       3065            0.0000000000
     20832      6944  TIP3      H2            -19.7355603985       28.4996942534       11.5490153365  WZ3       3065            0.0000000000
     20833      6945  TIP3      OH2           -16.2612303985       17.3443642534        7.7540853365  WZ3       3066            0.0000000000
     20834      6945  TIP3      H1            -17.1228603985       17.2571842534        7.3463753365  WZ3       3066            0.0000000000
     20835      6945  TIP3      H2            -16.2836603985       18.2003742534        8.1818453365  WZ3       3066            0.0000000000
     20836      6946  TIP3      OH2           -11.5984503985       17.0664042534       11.1287853365  WZ3       3067            0.0000000000
     20837      6946  TIP3      H1            -11.1781403985       16.6511142534       11.8818453365  WZ3       3067            0.0000000000
     20838      6946  TIP3      H2            -12.5314903985       16.8877342534       11.2459853365  WZ3       3067            0.0000000000
     20839      6947  TIP3      OH2            -8.2719603985       20.8219242534       11.9822353365  WZ3       3068            0.0000000000
     20840      6947  TIP3      H1             -8.7860103985       20.6961442534       12.7798353365  WZ3       3068            0.0000000000
     20841      6947  TIP3      H2             -8.4274903985       21.7342342534       11.7378553365  WZ3       3068            0.0000000000
     20842      6948  TIP3      OH2            -7.5094703985       25.6829242534       -2.2564646635  WZ3       3069            0.0000000000
     20843      6948  TIP3      H1             -7.4673903985       25.4603142534       -3.1864646635  WZ3       3069            0.0000000000
     20844      6948  TIP3      H2             -6.6602603985       26.0816342534       -2.0664746635  WZ3       3069            0.0000000000
     20845      6949  TIP3      OH2           -11.9367203985       19.5587442534       -1.5861346635  WZ3       3070            0.0000000000
     20846      6949  TIP3      H1            -12.1902403985       19.5779042534       -0.6633246635  WZ3       3070            0.0000000000
     20847      6949  TIP3      H2            -12.1935103985       18.6872842534       -1.8875146635  WZ3       3070            0.0000000000
     20848      6950  TIP3      OH2           -16.1702203985       22.3098142534        8.8491053365  WZ3       3071            0.0000000000
     20849      6950  TIP3      H1            -16.8120103985       22.2695442534        9.5581153365  WZ3       3071            0.0000000000
     20850      6950  TIP3      H2            -16.1330203985       23.2362842534        8.6114053365  WZ3       3071            0.0000000000
     20851      6951  TIP3      OH2           -16.1733103985       22.5308242534        3.7611053365  WZ3       3072            0.0000000000
     20852      6951  TIP3      H1            -17.0660203985       22.1904342534        3.7024853365  WZ3       3072            0.0000000000
     20853      6951  TIP3      H2            -15.7226503985       22.1539142534        3.0054253365  WZ3       3072            0.0000000000
     20854      6952  TIP3      OH2           -10.6377603985       22.9468542534        2.5781853365  WZ3       3073            0.0000000000
     20855      6952  TIP3      H1            -11.0467303985       23.7617142534        2.2866653365  WZ3       3073            0.0000000000
     20856      6952  TIP3      H2             -9.9171403985       22.8068642534        1.9638953365  WZ3       3073            0.0000000000
     20857      6953  TIP3      OH2           -11.5356003985       23.1224942534       14.0662553365  WZ3       3074            0.0000000000
     20858      6953  TIP3      H1            -12.0982203985       22.4176542534       14.3870353365  WZ3       3074            0.0000000000
     20859      6953  TIP3      H2            -10.7092603985       23.0016842534       14.5340153365  WZ3       3074            0.0000000000
     20860      6954  TIP3      OH2            -9.6329903985       22.3928942534        5.3921553365  WZ3       3075            0.0000000000
     20861      6954  TIP3      H1             -9.8285403985       22.9985742534        4.6772153365  WZ3       3075            0.0000000000
     20862      6954  TIP3      H2             -9.4517303985       21.5594142534        4.9577853365  WZ3       3075            0.0000000000
     20863      6955  TIP3      OH2           -18.4201703985       22.6301642534       10.7163053365  WZ3       3076            0.0000000000
     20864      6955  TIP3      H1            -18.4582303985       23.0303242534       11.5850153365  WZ3       3076            0.0000000000
     20865      6955  TIP3      H2            -18.9110603985       21.8134042534       10.8065953365  WZ3       3076            0.0000000000
     20866      6956  TIP3      OH2           -15.0544303985       20.0043942534       -2.4850946635  WZ3       3077            0.0000000000
     20867      6956  TIP3      H1            -15.4853603985       19.5594042534       -1.7553546635  WZ3       3077            0.0000000000
     20868      6956  TIP3      H2            -15.7725603985       20.3760242534       -2.9973446635  WZ3       3077            0.0000000000
     20869      6957  TIP3      OH2           -21.8120903985       19.7463442534        4.5667753365  WZ3       3078            0.0000000000
     20870      6957  TIP3      H1            -21.1813203985       19.7175542534        5.2861653365  WZ3       3078            0.0000000000
     20871      6957  TIP3      H2            -21.3626603985       19.3212142534        3.8363653365  WZ3       3078            0.0000000000
     20872      6958  TIP3      OH2           -20.5378803985       20.4925442534       -0.0091846635  WZ3       3079            0.0000000000
     20873      6958  TIP3      H1            -20.0637103985       21.0835342534       -0.5940946635  WZ3       3079            0.0000000000
     20874      6958  TIP3      H2            -21.2552403985       21.0228342534        0.3378253365  WZ3       3079            0.0000000000
     20875      6959  TIP3      OH2           -10.3690703985       24.0310242534       10.0633953365  WZ3       3080            0.0000000000
     20876      6959  TIP3      H1            -10.0455903985       23.3999942534        9.4204453365  WZ3       3080            0.0000000000
     20877      6959  TIP3      H2            -10.8091403985       23.4962442534       10.7241353365  WZ3       3080            0.0000000000
     20878      6960  TIP3      OH2           -13.5917803985       19.9585742534        4.8475153365  WZ3       3081            0.0000000000
     20879      6960  TIP3      H1            -14.5026703985       20.0152542534        5.1361153365  WZ3       3081            0.0000000000
     20880      6960  TIP3      H2            -13.0864903985       19.8981242534        5.6582353365  WZ3       3081            0.0000000000
     20881      6961  TIP3      OH2           -18.7634403985       21.5872042534        3.6742753365  WZ3       3082            0.0000000000
     20882      6961  TIP3      H1            -19.6526403985       21.6867542534        3.3342353365  WZ3       3082            0.0000000000
     20883      6961  TIP3      H2            -18.4669503985       20.7455042534        3.3280653365  WZ3       3082            0.0000000000
     20884      6962  TIP3      OH2           -15.1102603985       21.5874642534        1.3307353365  WZ3       3083            0.0000000000
     20885      6962  TIP3      H1            -14.1787103985       21.7164642534        1.5090453365  WZ3       3083            0.0000000000
     20886      6962  TIP3      H2            -15.3252303985       22.2568942534        0.6812053365  WZ3       3083            0.0000000000
     20887      6963  TIP3      OH2            -9.1865903985       19.1932042534        8.1116953365  WZ3       3084            0.0000000000
     20888      6963  TIP3      H1             -9.8634303985       19.3245142534        8.7756653365  WZ3       3084            0.0000000000
     20889      6963  TIP3      H2             -9.6721003985       19.0381542534        7.3014653365  WZ3       3084            0.0000000000
     20890      6964  TIP3      OH2           -16.4362403985       22.7816842534       -1.1026546635  WZ3       3085            0.0000000000
     20891      6964  TIP3      H1            -16.9787303985       22.4020642534       -1.7938946635  WZ3       3085            0.0000000000
     20892      6964  TIP3      H2            -15.6027503985       22.9761542534       -1.5312446635  WZ3       3085            0.0000000000
     20893      6965  TIP3      OH2            -5.8990803985       34.8647442534       14.3884553365  WZ3       3086            0.0000000000
     20894      6965  TIP3      H1             -5.6992103985       35.2889342534       13.5539853365  WZ3       3086            0.0000000000
     20895      6965  TIP3      H2             -5.2437103985       35.2085642534       14.9954953365  WZ3       3086            0.0000000000
     20896      6966  TIP3      OH2           -18.3011003985       27.3388742534       13.9965053365  WZ3       3087            0.0000000000
     20897      6966  TIP3      H1            -17.5688603985       27.5934642534       14.5579553365  WZ3       3087            0.0000000000
     20898      6966  TIP3      H2            -19.0812303985       27.5434142534       14.5120453365  WZ3       3087            0.0000000000
     20899      6967  TIP3      OH2           -12.2718103985       22.7458742534        6.7344753365  WZ3       3088            0.0000000000
     20900      6967  TIP3      H1            -11.7074703985       22.1995342534        6.1874353365  WZ3       3088            0.0000000000
     20901      6967  TIP3      H2            -12.4194703985       22.2240642534        7.5232353365  WZ3       3088            0.0000000000
     20902      6968  TIP3      OH2           -17.2698403985       18.8824842534        3.1529553365  WZ3       3089            0.0000000000
     20903      6968  TIP3      H1            -17.5868903985       17.9800142534        3.1174953365  WZ3       3089            0.0000000000
     20904      6968  TIP3      H2            -16.4884303985       18.8842242534        2.6001153365  WZ3       3089            0.0000000000
     20905      6969  TIP3      OH2           -13.6452203985       21.1344842534        9.1485153365  WZ3       3090            0.0000000000
     20906      6969  TIP3      H1            -14.4806903985       21.5884342534        9.2587553365  WZ3       3090            0.0000000000
     20907      6969  TIP3      H2            -13.1211603985       21.4103342534        9.9005053365  WZ3       3090            0.0000000000
     20908      6970  TIP3      OH2           -13.1009603985       27.3472542534        0.8331553365  WZ3       3091            0.0000000000
     20909      6970  TIP3      H1            -13.8458603985       26.8397842534        0.5109453365  WZ3       3091            0.0000000000
     20910      6970  TIP3      H2            -13.2352403985       27.3960542534        1.7796353365  WZ3       3091            0.0000000000
     20911      6971  TIP3      OH2            -5.9510703985       26.4800742534        9.6199153365  WZ3       3092            0.0000000000
     20912      6971  TIP3      H1             -5.3091903985       26.9367042534        9.0761353365  WZ3       3092            0.0000000000
     20913      6971  TIP3      H2             -6.7813803985       26.5933142534        9.1573253365  WZ3       3092            0.0000000000
     20914      6972  TIP3      OH2            -9.2032803985       20.1612442534       -0.9675846635  WZ3       3093            0.0000000000
     20915      6972  TIP3      H1            -10.1418603985       20.2728042534       -1.1187046635  WZ3       3093            0.0000000000
     20916      6972  TIP3      H2             -8.9060703985       21.0179342534       -0.6610146635  WZ3       3093            0.0000000000
     20917      6973  TIP3      OH2           -11.5817503985       27.5315842534       12.0700653365  WZ3       3094            0.0000000000
     20918      6973  TIP3      H1            -11.9271403985       27.1498242534       12.8770253365  WZ3       3094            0.0000000000
     20919      6973  TIP3      H2            -11.7817403985       28.4649442534       12.1413553365  WZ3       3094            0.0000000000
     20920      6974  TIP3      OH2            -8.4849303985       22.0285142534        0.6931553365  WZ3       3095            0.0000000000
     20921      6974  TIP3      H1             -7.5930303985       21.8910142534        1.0122753365  WZ3       3095            0.0000000000
     20922      6974  TIP3      H2             -8.4285703985       22.8191242534        0.1565053365  WZ3       3095            0.0000000000
     20923      6975  TIP3      OH2           -17.9761303985       26.6422542534        6.6029453365  WZ3       3096            0.0000000000
     20924      6975  TIP3      H1            -17.2314103985       26.6398242534        6.0015953365  WZ3       3096            0.0000000000
     20925      6975  TIP3      H2            -17.8984703985       25.8186342534        7.0844553365  WZ3       3096            0.0000000000
     20926      6976  TIP3      OH2           -10.9755503985       28.8056842534       -0.1413846635  WZ3       3097            0.0000000000
     20927      6976  TIP3      H1            -11.2707103985       29.6324742534        0.2400953365  WZ3       3097            0.0000000000
     20928      6976  TIP3      H2            -11.6785503985       28.1863742534        0.0547553365  WZ3       3097            0.0000000000
     20929      6977  TIP3      OH2           -20.9681603985       25.1029442534       11.9177953365  WZ3       3098            0.0000000000
     20930      6977  TIP3      H1            -20.7453003985       24.6849042534       12.7495453365  WZ3       3098            0.0000000000
     20931      6977  TIP3      H2            -21.5701503985       24.4904442534       11.4950753365  WZ3       3098            0.0000000000
     20932      6978  TIP3      OH2           -13.9516703985       24.6199342534       14.1307653365  WZ3       3099            0.0000000000
     20933      6978  TIP3      H1            -14.2475903985       24.4542342534       13.2356753365  WZ3       3099            0.0000000000
     20934      6978  TIP3      H2            -13.0201503985       24.3999642534       14.1201553365  WZ3       3099            0.0000000000
     20935      6979  TIP3      OH2            -9.3313903985       29.9931342534       12.0205653365  WZ3       3100            0.0000000000
     20936      6979  TIP3      H1            -10.2319603985       30.1763942534       11.7529553365  WZ3       3100            0.0000000000
     20937      6979  TIP3      H2             -9.2972803985       30.2520642534       12.9414453365  WZ3       3100            0.0000000000
     20938      6980  TIP3      OH2            -3.6000603985       22.2379242534        0.3878253365  WZ3       3101            0.0000000000
     20939      6980  TIP3      H1             -4.1544303985       21.8417242534       -0.2844246635  WZ3       3101            0.0000000000
     20940      6980  TIP3      H2             -3.4997003985       23.1484442534        0.1101553365  WZ3       3101            0.0000000000
     20941      6981  TIP3      OH2            -3.6368603985       28.0380942534       13.2249753365  WZ3       3102            0.0000000000
     20942      6981  TIP3      H1             -4.4880103985       28.2764742534       12.8576153365  WZ3       3102            0.0000000000
     20943      6981  TIP3      H2             -3.0465203985       28.0214142534       12.4716853365  WZ3       3102            0.0000000000
     20944      6982  TIP3      OH2            -5.3048903985       31.0239642534        0.8530353365  WZ3       3103            0.0000000000
     20945      6982  TIP3      H1             -5.6777803985       30.1983442534        1.1620953365  WZ3       3103            0.0000000000
     20946      6982  TIP3      H2             -5.0275403985       30.8409042534       -0.0446246635  WZ3       3103            0.0000000000
     20947      6983  TIP3      OH2            -8.1445003985       25.8319142534        7.8742253365  WZ3       3104            0.0000000000
     20948      6983  TIP3      H1             -9.0728103985       25.6001042534        7.8471553365  WZ3       3104            0.0000000000
     20949      6983  TIP3      H2             -7.6933903985       25.0548942534        7.5441053365  WZ3       3104            0.0000000000
     20950      6984  TIP3      OH2           -15.6011903985       30.1600742534        4.0070953365  WZ3       3105            0.0000000000
     20951      6984  TIP3      H1            -15.0739703985       30.9335142534        3.8069753365  WZ3       3105            0.0000000000
     20952      6984  TIP3      H2            -16.4813403985       30.3849942534        3.7054953365  WZ3       3105            0.0000000000
     20953      6985  TIP3      OH2           -19.8464203985       25.0224842534       -1.4056646635  WZ3       3106            0.0000000000
     20954      6985  TIP3      H1            -19.2304303985       25.6492042534       -1.0261846635  WZ3       3106            0.0000000000
     20955      6985  TIP3      H2            -20.7081603985       25.3384642534       -1.1340146635  WZ3       3106            0.0000000000
     20956      6986  TIP3      OH2           -14.1739603985       27.8230642534        3.5835253365  WZ3       3107            0.0000000000
     20957      6986  TIP3      H1            -14.4149603985       28.7485042534        3.6250553365  WZ3       3107            0.0000000000
     20958      6986  TIP3      H2            -14.9146003985       27.3641942534        3.9799153365  WZ3       3107            0.0000000000
     20959      6987  TIP3      OH2           -13.6593003985       31.9724242534        9.8986353365  WZ3       3108            0.0000000000
     20960      6987  TIP3      H1            -13.2968303985       32.8269842534        9.6650753365  WZ3       3108            0.0000000000
     20961      6987  TIP3      H2            -13.1277803985       31.6805842534       10.6392653365  WZ3       3108            0.0000000000
     20962      6988  TIP3      OH2           -15.4908803985       32.8448242534        3.1287453365  WZ3       3109            0.0000000000
     20963      6988  TIP3      H1            -16.4408303985       32.9505642534        3.1800753365  WZ3       3109            0.0000000000
     20964      6988  TIP3      H2            -15.1390703985       33.6655642534        3.4734953365  WZ3       3109            0.0000000000
     20965      6989  TIP3      OH2           -10.1152203985       28.0714942534        9.5991953365  WZ3       3110            0.0000000000
     20966      6989  TIP3      H1            -10.5410903985       27.8436642534       10.4255953365  WZ3       3110            0.0000000000
     20967      6989  TIP3      H2             -9.5346403985       27.3326742534        9.4167253365  WZ3       3110            0.0000000000
     20968      6990  TIP3      OH2            -7.9123303985       29.0005442534       -1.3269046635  WZ3       3111            0.0000000000
     20969      6990  TIP3      H1             -7.5590203985       28.6205242534       -0.5225546635  WZ3       3111            0.0000000000
     20970      6990  TIP3      H2             -8.8609803985       28.9070242534       -1.2399746635  WZ3       3111            0.0000000000
     20971      6991  TIP3      OH2            -7.4568003985       32.6234442534       12.0686753365  WZ3       3112            0.0000000000
     20972      6991  TIP3      H1             -8.0584803985       32.0677342534       11.5733053365  WZ3       3112            0.0000000000
     20973      6991  TIP3      H2             -7.1754303985       33.2904242534       11.4424153365  WZ3       3112            0.0000000000
     20974      6992  TIP3      OH2            -3.4088903985       33.4797942534       -1.1258846635  WZ3       3113            0.0000000000
     20975      6992  TIP3      H1             -2.6651003985       34.0658442534       -1.2657246635  WZ3       3113            0.0000000000
     20976      6992  TIP3      H2             -4.1030803985       34.0483742534       -0.7926446635  WZ3       3113            0.0000000000
     20977      6993  TIP3      OH2           -19.3342103985       19.8562142534       11.4759353365  WZ3       3114            0.0000000000
     20978      6993  TIP3      H1            -20.2269803985       20.1947542534       11.4083353365  WZ3       3114            0.0000000000
     20979      6993  TIP3      H2            -19.4329303985       19.0008242534       11.8940153365  WZ3       3114            0.0000000000
     20980      6994  TIP3      OH2            -7.0464003985       27.6727442534        0.8998853365  WZ3       3115            0.0000000000
     20981      6994  TIP3      H1             -7.3236403985       26.9446742534        1.4559953365  WZ3       3115            0.0000000000
     20982      6994  TIP3      H2             -6.1191003985       27.7919442534        1.1051453365  WZ3       3115            0.0000000000
     20983      6995  TIP3      OH2           -19.6830103985       31.6606542534        9.9108753365  WZ3       3116            0.0000000000
     20984      6995  TIP3      H1            -19.4659803985       30.7288942534        9.8798453365  WZ3       3116            0.0000000000
     20985      6995  TIP3      H2            -19.4366603985       31.9351542534       10.7941553365  WZ3       3116            0.0000000000
     20986      6996  TIP3      OH2           -13.8215503985       30.1121542534       -2.8799046635  WZ3       3117            0.0000000000
     20987      6996  TIP3      H1            -13.5825703985       29.3639642534       -3.4270146635  WZ3       3117            0.0000000000
     20988      6996  TIP3      H2            -14.0904203985       29.7243242534       -2.0471246635  WZ3       3117            0.0000000000
     20989      6997  TIP3      OH2           -14.8844903985       29.6825342534       -0.4236446635  WZ3       3118            0.0000000000
     20990      6997  TIP3      H1            -14.7376903985       29.1625142534        0.3664453365  WZ3       3118            0.0000000000
     20991      6997  TIP3      H2            -14.8873203985       30.5892942534       -0.1170546635  WZ3       3118            0.0000000000
     20992      6998  TIP3      OH2           -18.4313803985       26.9348642534        0.0868953365  WZ3       3119            0.0000000000
     20993      6998  TIP3      H1            -19.1174503985       27.2871142534        0.6538653365  WZ3       3119            0.0000000000
     20994      6998  TIP3      H2            -17.9085903985       27.6978242534       -0.1596746635  WZ3       3119            0.0000000000
     20995      6999  TIP3      OH2           -10.5998703985       19.5972442534       10.3657953365  WZ3       3120            0.0000000000
     20996      6999  TIP3      H1             -9.9010803985       19.6711142534       11.0157653365  WZ3       3120            0.0000000000
     20997      6999  TIP3      H2            -10.9807303985       18.7327442534       10.5200853365  WZ3       3120            0.0000000000
     20998      7000  TIP3      OH2            -9.8153803985       19.2494142534        1.4630253365  WZ3       3121            0.0000000000
     20999      7000  TIP3      H1             -9.5955503985       19.7209542534        0.6595653365  WZ3       3121            0.0000000000
     21000      7000  TIP3      H2             -9.2569803985       19.6436742534        2.1330853365  WZ3       3121            0.0000000000
     21001      7001  TIP3      OH2           -12.1467703985       31.3798942534        0.3257753365  WZ3       3122            0.0000000000
     21002      7001  TIP3      H1            -12.9631603985       31.8768642534        0.3782053365  WZ3       3122            0.0000000000
     21003      7001  TIP3      H2            -11.6171403985       31.8552442534       -0.3143446635  WZ3       3122            0.0000000000
     21004      7002  TIP3      OH2           -12.6153903985       20.9772942534        2.2978653365  WZ3       3123            0.0000000000
     21005      7002  TIP3      H1            -11.8031303985       21.4816142534        2.3440353365  WZ3       3123            0.0000000000
     21006      7002  TIP3      H2            -12.8600903985       20.8322642534        3.2118253365  WZ3       3123            0.0000000000
     21007      7003  TIP3      OH2           -12.0797503985       21.9635642534       11.4825253365  WZ3       3124            0.0000000000
     21008      7003  TIP3      H1            -11.9607203985       22.5371042534       12.2395653365  WZ3       3124            0.0000000000
     21009      7003  TIP3      H2            -11.4242903985       21.2755042534       11.5973053365  WZ3       3124            0.0000000000
     21010      7004  TIP3      OH2           -11.7317203985       18.0585942534        3.2359753365  WZ3       3125            0.0000000000
     21011      7004  TIP3      H1            -12.0783703985       18.6756542534        3.8804053365  WZ3       3125            0.0000000000
     21012      7004  TIP3      H2            -11.0730303985       18.5591642534        2.7545253365  WZ3       3125            0.0000000000
     21013      7005  TIP3      OH2           -14.8084603985       32.4236142534        0.3074653365  WZ3       3126            0.0000000000
     21014      7005  TIP3      H1            -14.6475903985       33.2233642534       -0.1932746635  WZ3       3126            0.0000000000
     21015      7005  TIP3      H2            -15.0056803985       32.7302142534        1.1925253365  WZ3       3126            0.0000000000
     21016      7006  TIP3      OH2           -16.0740203985       19.1215342534       -0.0767746635  WZ3       3127            0.0000000000
     21017      7006  TIP3      H1            -16.1575403985       20.0098442534        0.2698653365  WZ3       3127            0.0000000000
     21018      7006  TIP3      H2            -15.1839903985       18.8562042534        0.1549053365  WZ3       3127            0.0000000000
     21019      7007  TIP3      OH2            -5.8751703985       19.8705942534       12.3174953365  WZ3       3128            0.0000000000
     21020      7007  TIP3      H1             -6.7915903985       20.1327642534       12.2298653365  WZ3       3128            0.0000000000
     21021      7007  TIP3      H2             -5.5396703985       19.8674942534       11.4210253365  WZ3       3128            0.0000000000
     21022      7008  TIP3      OH2            -7.2730703985       23.6206942534        6.4132253365  WZ3       3129            0.0000000000
     21023      7008  TIP3      H1             -8.0706303985       23.2057142534        6.0847253365  WZ3       3129            0.0000000000
     21024      7008  TIP3      H2             -6.8279603985       22.9300642534        6.9042753365  WZ3       3129            0.0000000000
     21025      7009  TIP3      OH2           -17.8154903985       29.5487542534       -1.0163246635  WZ3       3130            0.0000000000
     21026      7009  TIP3      H1            -17.2233403985       30.2482342534       -0.7400846635  WZ3       3130            0.0000000000
     21027      7009  TIP3      H2            -17.3561903985       29.1157042534       -1.7358646635  WZ3       3130            0.0000000000
     21028      7010  TIP3      OH2           -19.4995703985       22.2130542534       -1.9003846635  WZ3       3131            0.0000000000
     21029      7010  TIP3      H1            -19.5443103985       23.1523642534       -1.7216846635  WZ3       3131            0.0000000000
     21030      7010  TIP3      H2            -20.3872503985       21.9775442534       -2.1701746635  WZ3       3131            0.0000000000
     21031      7011  TIP3      OH2            -6.1866103985       32.8769442534        8.0355753365  WZ3       3132            0.0000000000
     21032      7011  TIP3      H1             -6.3421803985       33.5553842534        7.3785053365  WZ3       3132            0.0000000000
     21033      7011  TIP3      H2             -5.2539703985       32.9488742534        8.2386353365  WZ3       3132            0.0000000000
     21034      7012  TIP3      OH2           -18.6913703985       16.9947142534        6.7727153365  WZ3       3133            0.0000000000
     21035      7012  TIP3      H1            -18.9203903985       17.0539642534        5.8452153365  WZ3       3133            0.0000000000
     21036      7012  TIP3      H2            -19.1340303985       16.2032642534        7.0791253365  WZ3       3133            0.0000000000
     21037      7013  TIP3      OH2           -19.7610403985       30.9354242534        2.9332953365  WZ3       3134            0.0000000000
     21038      7013  TIP3      H1            -20.5931803985       31.4076942534        2.9604353365  WZ3       3134            0.0000000000
     21039      7013  TIP3      H2            -19.2152103985       31.4451842534        2.3346053365  WZ3       3134            0.0000000000
     21040      7014  TIP3      OH2           -20.4726703985       33.5477942534       14.2630953365  WZ3       3135            0.0000000000
     21041      7014  TIP3      H1            -19.9324503985       33.3311942534       15.0230153365  WZ3       3135            0.0000000000
     21042      7014  TIP3      H2            -20.9538703985       32.7423942534       14.0733453365  WZ3       3135            0.0000000000
     21043      7015  TIP3      OH2           -15.8753303985       32.4672342534       15.8835153365  WZ3       3136            0.0000000000
     21044      7015  TIP3      H1            -15.1076103985       32.0083142534       16.2244353365  WZ3       3136            0.0000000000
     21045      7015  TIP3      H2            -15.8967103985       32.2412142534       14.9536353365  WZ3       3136            0.0000000000
     21046      7016  TIP3      OH2           -11.7833703985       31.9752942534       -2.7413046635  WZ3       3137            0.0000000000
     21047      7016  TIP3      H1            -12.4272703985       31.3441542534       -2.4199346635  WZ3       3137            0.0000000000
     21048      7016  TIP3      H2            -11.0215403985       31.4440942534       -2.9729546635  WZ3       3137            0.0000000000
     21049      7017  TIP3      OH2            -9.2984603985       30.8473442534       14.6126653365  WZ3       3138            0.0000000000
     21050      7017  TIP3      H1             -9.6495103985       29.9906442534       14.8557053365  WZ3       3138            0.0000000000
     21051      7017  TIP3      H2             -8.5721403985       30.9900142534       15.2195653365  WZ3       3138            0.0000000000
     21052      7018  TIP3      OH2            -7.1790803985       31.7922842534       -2.5075046635  WZ3       3139            0.0000000000
     21053      7018  TIP3      H1             -6.8960403985       30.9978042534       -2.0548146635  WZ3       3139            0.0000000000
     21054      7018  TIP3      H2             -6.4392903985       32.0253842534       -3.0683946635  WZ3       3139            0.0000000000
     21055      7019  TIP3      OH2           -20.5657203985       27.3582042534       15.2175253365  WZ3       3140            0.0000000000
     21056      7019  TIP3      H1            -20.4216703985       26.4562742534       14.9311953365  WZ3       3140            0.0000000000
     21057      7019  TIP3      H2            -21.3379803985       27.6444142534       14.7297553365  WZ3       3140            0.0000000000
     21058      7020  TIP3      OH2           -16.2243503985       27.7017742534       -2.6500146635  WZ3       3141            0.0000000000
     21059      7020  TIP3      H1            -16.1599403985       26.9077342534       -2.1193746635  WZ3       3141            0.0000000000
     21060      7020  TIP3      H2            -15.5714303985       27.5830542534       -3.3398146635  WZ3       3141            0.0000000000
     21061      7021  TIP3      OH2           -13.9101103985       27.3280142534       14.6501653365  WZ3       3142            0.0000000000
     21062      7021  TIP3      H1            -14.2387303985       27.5988242534       13.7929053365  WZ3       3142            0.0000000000
     21063      7021  TIP3      H2            -13.7582903985       26.3869942534       14.5626653365  WZ3       3142            0.0000000000
     21064      7022  TIP3      OH2           -10.8720103985       28.7489442534       -2.9142146635  WZ3       3143            0.0000000000
     21065      7022  TIP3      H1            -11.1406003985       28.9291542534       -2.0133246635  WZ3       3143            0.0000000000
     21066      7022  TIP3      H2            -11.0784503985       27.8235642534       -3.0456346635  WZ3       3143            0.0000000000
     21067      7023  TIP3      OH2            -8.1755903985       27.2437442534       12.0333953365  WZ3       3144            0.0000000000
     21068      7023  TIP3      H1             -7.4301103985       27.8321142534       11.9137953365  WZ3       3144            0.0000000000
     21069      7023  TIP3      H2             -8.9329103985       27.8257142534       12.0967053365  WZ3       3144            0.0000000000
     21070      7024  TIP3      OH2           -19.7330703985       24.5585342534       14.6374553365  WZ3       3145            0.0000000000
     21071      7024  TIP3      H1            -19.3249503985       23.7011942534       14.5165153365  WZ3       3145            0.0000000000
     21072      7024  TIP3      H2            -19.9933103985       24.5726642534       15.5584853365  WZ3       3145            0.0000000000
     21073      7025  TIP3      OH2           -15.0749703985       25.6743942534       -0.3442146635  WZ3       3146            0.0000000000
     21074      7025  TIP3      H1            -15.5347703985       25.1902242534        0.3416353365  WZ3       3146            0.0000000000
     21075      7025  TIP3      H2            -14.8201003985       25.0059342534       -0.9801646635  WZ3       3146            0.0000000000
     21076      7026  TIP3      OH2           -15.7860403985       23.5671042534       12.0117453365  WZ3       3147            0.0000000000
     21077      7026  TIP3      H1            -16.4044303985       24.2417642534       12.2922153365  WZ3       3147            0.0000000000
     21078      7026  TIP3      H2            -15.4419203985       23.8884942534       11.1783653365  WZ3       3147            0.0000000000
     21079      7027  TIP3      OH2           -14.0039303985       23.9175742534       -2.0818946635  WZ3       3148            0.0000000000
     21080      7027  TIP3      H1            -14.1844303985       23.7626942534       -3.0090646635  WZ3       3148            0.0000000000
     21081      7027  TIP3      H2            -13.0538803985       24.0254442534       -2.0371046635  WZ3       3148            0.0000000000
     21082      7028  TIP3      OH2           -10.7662203985       26.0386342534       15.2892253365  WZ3       3149            0.0000000000
     21083      7028  TIP3      H1             -9.8131003985       26.1225442534       15.2618253365  WZ3       3149            0.0000000000
     21084      7028  TIP3      H2            -10.9267603985       25.3268142534       15.9087153365  WZ3       3149            0.0000000000
     21085      7029  TIP3      OH2            -4.6141003985       26.2719942534       -2.6360846635  WZ3       3150            0.0000000000
     21086      7029  TIP3      H1             -4.8876203985       25.8475442534       -3.4492546635  WZ3       3150            0.0000000000
     21087      7029  TIP3      H2             -4.5746903985       27.2034442534       -2.8530446635  WZ3       3150            0.0000000000
     21088      7030  TIP3      OH2           -15.4466703985       20.9221842534       13.0940553365  WZ3       3151            0.0000000000
     21089      7030  TIP3      H1            -15.2965803985       20.1933142534       12.4920253365  WZ3       3151            0.0000000000
     21090      7030  TIP3      H2            -15.4444303985       21.6993542534       12.5352753365  WZ3       3151            0.0000000000
     21091      7031  TIP3      OH2           -15.0341003985       19.2917642534       10.5867953365  WZ3       3152            0.0000000000
     21092      7031  TIP3      H1            -14.4983503985       19.7434342534        9.9347253365  WZ3       3152            0.0000000000
     21093      7031  TIP3      H2            -15.8861403985       19.1837442534       10.1642053365  WZ3       3152            0.0000000000
     21094      7032  TIP3      OH2           -13.4522603985       24.7313842534       10.8263153365  WZ3       3153            0.0000000000
     21095      7032  TIP3      H1            -12.7017803985       24.5751342534       10.2530953365  WZ3       3153            0.0000000000
     21096      7032  TIP3      H2            -13.7914303985       25.5830442534       10.5508653365  WZ3       3153            0.0000000000
     21097      7033  TIP3      OH2            -9.0366403985       22.5465642534       15.8548453365  WZ3       3154            0.0000000000
     21098      7033  TIP3      H1             -8.8445103985       21.6155042534       15.7432953365  WZ3       3154            0.0000000000
     21099      7033  TIP3      H2             -8.1790103985       22.9715142534       15.8443853365  WZ3       3154            0.0000000000
     21100      7034  TIP3      OH2            -7.7199203985       25.3350842534       13.9321153365  WZ3       3155            0.0000000000
     21101      7034  TIP3      H1             -8.0014203985       26.0445442534       13.3544953365  WZ3       3155            0.0000000000
     21102      7034  TIP3      H2             -6.7774903985       25.2623842534       13.7812353365  WZ3       3155            0.0000000000
     21103      7035  TIP3      OH2           -16.9680403985       22.1205342534       15.0056153365  WZ3       3156            0.0000000000
     21104      7035  TIP3      H1            -17.7351403985       21.5880142534       14.7953753365  WZ3       3156            0.0000000000
     21105      7035  TIP3      H2            -16.2891403985       21.8105742534       14.4062453365  WZ3       3156            0.0000000000
     21106      7036  TIP3      OH2           -14.2285503985       16.7483342534       11.0181553365  WZ3       3157            0.0000000000
     21107      7036  TIP3      H1            -14.3265903985       17.6946542534       10.9127753365  WZ3       3157            0.0000000000
     21108      7036  TIP3      H2            -14.9709303985       16.3757142534       10.5425053365  WZ3       3157            0.0000000000
     21109      7037  TIP3      OH2           -12.9645003985       21.0698742534       14.5819953365  WZ3       3158            0.0000000000
     21110      7037  TIP3      H1            -13.1999603985       20.8505442534       15.4834853365  WZ3       3158            0.0000000000
     21111      7037  TIP3      H2            -13.7478103985       20.8629942534       14.0722453365  WZ3       3158            0.0000000000
     21112      7038  TIP3      OH2           -10.2488403985       20.1972242534       13.6573453365  WZ3       3159            0.0000000000
     21113      7038  TIP3      H1            -11.1963003985       20.2291942534       13.7896753365  WZ3       3159            0.0000000000
     21114      7038  TIP3      H2             -9.9361703985       19.5719342534       14.3111653365  WZ3       3159            0.0000000000
     21115      7039  TIP3      OH2            -8.6146903985       18.8313342534       15.6625353365  WZ3       3160            0.0000000000
     21116      7039  TIP3      H1             -8.7115103985       17.8790642534       15.6567253365  WZ3       3160            0.0000000000
     21117      7039  TIP3      H2             -8.9363803985       19.1000142534       16.5230853365  WZ3       3160            0.0000000000
     21118      7040  TIP3      OH2           -18.7877603985       20.0409142534       14.7100853365  WZ3       3161            0.0000000000
     21119      7040  TIP3      H1            -18.5760203985       19.3345242534       14.0998353365  WZ3       3161            0.0000000000
     21120      7040  TIP3      H2            -18.8990103985       19.6035142534       15.5542053365  WZ3       3161            0.0000000000
     21121      7041  TIP3      OH2           -14.0067403985       16.0420742534       13.6894353365  WZ3       3162            0.0000000000
     21122      7041  TIP3      H1            -13.2949003985       15.4022942534       13.6753453365  WZ3       3162            0.0000000000
     21123      7041  TIP3      H2            -14.1077003985       16.3089042534       12.7757453365  WZ3       3162            0.0000000000
     21124      7042  TIP3      OH2           -13.6529903985       17.7249142534       15.7430653365  WZ3       3163            0.0000000000
     21125      7042  TIP3      H1            -13.7847703985       17.2492942534       14.9229153365  WZ3       3163            0.0000000000
     21126      7042  TIP3      H2            -14.2522503985       18.4692742534       15.6877753365  WZ3       3163            0.0000000000
     21127      7043  TIP3      OH2           -14.1067603985       34.6079442534       -1.0805346635  WZ3       3164            0.0000000000
     21128      7043  TIP3      H1            -13.1736903985       34.7658142534       -0.9366946635  WZ3       3164            0.0000000000
     21129      7043  TIP3      H2            -14.3708803985       35.2832442534       -1.7053846635  WZ3       3164            0.0000000000
     21130      7044  TIP3      OH2           -20.5382703985       29.2443242534       -1.5977246635  WZ3       3165            0.0000000000
     21131      7044  TIP3      H1            -19.6243503985       29.3232142534       -1.3243346635  WZ3       3165            0.0000000000
     21132      7044  TIP3      H2            -20.5309603985       28.5572842534       -2.2641646635  WZ3       3165            0.0000000000
     21133      7045  TIP3      OH2           -21.8892103985       34.6371742534        3.4796653365  WZ3       3166            0.0000000000
     21134      7045  TIP3      H1            -22.5365003985       34.1753442534        2.9467853365  WZ3       3166            0.0000000000
     21135      7045  TIP3      H2            -21.5347503985       33.9655042534        4.0622853365  WZ3       3166            0.0000000000
     21136      7046  TIP3      OH2           -21.0192903985       32.7178742534        5.2842853365  WZ3       3167            0.0000000000
     21137      7046  TIP3      H1            -21.3536103985       31.8376042534        5.4563053365  WZ3       3167            0.0000000000
     21138      7046  TIP3      H2            -20.7970503985       33.0633742534        6.1488453365  WZ3       3167            0.0000000000
     21139      7047  TIP3      OH2            -3.4708103985       33.5275142534        8.2647653365  WZ3       3168            0.0000000000
     21140      7047  TIP3      H1             -3.4921403985       33.7123542534        9.2037053365  WZ3       3168            0.0000000000
     21141      7047  TIP3      H2             -2.7801903985       34.0959142534        7.9239053365  WZ3       3168            0.0000000000
     21142      7048  TIP3      OH2            -3.9075203985       33.0946242534       11.1866753365  WZ3       3169            0.0000000000
     21143      7048  TIP3      H1             -4.3946503985       32.3590342534       10.8154153365  WZ3       3169            0.0000000000
     21144      7048  TIP3      H2             -3.3582503985       32.7010142534       11.8646153365  WZ3       3169            0.0000000000
     21145      7049  TIP3      OH2            -5.4567903985       28.8844342534       15.8247053365  WZ3       3170            0.0000000000
     21146      7049  TIP3      H1             -6.3226803985       28.7794042534       16.2189353365  WZ3       3170            0.0000000000
     21147      7049  TIP3      H2             -5.0802003985       29.6427642534       16.2711753365  WZ3       3170            0.0000000000
     21148      7050  TIP3      OH2            -4.1558203985       27.1408042534        1.3389553365  WZ3       3171            0.0000000000
     21149      7050  TIP3      H1             -3.3056803985       27.5618942534        1.4661153365  WZ3       3171            0.0000000000
     21150      7050  TIP3      H2             -4.1503103985       26.4008142534        1.9460953365  WZ3       3171            0.0000000000
     21151      7051  TIP3      OH2            -3.7612603985       25.1945442534        3.1625253365  WZ3       3172            0.0000000000
     21152      7051  TIP3      H1             -4.4878003985       24.7148042534        3.5602853365  WZ3       3172            0.0000000000
     21153      7051  TIP3      H2             -3.1799303985       25.4000142534        3.8946853365  WZ3       3172            0.0000000000
     21154      7052  TIP3      OH2            -4.0021403985       27.9792942534        8.1102853365  WZ3       3173            0.0000000000
     21155      7052  TIP3      H1             -3.1687203985       27.6012942534        7.8296453365  WZ3       3173            0.0000000000
     21156      7052  TIP3      H2             -3.8901103985       28.9224142534        7.9911953365  WZ3       3173            0.0000000000
     21157      7053  TIP3      OH2            -5.5159103985       30.8570442534       10.4171253365  WZ3       3174            0.0000000000
     21158      7053  TIP3      H1             -6.1633803985       31.1821942534       11.0426453365  WZ3       3174            0.0000000000
     21159      7053  TIP3      H2             -6.0335103985       30.4168142534        9.7429553365  WZ3       3174            0.0000000000
     21160      7054  TIP3      OH2            -3.4929503985       25.0953942534       -0.4463446635  WZ3       3175            0.0000000000
     21161      7054  TIP3      H1             -4.0148403985       25.4518042534       -1.1652546635  WZ3       3175            0.0000000000
     21162      7054  TIP3      H2             -3.5260303985       25.7701742534        0.2317453365  WZ3       3175            0.0000000000
     21163      7055  TIP3      OH2            -5.1440503985       22.3349542534       -1.8956346635  WZ3       3176            0.0000000000
     21164      7055  TIP3      H1             -5.0476103985       23.0016542534       -2.5756646635  WZ3       3176            0.0000000000
     21165      7055  TIP3      H2             -5.2840903985       21.5195842534       -2.3770846635  WZ3       3176            0.0000000000
     21166      7056  TIP3      OH2            -5.9745803985       23.7151942534        3.7253953365  WZ3       3177            0.0000000000
     21167      7056  TIP3      H1             -6.1247003985       22.7700542534        3.7051753365  WZ3       3177            0.0000000000
     21168      7056  TIP3      H2             -6.3281303985       23.9963342534        4.5693053365  WZ3       3177            0.0000000000
     21169      7057  TIP3      OH2           -20.9393403985       25.7934142534        7.7357753365  WZ3       3178            0.0000000000
     21170      7057  TIP3      H1            -20.7550503985       25.7115842534        6.8000653365  WZ3       3178            0.0000000000
     21171      7057  TIP3      H2            -20.0900503985       25.6691142534        8.1594153365  WZ3       3178            0.0000000000
     21172      7058  TIP3      OH2            -5.1182903985       25.6855242534       13.3642253365  WZ3       3179            0.0000000000
     21173      7058  TIP3      H1             -4.5355603985       24.9507542534       13.5559453365  WZ3       3179            0.0000000000
     21174      7058  TIP3      H2             -4.5543603985       26.4575542534       13.4108053365  WZ3       3179            0.0000000000
     21175      7059  TIP3      OH2            -3.6215803985       23.5881042534       14.0487653365  WZ3       3180            0.0000000000
     21176      7059  TIP3      H1             -4.4849103985       23.2093142534       13.8832353365  WZ3       3180            0.0000000000
     21177      7059  TIP3      H2             -3.0172103985       22.8495842534       13.9743453365  WZ3       3180            0.0000000000
     21178      7060  TIP3      OH2            -5.8966703985       19.7429342534       -2.7780846635  WZ3       3181            0.0000000000
     21179      7060  TIP3      H1             -5.2860903985       19.3716142534       -2.1412646635  WZ3       3181            0.0000000000
     21180      7060  TIP3      H2             -6.7335203985       19.3216242534       -2.5820846635  WZ3       3181            0.0000000000
     21181      7061  TIP3      OH2            -6.2641003985       21.2977742534        2.1879053365  WZ3       3182            0.0000000000
     21182      7061  TIP3      H1             -5.9843903985       20.3908142534        2.3120753365  WZ3       3182            0.0000000000
     21183      7061  TIP3      H2             -5.5049303985       21.7319242534        1.7988253365  WZ3       3182            0.0000000000
     21184      7062  TIP3      OH2            -5.6522703985       21.8795142534        7.6237953365  WZ3       3183            0.0000000000
     21185      7062  TIP3      H1             -4.7194703985       22.0915042534        7.5893953365  WZ3       3183            0.0000000000
     21186      7062  TIP3      H2             -5.8875203985       21.9807242534        8.5460953365  WZ3       3183            0.0000000000
     21187      7063  TIP3      OH2            -5.6230803985       22.6160442534       10.3997353365  WZ3       3184            0.0000000000
     21188      7063  TIP3      H1             -6.4659503985       22.8840842534       10.7657153365  WZ3       3184            0.0000000000
     21189      7063  TIP3      H2             -5.1806503985       23.4382342534       10.1888453365  WZ3       3184            0.0000000000
     21190      7064  TIP3      OH2           -21.3418603985       21.0639142534       13.8766553365  WZ3       3185            0.0000000000
     21191      7064  TIP3      H1            -20.4223703985       20.9417442534       14.1129653365  WZ3       3185            0.0000000000
     21192      7064  TIP3      H2            -21.7914103985       20.3138842534       14.2660053365  WZ3       3185            0.0000000000
     21193      7065  TIP3      OH2            -3.3399203985       16.5960642534       15.7532353365  WZ3       3186            0.0000000000
     21194      7065  TIP3      H1             -2.9902203985       15.9424142534       15.1477053365  WZ3       3186            0.0000000000
     21195      7065  TIP3      H2             -3.1929703985       17.4334742534       15.3134953365  WZ3       3186            0.0000000000
     21196      7066  TIP3      OH2            -5.6506203985       18.5607042534        2.2361053365  WZ3       3187            0.0000000000
     21197      7066  TIP3      H1             -5.4681203985       18.1118542534        3.0616053365  WZ3       3187            0.0000000000
     21198      7066  TIP3      H2             -6.2503303985       17.9761442534        1.7725653365  WZ3       3187            0.0000000000
     21199      7067  TIP3      OH2           -20.1206103985       19.3760742534        6.7679453365  WZ3       3188            0.0000000000
     21200      7067  TIP3      H1            -19.6754503985       18.5843242534        7.0699153365  WZ3       3188            0.0000000000
     21201      7067  TIP3      H2            -19.6543103985       20.0925942534        7.1985053365  WZ3       3188            0.0000000000
     21202      7068  TIP3      OH2           -21.8165803985       22.3753742534        7.8369653365  WZ3       3189            0.0000000000
     21203      7068  TIP3      H1            -21.3246003985       22.1544242534        7.0461653365  WZ3       3189            0.0000000000
     21204      7068  TIP3      H2            -21.4544903985       23.2157142534        8.1179153365  WZ3       3189            0.0000000000
     21205      7069  TIP3      OH2            -3.8202003985       18.7055242534       14.1023653365  WZ3       3190            0.0000000000
     21206      7069  TIP3      H1             -4.7376303985       18.9762342534       14.0667153365  WZ3       3190            0.0000000000
     21207      7069  TIP3      H2             -3.6972603985       18.1703642534       13.3183353365  WZ3       3190            0.0000000000
     21208      7070  TIP3      OH2            -3.7840003985       18.6285142534       -1.2358646635  WZ3       3191            0.0000000000
     21209      7070  TIP3      H1             -3.3717403985       17.9070842534       -1.7110646635  WZ3       3191            0.0000000000
     21210      7070  TIP3      H2             -3.1023503985       19.2979742534       -1.1774346635  WZ3       3191            0.0000000000
     21211      7071  TIP3      OH2           -21.5029303985       18.6332842534        1.8912053365  WZ3       3192            0.0000000000
     21212      7071  TIP3      H1            -22.4280903985       18.8419442534        1.7617553365  WZ3       3192            0.0000000000
     21213      7071  TIP3      H2            -21.0489403985       19.1173642534        1.2014353365  WZ3       3192            0.0000000000
     21214      7072  TIP3      OH2            -6.7322103985       33.6174542534        3.8369453365  WZ3       3193            0.0000000000
     21215      7072  TIP3      H1             -6.0799203985       33.2696642534        3.2288553365  WZ3       3193            0.0000000000
     21216      7072  TIP3      H2             -6.2218303985       34.1057742534        4.4829153365  WZ3       3193            0.0000000000
     21217      7073  TIP3      OH2           -21.5393903985       17.3711842534       10.2354553365  WZ3       3194            0.0000000000
     21218      7073  TIP3      H1            -22.2043403985       17.1252142534       10.8785453365  WZ3       3194            0.0000000000
     21219      7073  TIP3      H2            -21.9822603985       17.9932242534        9.6582553365  WZ3       3194            0.0000000000
     21220      7074  TIP3      OH2           -19.3474603985       30.5465942534       14.3800353365  WZ3       3195            0.0000000000
     21221      7074  TIP3      H1            -20.1682103985       30.7212442534       13.9195053365  WZ3       3195            0.0000000000
     21222      7074  TIP3      H2            -19.5996803985       30.4730642534       15.3004753365  WZ3       3195            0.0000000000
     21223      7075  TIP3      OH2           -16.3931703985       31.5207142534       10.6384353365  WZ3       3196            0.0000000000
     21224      7075  TIP3      H1            -16.8180603985       32.3305642534       10.3558953365  WZ3       3196            0.0000000000
     21225      7075  TIP3      H2            -15.4888903985       31.6061242534       10.3364153365  WZ3       3196            0.0000000000
     21226      7076  TIP3      OH2           -12.0820303985       32.9197142534       13.5978053365  WZ3       3197            0.0000000000
     21227      7076  TIP3      H1            -11.8972803985       32.5863242534       14.4758353365  WZ3       3197            0.0000000000
     21228      7076  TIP3      H2            -11.2355803985       33.2295742534       13.2757253365  WZ3       3197            0.0000000000
     21229      7077  TIP3      OH2            -9.7369903985       34.2056042534       12.8419453365  WZ3       3198            0.0000000000
     21230      7077  TIP3      H1             -9.0601003985       33.5728342534       12.6018653365  WZ3       3198            0.0000000000
     21231      7077  TIP3      H2             -9.4151103985       34.6066542534       13.6492753365  WZ3       3198            0.0000000000
     21232      7078  TIP3      OH2            -4.8196103985       16.7951542534       11.9214453365  WZ3       3199            0.0000000000
     21233      7078  TIP3      H1             -5.6322603985       17.1201842534       11.5339153365  WZ3       3199            0.0000000000
     21234      7078  TIP3      H2             -4.5867603985       16.0350042534       11.3883553365  WZ3       3199            0.0000000000
     21235      7079  TIP3      OH2           -18.9915003985       34.7771042534       10.6859653365  WZ3       3200            0.0000000000
     21236      7079  TIP3      H1            -19.7118603985       35.2172042534       10.2347353365  WZ3       3200            0.0000000000
     21237      7079  TIP3      H2            -19.3571003985       34.5265742534       11.5343653365  WZ3       3200            0.0000000000
     21238      7080  TIP3      OH2           -16.5242403985       34.3774942534        9.7156853365  WZ3       3201            0.0000000000
     21239      7080  TIP3      H1            -17.3890203985       34.4493442534       10.1196953365  WZ3       3201            0.0000000000
     21240      7080  TIP3      H2            -16.5793403985       34.9242242534        8.9319353365  WZ3       3201            0.0000000000
     21241      7081  TIP3      OH2           -11.8136803985       34.2653842534        8.8912853365  WZ3       3202            0.0000000000
     21242      7081  TIP3      H1            -12.2702803985       34.7943542534        8.2371253365  WZ3       3202            0.0000000000
     21243      7081  TIP3      H2            -11.6508803985       34.8685242534        9.6165153365  WZ3       3202            0.0000000000
     21244      7082  TIP3      OH2            -9.4860503985       33.1433442534        9.8363153365  WZ3       3203            0.0000000000
     21245      7082  TIP3      H1            -10.3906803985       33.3083642534        9.5705253365  WZ3       3203            0.0000000000
     21246      7082  TIP3      H2             -9.0571903985       33.9965642534        9.7706553365  WZ3       3203            0.0000000000
     21247      7083  TIP3      OH2            -6.8818603985       34.7132542534       10.1310953365  WZ3       3204            0.0000000000
     21248      7083  TIP3      H1             -7.0636603985       35.6291442534        9.9205853365  WZ3       3204            0.0000000000
     21249      7083  TIP3      H2             -6.7050803985       34.3029642534        9.2845553365  WZ3       3204            0.0000000000
     21250      7084  TIP3      OH2           -19.5766903985       33.4003542534        7.5961453365  WZ3       3205            0.0000000000
     21251      7084  TIP3      H1            -19.5950903985       32.9748642534        8.4533753365  WZ3       3205            0.0000000000
     21252      7084  TIP3      H2            -18.7719003985       33.0818542534        7.1873653365  WZ3       3205            0.0000000000
     21253      7085  TIP3      OH2           -17.4353803985       32.1102242534        6.2511353365  WZ3       3206            0.0000000000
     21254      7085  TIP3      H1            -17.6543103985       31.1939642534        6.4207353365  WZ3       3206            0.0000000000
     21255      7085  TIP3      H2            -16.6111603985       32.2502642534        6.7172753365  WZ3       3206            0.0000000000
     21256      7086  TIP3      OH2           -14.8981303985       32.5801542534        7.0999353365  WZ3       3207            0.0000000000
     21257      7086  TIP3      H1            -14.6855603985       31.6920542534        6.8130253365  WZ3       3207            0.0000000000
     21258      7086  TIP3      H2            -14.8336203985       32.5459242534        8.0543353365  WZ3       3207            0.0000000000
     21259      7087  TIP3      OH2           -11.3897603985       18.2442142534        6.2442653365  WZ3       3208            0.0000000000
     21260      7087  TIP3      H1            -12.0640803985       17.6147742534        6.4998453365  WZ3       3208            0.0000000000
     21261      7087  TIP3      H2            -10.8258403985       17.7601042534        5.6410553365  WZ3       3208            0.0000000000
     21262      7088  TIP3      OH2            -6.2470403985       16.3516142534        6.3569753365  WZ3       3209            0.0000000000
     21263      7088  TIP3      H1             -5.6432803985       16.8991542534        5.8550753365  WZ3       3209            0.0000000000
     21264      7088  TIP3      H2             -7.1168403985       16.6706542534        6.1163853365  WZ3       3209            0.0000000000
     21265      7089  TIP3      OH2            -4.5200003985       17.4904842534        4.6900653365  WZ3       3210            0.0000000000
     21266      7089  TIP3      H1             -3.9082503985       16.9760542534        4.1634253365  WZ3       3210            0.0000000000
     21267      7089  TIP3      H2             -4.1376603985       18.3676942534        4.7135053365  WZ3       3210            0.0000000000
     21268      7090  TIP3      OH2           -19.0630103985       16.8782442534        4.0662553365  WZ3       3211            0.0000000000
     21269      7090  TIP3      H1            -19.8400303985       16.6437342534        3.5588453365  WZ3       3211            0.0000000000
     21270      7090  TIP3      H2            -18.5326503985       16.0814542534        4.0750553365  WZ3       3211            0.0000000000
     21271      7091  TIP3      OH2           -20.2266703985       16.6760542534       -0.1301346635  WZ3       3212            0.0000000000
     21272      7091  TIP3      H1            -19.7876003985       17.2871042534       -0.7217846635  WZ3       3212            0.0000000000
     21273      7091  TIP3      H2            -20.8604303985       17.2144642534        0.3438653365  WZ3       3212            0.0000000000
     21274      7092  TIP3      OH2           -14.4837503985       16.8049542534        3.8795653365  WZ3       3213            0.0000000000
     21275      7092  TIP3      H1            -13.6094103985       17.1933842534        3.8499953365  WZ3       3213            0.0000000000
     21276      7092  TIP3      H2            -14.6196703985       16.5897342534        4.8022853365  WZ3       3213            0.0000000000
     21277      7093  TIP3      OH2            -8.9269103985       16.8349342534        5.5287353365  WZ3       3214            0.0000000000
     21278      7093  TIP3      H1             -8.8507503985       16.9300942534        4.5793353365  WZ3       3214            0.0000000000
     21279      7093  TIP3      H2             -9.2019903985       15.9272242534        5.6576453365  WZ3       3214            0.0000000000
     21280      7094  TIP3      OH2            -7.5736503985       16.8607142534        1.2212353365  WZ3       3215            0.0000000000
     21281      7094  TIP3      H1             -8.2765403985       17.4756342534        1.0113753365  WZ3       3215            0.0000000000
     21282      7094  TIP3      H2             -8.0185103985       16.0233842534        1.3523253365  WZ3       3215            0.0000000000
     21283      7095  TIP3      OH2           -20.3257203985       32.6242742534        0.7673753365  WZ3       3216            0.0000000000
     21284      7095  TIP3      H1            -21.0107303985       32.5861642534        0.0998853365  WZ3       3216            0.0000000000
     21285      7095  TIP3      H2            -20.3220003985       33.5370342534        1.0555853365  WZ3       3216            0.0000000000
     21286      7096  TIP3      OH2           -18.3657603985       18.5922042534       -1.6877246635  WZ3       3217            0.0000000000
     21287      7096  TIP3      H1            -17.8744203985       17.9624442534       -2.2151746635  WZ3       3217            0.0000000000
     21288      7096  TIP3      H2            -17.7421303985       18.8881442534       -1.0246046635  WZ3       3217            0.0000000000
     21289      7097  TIP3      OH2           -13.3397503985       18.8853542534        0.7693253365  WZ3       3218            0.0000000000
     21290      7097  TIP3      H1            -13.1616203985       18.2386742534        1.4521853365  WZ3       3218            0.0000000000
     21291      7097  TIP3      H2            -13.3931303985       19.7191242534        1.2364353365  WZ3       3218            0.0000000000
     21292      7098  TIP3      OH2           -11.4613703985       33.8337642534       -0.8350046635  WZ3       3219            0.0000000000
     21293      7098  TIP3      H1            -10.5953503985       34.2005042534       -1.0131846635  WZ3       3219            0.0000000000
     21294      7098  TIP3      H2            -11.7080903985       33.3945642534       -1.6489246635  WZ3       3219            0.0000000000
     21295      7099  TIP3      OH2            -4.7524103985       33.3967942534        1.8441053365  WZ3       3220            0.0000000000
     21296      7099  TIP3      H1             -4.9467003985       32.6490042534        1.2790653365  WZ3       3220            0.0000000000
     21297      7099  TIP3      H2             -4.7914003985       34.1548042534        1.2608953365  WZ3       3220            0.0000000000
     21298      7100  TIP3      OH2           -19.1052103985       17.3924342534       13.5838753365  WZ3       3221            0.0000000000
     21299      7100  TIP3      H1            -19.4713903985       16.6266942534       14.0263453365  WZ3       3221            0.0000000000
     21300      7100  TIP3      H2            -18.1923603985       17.4214542534       13.8703853365  WZ3       3221            0.0000000000
     21301      7101  TIP3      OH2           -17.1321303985       16.7428742534       15.1195853365  WZ3       3222            0.0000000000
     21302      7101  TIP3      H1            -16.2337703985       16.4688942534       14.9349253365  WZ3       3222            0.0000000000
     21303      7101  TIP3      H2            -17.5188203985       16.0004742534       15.5838453365  WZ3       3222            0.0000000000
     21304      7102  TIP3      OH2           -18.5076003985       33.5443542534       -2.2074146635  WZ3       3223            0.0000000000
     21305      7102  TIP3      H1            -18.7751403985       33.8306442534       -1.3341046635  WZ3       3223            0.0000000000
     21306      7102  TIP3      H2            -17.7363403985       32.9982742534       -2.0551646635  WZ3       3223            0.0000000000
     21307      7103  TIP3      OH2            -8.7109003985       16.0754042534       15.3018653365  WZ3       3224            0.0000000000
     21308      7103  TIP3      H1             -8.6341803985       15.6494742534       16.1556353365  WZ3       3224            0.0000000000
     21309      7103  TIP3      H2             -7.8172403985       16.0888742534       14.9592153365  WZ3       3224            0.0000000000
     21310      7104  TIP3      OH2            -5.5347903985       32.1480342534       13.9942853365  WZ3       3225            0.0000000000
     21311      7104  TIP3      H1             -6.3166003985       31.9618342534       13.4743453365  WZ3       3225            0.0000000000
     21312      7104  TIP3      H2             -5.6068003985       33.0774642534       14.2115353365  WZ3       3225            0.0000000000
     21313      7105  TIP3      OH2             8.8712496015       26.0344742534        4.0250053365  WZ3       3226            0.0000000000
     21314      7105  TIP3      H1              8.9603596015       26.9782942534        3.8927153365  WZ3       3226            0.0000000000
     21315      7105  TIP3      H2              8.2330096015       25.7591142534        3.3669453365  WZ3       3226            0.0000000000
     21316      7106  TIP3      OH2             7.8043796015       25.2895442534        7.4438253365  WZ3       3227            0.0000000000
     21317      7106  TIP3      H1              7.7661296015       24.6431742534        8.1487853365  WZ3       3227            0.0000000000
     21318      7106  TIP3      H2              7.4820296015       24.8229842534        6.6726953365  WZ3       3227            0.0000000000
     21319      7107  TIP3      OH2             0.1728796015       24.9037542534        9.0368153365  WZ3       3228            0.0000000000
     21320      7107  TIP3      H1              0.2140896015       24.2780842534        9.7600553365  WZ3       3228            0.0000000000
     21321      7107  TIP3      H2              0.8756496015       25.5276142534        9.2188553365  WZ3       3228            0.0000000000
     21322      7108  TIP3      OH2            11.5103996015       28.2285842534        5.7453353365  WZ3       3229            0.0000000000
     21323      7108  TIP3      H1             11.0696696015       27.5081842534        6.1958953365  WZ3       3229            0.0000000000
     21324      7108  TIP3      H2             11.4973696015       28.9493042534        6.3751053365  WZ3       3229            0.0000000000
     21325      7109  TIP3      OH2             1.0961896015       29.3536442534        7.5717253365  WZ3       3230            0.0000000000
     21326      7109  TIP3      H1              0.7267096015       28.5516942534        7.2021553365  WZ3       3230            0.0000000000
     21327      7109  TIP3      H2              2.0372996015       29.1851342534        7.6180653365  WZ3       3230            0.0000000000
     21328      7110  TIP3      OH2            -2.2937603985       23.0139042534        2.9646053365  WZ3       3231            0.0000000000
     21329      7110  TIP3      H1             -2.7414203985       23.8597742534        2.9462553365  WZ3       3231            0.0000000000
     21330      7110  TIP3      H2             -2.8546403985       22.4343242534        2.4491153365  WZ3       3231            0.0000000000
     21331      7111  TIP3      OH2            -1.5831503985       25.1758642534        5.0904053365  WZ3       3232            0.0000000000
     21332      7111  TIP3      H1             -1.3698003985       24.4060242534        5.6177053365  WZ3       3232            0.0000000000
     21333      7111  TIP3      H2             -0.8453903985       25.2655342534        4.4871653365  WZ3       3232            0.0000000000
     21334      7112  TIP3      OH2             8.6219496015       33.3327542534        5.9573753365  WZ3       3233            0.0000000000
     21335      7112  TIP3      H1              9.2415896015       32.6562242534        5.6842953365  WZ3       3233            0.0000000000
     21336      7112  TIP3      H2              8.4136896015       33.1148342534        6.8658653365  WZ3       3233            0.0000000000
     21337      7113  TIP3      OH2             6.1938196015       27.7216842534        7.8499253365  WZ3       3234            0.0000000000
     21338      7113  TIP3      H1              6.4976096015       27.0358242534        7.2553353365  WZ3       3234            0.0000000000
     21339      7113  TIP3      H2              6.9152196015       27.8405542534        8.4677253365  WZ3       3234            0.0000000000
     21340      7114  TIP3      OH2            14.8567996015       19.3232142534        8.7105453365  WZ3       3235            0.0000000000
     21341      7114  TIP3      H1             14.9060196015       19.9333342534        9.4464553365  WZ3       3235            0.0000000000
     21342      7114  TIP3      H2             15.2823096015       19.7843042534        7.9876553365  WZ3       3235            0.0000000000
     21343      7115  TIP3      OH2             9.3345196015       22.1159242534        8.1774053365  WZ3       3236            0.0000000000
     21344      7115  TIP3      H1              9.4771096015       21.1696242534        8.1975653365  WZ3       3236            0.0000000000
     21345      7115  TIP3      H2              9.2284196015       22.3229042534        7.2488953365  WZ3       3236            0.0000000000
     21346      7116  TIP3      OH2             2.4893496015       20.2175642534        5.4498853365  WZ3       3237            0.0000000000
     21347      7116  TIP3      H1              2.5324596015       21.0774142534        5.0315153365  WZ3       3237            0.0000000000
     21348      7116  TIP3      H2              2.0317596015       19.6650342534        4.8162053365  WZ3       3237            0.0000000000
     21349      7117  TIP3      OH2            10.2116196015       20.3481242534        3.8507153365  WZ3       3238            0.0000000000
     21350      7117  TIP3      H1             10.8580496015       20.0194442534        4.4754753365  WZ3       3238            0.0000000000
     21351      7117  TIP3      H2             10.7215596015       20.8660242534        3.2278553365  WZ3       3238            0.0000000000
     21352      7118  TIP3      OH2            -0.8905003985       22.6141442534        6.2120253365  WZ3       3239            0.0000000000
     21353      7118  TIP3      H1             -0.2368403985       22.0643142534        6.6440353365  WZ3       3239            0.0000000000
     21354      7118  TIP3      H2             -0.8665703985       22.3400442534        5.2952253365  WZ3       3239            0.0000000000
     21355      7119  TIP3      OH2             4.2659496015       24.1642742534        5.4271753365  WZ3       3240            0.0000000000
     21356      7119  TIP3      H1              4.8820496015       23.6378142534        5.9365753365  WZ3       3240            0.0000000000
     21357      7119  TIP3      H2              3.6798296015       23.5241442534        5.0235353365  WZ3       3240            0.0000000000
     21358      7120  TIP3      OH2            15.2482596015       20.8011342534       10.9465253365  WZ3       3241            0.0000000000
     21359      7120  TIP3      H1             14.5597196015       21.4592042534       10.8511853365  WZ3       3241            0.0000000000
     21360      7120  TIP3      H2             15.2637196015       20.6039242534       11.8830653365  WZ3       3241            0.0000000000
     21361      7121  TIP3      OH2             1.2995396015       19.1354042534        9.5239653365  WZ3       3242            0.0000000000
     21362      7121  TIP3      H1              1.0807096015       19.6654642534        8.7575653365  WZ3       3242            0.0000000000
     21363      7121  TIP3      H2              0.6316296015       19.3619542534       10.1711053365  WZ3       3242            0.0000000000
     21364      7122  TIP3      OH2             8.6685196015       28.6355142534        3.0678753365  WZ3       3243            0.0000000000
     21365      7122  TIP3      H1              8.3730296015       28.3127442534        2.2165653365  WZ3       3243            0.0000000000
     21366      7122  TIP3      H2              8.3442996015       29.5351842534        3.1091353365  WZ3       3243            0.0000000000
     21367      7123  TIP3      OH2             3.8686796015       26.8109742534        9.8113353365  WZ3       3244            0.0000000000
     21368      7123  TIP3      H1              3.1285896015       27.4091242534        9.9148553365  WZ3       3244            0.0000000000
     21369      7123  TIP3      H2              4.5826296015       27.3649342534        9.4956953365  WZ3       3244            0.0000000000
     21370      7124  TIP3      OH2            11.9754596015       19.6390542534        5.8313053365  WZ3       3245            0.0000000000
     21371      7124  TIP3      H1             11.7602596015       18.8733942534        6.3639053365  WZ3       3245            0.0000000000
     21372      7124  TIP3      H2             12.6311996015       20.1115142534        6.3441553365  WZ3       3245            0.0000000000
     21373      7125  TIP3      OH2             0.8932696015       21.0275842534        7.4761853365  WZ3       3246            0.0000000000
     21374      7125  TIP3      H1              1.5068996015       21.6603442534        7.8494253365  WZ3       3246            0.0000000000
     21375      7125  TIP3      H2              1.4053396015       20.5550842534        6.8198753365  WZ3       3246            0.0000000000
     21376      7126  TIP3      OH2             2.2761096015       28.7752742534       10.5984853365  WZ3       3247            0.0000000000
     21377      7126  TIP3      H1              2.2708696015       29.6546242534       10.2204153365  WZ3       3247            0.0000000000
     21378      7126  TIP3      H2              1.4225196015       28.6916842534       11.0234753365  WZ3       3247            0.0000000000
     21379      7127  TIP3      OH2            -1.6028003985       28.4460642534        1.3804153365  WZ3       3248            0.0000000000
     21380      7127  TIP3      H1             -1.8747103985       28.6751642534        0.4917053365  WZ3       3248            0.0000000000
     21381      7127  TIP3      H2             -1.5572303985       29.2839442534        1.8409453365  WZ3       3248            0.0000000000
     21382      7128  TIP3      OH2            12.0221696015       30.0676542534        8.0932653365  WZ3       3249            0.0000000000
     21383      7128  TIP3      H1             11.0805396015       30.1260442534        8.2549553365  WZ3       3249            0.0000000000
     21384      7128  TIP3      H2             12.2987796015       30.9737042534        7.9562353365  WZ3       3249            0.0000000000
     21385      7129  TIP3      OH2            12.3228696015       18.3541842534        9.5106553365  WZ3       3250            0.0000000000
     21386      7129  TIP3      H1             11.5867896015       18.9648942534        9.4727853365  WZ3       3250            0.0000000000
     21387      7129  TIP3      H2             13.0062696015       18.7690842534        8.9842953365  WZ3       3250            0.0000000000
     21388      7130  TIP3      OH2             5.3260096015       16.4409142534        6.9764553365  WZ3       3251            0.0000000000
     21389      7130  TIP3      H1              5.2084296015       15.4925142534        6.9222853365  WZ3       3251            0.0000000000
     21390      7130  TIP3      H2              4.4710196015       16.7735242534        7.2495653365  WZ3       3251            0.0000000000
     21391      7131  TIP3      OH2            10.2742896015       31.8490042534        4.7184253365  WZ3       3252            0.0000000000
     21392      7131  TIP3      H1             10.6995196015       31.1417942534        4.2333853365  WZ3       3252            0.0000000000
     21393      7131  TIP3      H2             10.5912896015       32.6502742534        4.3016453365  WZ3       3252            0.0000000000
     21394      7132  TIP3      OH2            11.4339396015       29.7498542534        3.2270853365  WZ3       3253            0.0000000000
     21395      7132  TIP3      H1             11.1764196015       29.0598642534        2.6156753365  WZ3       3253            0.0000000000
     21396      7132  TIP3      H2             11.5050196015       29.3069742534        4.0726753365  WZ3       3253            0.0000000000
     21397      7133  TIP3      OH2            13.1199596015       28.3165242534       11.7044353365  WZ3       3254            0.0000000000
     21398      7133  TIP3      H1             13.2595896015       27.7247742534       10.9651353365  WZ3       3254            0.0000000000
     21399      7133  TIP3      H2             13.2872396015       29.1891142534       11.3483153365  WZ3       3254            0.0000000000
     21400      7134  TIP3      OH2             7.5924996015       25.2784742534        1.4770353365  WZ3       3255            0.0000000000
     21401      7134  TIP3      H1              6.8810496015       25.8134442534        1.1250853365  WZ3       3255            0.0000000000
     21402      7134  TIP3      H2              8.2834596015       25.3336842534        0.8169253365  WZ3       3255            0.0000000000
     21403      7135  TIP3      OH2             7.6464196015       23.7359042534       -1.4844646635  WZ3       3256            0.0000000000
     21404      7135  TIP3      H1              8.3474096015       23.7585942534       -0.8330646635  WZ3       3256            0.0000000000
     21405      7135  TIP3      H2              7.9487096015       23.1078742534       -2.1405346635  WZ3       3256            0.0000000000
     21406      7136  TIP3      OH2            14.9618896015       24.6563242534        9.7704753365  WZ3       3257            0.0000000000
     21407      7136  TIP3      H1             14.3092996015       25.3508842534        9.8595653365  WZ3       3257            0.0000000000
     21408      7136  TIP3      H2             15.4269196015       24.8664142534        8.9606353365  WZ3       3257            0.0000000000
     21409      7137  TIP3      OH2            10.9982696015       25.4878042534        2.4286253365  WZ3       3258            0.0000000000
     21410      7137  TIP3      H1             10.2663696015       25.7161742534        3.0016853365  WZ3       3258            0.0000000000
     21411      7137  TIP3      H2             11.4454896015       24.7740742534        2.8833753365  WZ3       3258            0.0000000000
     21412      7138  TIP3      OH2            10.8956196015       23.6620642534       11.4963253365  WZ3       3259            0.0000000000
     21413      7138  TIP3      H1             10.9755296015       24.4255042534       12.0681753365  WZ3       3259            0.0000000000
     21414      7138  TIP3      H2             10.2943896015       23.9413042534       10.8058353365  WZ3       3259            0.0000000000
     21415      7139  TIP3      OH2             2.6436396015       26.1184242534        4.3111253365  WZ3       3260            0.0000000000
     21416      7139  TIP3      H1              2.3131596015       25.7477642534        3.4928253365  WZ3       3260            0.0000000000
     21417      7139  TIP3      H2              3.2320496015       25.4478242534        4.6579553365  WZ3       3260            0.0000000000
     21418      7140  TIP3      OH2             4.0103896015       29.5464842534        6.9923453365  WZ3       3261            0.0000000000
     21419      7140  TIP3      H1              3.9155196015       28.9677942534        6.2358053365  WZ3       3261            0.0000000000
     21420      7140  TIP3      H2              4.7397496015       29.1750542534        7.4886253365  WZ3       3261            0.0000000000
     21421      7141  TIP3      OH2             3.0101896015       24.8869842534        7.9446253365  WZ3       3262            0.0000000000
     21422      7141  TIP3      H1              3.5754396015       25.0084042534        7.1817453365  WZ3       3262            0.0000000000
     21423      7141  TIP3      H2              3.3290796015       25.5244842534        8.5834753365  WZ3       3262            0.0000000000
     21424      7142  TIP3      OH2             9.3194096015       30.3901742534        8.6786753365  WZ3       3263            0.0000000000
     21425      7142  TIP3      H1              9.0790696015       31.0524842534        9.3265953365  WZ3       3263            0.0000000000
     21426      7142  TIP3      H2              9.1212296015       29.5556942534        9.1036353365  WZ3       3263            0.0000000000
     21427      7143  TIP3      OH2             3.8902596015       29.2862542534       12.6618153365  WZ3       3264            0.0000000000
     21428      7143  TIP3      H1              3.5790096015       30.0685742534       13.1171353365  WZ3       3264            0.0000000000
     21429      7143  TIP3      H2              3.2402796015       29.1331642534       11.9760153365  WZ3       3264            0.0000000000
     21430      7144  TIP3      OH2             9.8692196015       24.6500942534        0.1137453365  WZ3       3265            0.0000000000
     21431      7144  TIP3      H1             10.4487696015       24.8001242534        0.8606353365  WZ3       3265            0.0000000000
     21432      7144  TIP3      H2             10.2832196015       25.1208342534       -0.6096146635  WZ3       3265            0.0000000000
     21433      7145  TIP3      OH2             0.8102496015       25.4843642534       11.8903853365  WZ3       3266            0.0000000000
     21434      7145  TIP3      H1              0.8805696015       26.1350442534       12.5888853365  WZ3       3266            0.0000000000
     21435      7145  TIP3      H2             -0.0805303985       25.5871142534       11.5554753365  WZ3       3266            0.0000000000
     21436      7146  TIP3      OH2             7.5957096015       31.3869442534        3.5490553365  WZ3       3267            0.0000000000
     21437      7146  TIP3      H1              8.0694696015       31.6825742534        4.3264753365  WZ3       3267            0.0000000000
     21438      7146  TIP3      H2              7.0326396015       32.1251042534        3.3160153365  WZ3       3267            0.0000000000
     21439      7147  TIP3      OH2             2.1298496015       31.3577542534       13.4251953365  WZ3       3268            0.0000000000
     21440      7147  TIP3      H1              2.1373796015       31.2217242534       12.4777453365  WZ3       3268            0.0000000000
     21441      7147  TIP3      H2              1.2138896015       31.2405642534       13.6771953365  WZ3       3268            0.0000000000
     21442      7148  TIP3      OH2            13.5680596015       16.4001342534       -0.0732846635  WZ3       3269            0.0000000000
     21443      7148  TIP3      H1             12.6681296015       16.5390342534        0.2217753365  WZ3       3269            0.0000000000
     21444      7148  TIP3      H2             13.8198996015       17.2315942534       -0.4751146635  WZ3       3269            0.0000000000
     21445      7149  TIP3      OH2             1.6339096015       25.1878542534        1.9004053365  WZ3       3270            0.0000000000
     21446      7149  TIP3      H1              1.3420396015       25.9560242534        1.4095353365  WZ3       3270            0.0000000000
     21447      7149  TIP3      H2              0.9594296015       24.5284742534        1.7375453365  WZ3       3270            0.0000000000
     21448      7150  TIP3      OH2            14.7571996015       30.7663742534       -1.6968946635  WZ3       3271            0.0000000000
     21449      7150  TIP3      H1             14.8305496015       31.7053942534       -1.5263646635  WZ3       3271            0.0000000000
     21450      7150  TIP3      H2             15.6627096015       30.4612342534       -1.7531646635  WZ3       3271            0.0000000000
     21451      7151  TIP3      OH2            -2.2730803985       27.5507742534       10.7153853365  WZ3       3272            0.0000000000
     21452      7151  TIP3      H1             -2.7742403985       27.5227142534        9.9003553365  WZ3       3272            0.0000000000
     21453      7151  TIP3      H2             -2.2677103985       26.6450942534       11.0251153365  WZ3       3272            0.0000000000
     21454      7152  TIP3      OH2            -2.5228103985       30.3311542534        7.5994053365  WZ3       3273            0.0000000000
     21455      7152  TIP3      H1             -1.5767503985       30.1868542534        7.5803553365  WZ3       3273            0.0000000000
     21456      7152  TIP3      H2             -2.6351803985       31.1154342534        8.1365253365  WZ3       3273            0.0000000000
     21457      7153  TIP3      OH2            15.6750396015       30.9971242534       13.2817753365  WZ3       3274            0.0000000000
     21458      7153  TIP3      H1             15.6257196015       30.0419342534       13.2445353365  WZ3       3274            0.0000000000
     21459      7153  TIP3      H2             14.8482696015       31.2646542534       13.6831553365  WZ3       3274            0.0000000000
     21460      7154  TIP3      OH2             6.6534396015       30.5710442534       12.1579153365  WZ3       3275            0.0000000000
     21461      7154  TIP3      H1              6.7408996015       31.3975042534       12.6328253365  WZ3       3275            0.0000000000
     21462      7154  TIP3      H2              5.7899496015       30.2414242534       12.4068453365  WZ3       3275            0.0000000000
     21463      7155  TIP3      OH2             7.0680196015       34.3434142534        1.9639753365  WZ3       3276            0.0000000000
     21464      7155  TIP3      H1              6.9926196015       34.2221342534        1.0174953365  WZ3       3276            0.0000000000
     21465      7155  TIP3      H2              7.1008896015       35.2926842534        2.0824353365  WZ3       3276            0.0000000000
     21466      7156  TIP3      OH2             0.7213996015       33.1321142534        3.7448753365  WZ3       3277            0.0000000000
     21467      7156  TIP3      H1              0.8734396015       32.7841542534        4.6235253365  WZ3       3277            0.0000000000
     21468      7156  TIP3      H2             -0.1295603985       32.7758442534        3.4895953365  WZ3       3277            0.0000000000
     21469      7157  TIP3      OH2            10.1696196015       33.4974342534       -1.0337846635  WZ3       3278            0.0000000000
     21470      7157  TIP3      H1             10.5444596015       32.7530442534       -1.5045246635  WZ3       3278            0.0000000000
     21471      7157  TIP3      H2             10.1739896015       33.2274942534       -0.1154546635  WZ3       3278            0.0000000000
     21472      7158  TIP3      OH2             9.8384296015       33.4231442534        1.7154353365  WZ3       3279            0.0000000000
     21473      7158  TIP3      H1              8.9034096015       33.5233342534        1.8941353365  WZ3       3279            0.0000000000
     21474      7158  TIP3      H2             10.1186196015       32.7137442534        2.2937553365  WZ3       3279            0.0000000000
     21475      7159  TIP3      OH2            12.8270196015       22.4903742534       13.7619953365  WZ3       3280            0.0000000000
     21476      7159  TIP3      H1             12.4196996015       22.9709342534       13.0413253365  WZ3       3280            0.0000000000
     21477      7159  TIP3      H2             12.8675896015       21.5849742534       13.4540753365  WZ3       3280            0.0000000000
     21478      7160  TIP3      OH2            -0.0240303985       28.8743142534       11.7586653365  WZ3       3281            0.0000000000
     21479      7160  TIP3      H1              0.1920996015       28.5128742534       12.6182453365  WZ3       3281            0.0000000000
     21480      7160  TIP3      H2             -0.8795603985       28.4996942534       11.5490153365  WZ3       3281            0.0000000000
     21481      7161  TIP3      OH2             2.5947696015       17.3443642534        7.7540853365  WZ3       3282            0.0000000000
     21482      7161  TIP3      H1              1.7331396015       17.2571842534        7.3463753365  WZ3       3282            0.0000000000
     21483      7161  TIP3      H2              2.5723396015       18.2003742534        8.1818453365  WZ3       3282            0.0000000000
     21484      7162  TIP3      OH2             7.2575496015       17.0664042534       11.1287853365  WZ3       3283            0.0000000000
     21485      7162  TIP3      H1              7.6778596015       16.6511142534       11.8818453365  WZ3       3283            0.0000000000
     21486      7162  TIP3      H2              6.3245096015       16.8877342534       11.2459853365  WZ3       3283            0.0000000000
     21487      7163  TIP3      OH2            10.5840396015       20.8219242534       11.9822353365  WZ3       3284            0.0000000000
     21488      7163  TIP3      H1             10.0699896015       20.6961442534       12.7798353365  WZ3       3284            0.0000000000
     21489      7163  TIP3      H2             10.4285096015       21.7342342534       11.7378553365  WZ3       3284            0.0000000000
     21490      7164  TIP3      OH2            11.3465296015       25.6829242534       -2.2564646635  WZ3       3285            0.0000000000
     21491      7164  TIP3      H1             11.3886096015       25.4603142534       -3.1864646635  WZ3       3285            0.0000000000
     21492      7164  TIP3      H2             12.1957396015       26.0816342534       -2.0664746635  WZ3       3285            0.0000000000
     21493      7165  TIP3      OH2             6.9192796015       19.5587442534       -1.5861346635  WZ3       3286            0.0000000000
     21494      7165  TIP3      H1              6.6657596015       19.5779042534       -0.6633246635  WZ3       3286            0.0000000000
     21495      7165  TIP3      H2              6.6624896015       18.6872842534       -1.8875146635  WZ3       3286            0.0000000000
     21496      7166  TIP3      OH2             2.6857796015       22.3098142534        8.8491053365  WZ3       3287            0.0000000000
     21497      7166  TIP3      H1              2.0439896015       22.2695442534        9.5581153365  WZ3       3287            0.0000000000
     21498      7166  TIP3      H2              2.7229796015       23.2362842534        8.6114053365  WZ3       3287            0.0000000000
     21499      7167  TIP3      OH2             2.6826896015       22.5308242534        3.7611053365  WZ3       3288            0.0000000000
     21500      7167  TIP3      H1              1.7899796015       22.1904342534        3.7024853365  WZ3       3288            0.0000000000
     21501      7167  TIP3      H2              3.1333496015       22.1539142534        3.0054253365  WZ3       3288            0.0000000000
     21502      7168  TIP3      OH2             8.2182396015       22.9468542534        2.5781853365  WZ3       3289            0.0000000000
     21503      7168  TIP3      H1              7.8092696015       23.7617142534        2.2866653365  WZ3       3289            0.0000000000
     21504      7168  TIP3      H2              8.9388596015       22.8068642534        1.9638953365  WZ3       3289            0.0000000000
     21505      7169  TIP3      OH2             7.3203996015       23.1224942534       14.0662553365  WZ3       3290            0.0000000000
     21506      7169  TIP3      H1              6.7577796015       22.4176542534       14.3870353365  WZ3       3290            0.0000000000
     21507      7169  TIP3      H2              8.1467396015       23.0016842534       14.5340153365  WZ3       3290            0.0000000000
     21508      7170  TIP3      OH2             9.2230096015       22.3928942534        5.3921553365  WZ3       3291            0.0000000000
     21509      7170  TIP3      H1              9.0274596015       22.9985742534        4.6772153365  WZ3       3291            0.0000000000
     21510      7170  TIP3      H2              9.4042696015       21.5594142534        4.9577853365  WZ3       3291            0.0000000000
     21511      7171  TIP3      OH2             0.4358296015       22.6301642534       10.7163053365  WZ3       3292            0.0000000000
     21512      7171  TIP3      H1              0.3977696015       23.0303242534       11.5850153365  WZ3       3292            0.0000000000
     21513      7171  TIP3      H2             -0.0550603985       21.8134042534       10.8065953365  WZ3       3292            0.0000000000
     21514      7172  TIP3      OH2             3.8015696015       20.0043942534       -2.4850946635  WZ3       3293            0.0000000000
     21515      7172  TIP3      H1              3.3706396015       19.5594042534       -1.7553546635  WZ3       3293            0.0000000000
     21516      7172  TIP3      H2              3.0834396015       20.3760242534       -2.9973446635  WZ3       3293            0.0000000000
     21517      7173  TIP3      OH2            -2.9560903985       19.7463442534        4.5667753365  WZ3       3294            0.0000000000
     21518      7173  TIP3      H1             -2.3253203985       19.7175542534        5.2861653365  WZ3       3294            0.0000000000
     21519      7173  TIP3      H2             -2.5066603985       19.3212142534        3.8363653365  WZ3       3294            0.0000000000
     21520      7174  TIP3      OH2            -1.6818803985       20.4925442534       -0.0091846635  WZ3       3295            0.0000000000
     21521      7174  TIP3      H1             -1.2077103985       21.0835342534       -0.5940946635  WZ3       3295            0.0000000000
     21522      7174  TIP3      H2             -2.3992403985       21.0228342534        0.3378253365  WZ3       3295            0.0000000000
     21523      7175  TIP3      OH2             8.4869296015       24.0310242534       10.0633953365  WZ3       3296            0.0000000000
     21524      7175  TIP3      H1              8.8104096015       23.3999942534        9.4204453365  WZ3       3296            0.0000000000
     21525      7175  TIP3      H2              8.0468596015       23.4962442534       10.7241353365  WZ3       3296            0.0000000000
     21526      7176  TIP3      OH2             5.2642196015       19.9585742534        4.8475153365  WZ3       3297            0.0000000000
     21527      7176  TIP3      H1              4.3533296015       20.0152542534        5.1361153365  WZ3       3297            0.0000000000
     21528      7176  TIP3      H2              5.7695096015       19.8981242534        5.6582353365  WZ3       3297            0.0000000000
     21529      7177  TIP3      OH2             0.0925596015       21.5872042534        3.6742753365  WZ3       3298            0.0000000000
     21530      7177  TIP3      H1             -0.7966403985       21.6867542534        3.3342353365  WZ3       3298            0.0000000000
     21531      7177  TIP3      H2              0.3890496015       20.7455042534        3.3280653365  WZ3       3298            0.0000000000
     21532      7178  TIP3      OH2             3.7457396015       21.5874642534        1.3307353365  WZ3       3299            0.0000000000
     21533      7178  TIP3      H1              4.6772896015       21.7164642534        1.5090453365  WZ3       3299            0.0000000000
     21534      7178  TIP3      H2              3.5307696015       22.2568942534        0.6812053365  WZ3       3299            0.0000000000
     21535      7179  TIP3      OH2             9.6694096015       19.1932042534        8.1116953365  WZ3       3300            0.0000000000
     21536      7179  TIP3      H1              8.9925696015       19.3245142534        8.7756653365  WZ3       3300            0.0000000000
     21537      7179  TIP3      H2              9.1838996015       19.0381542534        7.3014653365  WZ3       3300            0.0000000000
     21538      7180  TIP3      OH2             2.4197596015       22.7816842534       -1.1026546635  WZ3       3301            0.0000000000
     21539      7180  TIP3      H1              1.8772696015       22.4020642534       -1.7938946635  WZ3       3301            0.0000000000
     21540      7180  TIP3      H2              3.2532496015       22.9761542534       -1.5312446635  WZ3       3301            0.0000000000
     21541      7181  TIP3      OH2            12.9569196015       34.8647442534       14.3884553365  WZ3       3302            0.0000000000
     21542      7181  TIP3      H1             13.1567896015       35.2889342534       13.5539853365  WZ3       3302            0.0000000000
     21543      7181  TIP3      H2             13.6122896015       35.2085642534       14.9954953365  WZ3       3302            0.0000000000
     21544      7182  TIP3      OH2             0.5548996015       27.3388742534       13.9965053365  WZ3       3303            0.0000000000
     21545      7182  TIP3      H1              1.2871396015       27.5934642534       14.5579553365  WZ3       3303            0.0000000000
     21546      7182  TIP3      H2             -0.2252303985       27.5434142534       14.5120453365  WZ3       3303            0.0000000000
     21547      7183  TIP3      OH2             6.5841896015       22.7458742534        6.7344753365  WZ3       3304            0.0000000000
     21548      7183  TIP3      H1              7.1485296015       22.1995342534        6.1874353365  WZ3       3304            0.0000000000
     21549      7183  TIP3      H2              6.4365296015       22.2240642534        7.5232353365  WZ3       3304            0.0000000000
     21550      7184  TIP3      OH2             1.5861596015       18.8824842534        3.1529553365  WZ3       3305            0.0000000000
     21551      7184  TIP3      H1              1.2691096015       17.9800142534        3.1174953365  WZ3       3305            0.0000000000
     21552      7184  TIP3      H2              2.3675696015       18.8842242534        2.6001153365  WZ3       3305            0.0000000000
     21553      7185  TIP3      OH2             5.2107796015       21.1344842534        9.1485153365  WZ3       3306            0.0000000000
     21554      7185  TIP3      H1              4.3753096015       21.5884342534        9.2587553365  WZ3       3306            0.0000000000
     21555      7185  TIP3      H2              5.7348396015       21.4103342534        9.9005053365  WZ3       3306            0.0000000000
     21556      7186  TIP3      OH2             5.7550396015       27.3472542534        0.8331553365  WZ3       3307            0.0000000000
     21557      7186  TIP3      H1              5.0101396015       26.8397842534        0.5109453365  WZ3       3307            0.0000000000
     21558      7186  TIP3      H2              5.6207596015       27.3960542534        1.7796353365  WZ3       3307            0.0000000000
     21559      7187  TIP3      OH2            12.9049296015       26.4800742534        9.6199153365  WZ3       3308            0.0000000000
     21560      7187  TIP3      H1             13.5468096015       26.9367042534        9.0761353365  WZ3       3308            0.0000000000
     21561      7187  TIP3      H2             12.0746196015       26.5933142534        9.1573253365  WZ3       3308            0.0000000000
     21562      7188  TIP3      OH2             9.6527196015       20.1612442534       -0.9675846635  WZ3       3309            0.0000000000
     21563      7188  TIP3      H1              8.7141396015       20.2728042534       -1.1187046635  WZ3       3309            0.0000000000
     21564      7188  TIP3      H2              9.9499296015       21.0179342534       -0.6610146635  WZ3       3309            0.0000000000
     21565      7189  TIP3      OH2             7.2742496015       27.5315842534       12.0700653365  WZ3       3310            0.0000000000
     21566      7189  TIP3      H1              6.9288596015       27.1498242534       12.8770253365  WZ3       3310            0.0000000000
     21567      7189  TIP3      H2              7.0742596015       28.4649442534       12.1413553365  WZ3       3310            0.0000000000
     21568      7190  TIP3      OH2            10.3710696015       22.0285142534        0.6931553365  WZ3       3311            0.0000000000
     21569      7190  TIP3      H1             11.2629696015       21.8910142534        1.0122753365  WZ3       3311            0.0000000000
     21570      7190  TIP3      H2             10.4274296015       22.8191242534        0.1565053365  WZ3       3311            0.0000000000
     21571      7191  TIP3      OH2             0.8798696015       26.6422542534        6.6029453365  WZ3       3312            0.0000000000
     21572      7191  TIP3      H1              1.6245896015       26.6398242534        6.0015953365  WZ3       3312            0.0000000000
     21573      7191  TIP3      H2              0.9575296015       25.8186342534        7.0844553365  WZ3       3312            0.0000000000
     21574      7192  TIP3      OH2             7.8804496015       28.8056842534       -0.1413846635  WZ3       3313            0.0000000000
     21575      7192  TIP3      H1              7.5852896015       29.6324742534        0.2400953365  WZ3       3313            0.0000000000
     21576      7192  TIP3      H2              7.1774496015       28.1863742534        0.0547553365  WZ3       3313            0.0000000000
     21577      7193  TIP3      OH2            -2.1121603985       25.1029442534       11.9177953365  WZ3       3314            0.0000000000
     21578      7193  TIP3      H1             -1.8893003985       24.6849042534       12.7495453365  WZ3       3314            0.0000000000
     21579      7193  TIP3      H2             -2.7141503985       24.4904442534       11.4950753365  WZ3       3314            0.0000000000
     21580      7194  TIP3      OH2             4.9043296015       24.6199342534       14.1307653365  WZ3       3315            0.0000000000
     21581      7194  TIP3      H1              4.6084096015       24.4542342534       13.2356753365  WZ3       3315            0.0000000000
     21582      7194  TIP3      H2              5.8358496015       24.3999642534       14.1201553365  WZ3       3315            0.0000000000
     21583      7195  TIP3      OH2             9.5246096015       29.9931342534       12.0205653365  WZ3       3316            0.0000000000
     21584      7195  TIP3      H1              8.6240396015       30.1763942534       11.7529553365  WZ3       3316            0.0000000000
     21585      7195  TIP3      H2              9.5587196015       30.2520642534       12.9414453365  WZ3       3316            0.0000000000
     21586      7196  TIP3      OH2            15.2559396015       22.2379242534        0.3878253365  WZ3       3317            0.0000000000
     21587      7196  TIP3      H1             14.7015696015       21.8417242534       -0.2844246635  WZ3       3317            0.0000000000
     21588      7196  TIP3      H2             15.3562996015       23.1484442534        0.1101553365  WZ3       3317            0.0000000000
     21589      7197  TIP3      OH2            15.2191396015       28.0380942534       13.2249753365  WZ3       3318            0.0000000000
     21590      7197  TIP3      H1             14.3679896015       28.2764742534       12.8576153365  WZ3       3318            0.0000000000
     21591      7197  TIP3      H2             15.8094796015       28.0214142534       12.4716853365  WZ3       3318            0.0000000000
     21592      7198  TIP3      OH2            13.5511096015       31.0239642534        0.8530353365  WZ3       3319            0.0000000000
     21593      7198  TIP3      H1             13.1782196015       30.1983442534        1.1620953365  WZ3       3319            0.0000000000
     21594      7198  TIP3      H2             13.8284596015       30.8409042534       -0.0446246635  WZ3       3319            0.0000000000
     21595      7199  TIP3      OH2            10.7114996015       25.8319142534        7.8742253365  WZ3       3320            0.0000000000
     21596      7199  TIP3      H1              9.7831896015       25.6001042534        7.8471553365  WZ3       3320            0.0000000000
     21597      7199  TIP3      H2             11.1626096015       25.0548942534        7.5441053365  WZ3       3320            0.0000000000
     21598      7200  TIP3      OH2             3.2548096015       30.1600742534        4.0070953365  WZ3       3321            0.0000000000
     21599      7200  TIP3      H1              3.7820296015       30.9335142534        3.8069753365  WZ3       3321            0.0000000000
     21600      7200  TIP3      H2              2.3746596015       30.3849942534        3.7054953365  WZ3       3321            0.0000000000
     21601      7201  TIP3      OH2            -0.9904203985       25.0224842534       -1.4056646635  WZ3       3322            0.0000000000
     21602      7201  TIP3      H1             -0.3744303985       25.6492042534       -1.0261846635  WZ3       3322            0.0000000000
     21603      7201  TIP3      H2             -1.8521603985       25.3384642534       -1.1340146635  WZ3       3322            0.0000000000
     21604      7202  TIP3      OH2             4.6820396015       27.8230642534        3.5835253365  WZ3       3323            0.0000000000
     21605      7202  TIP3      H1              4.4410396015       28.7485042534        3.6250553365  WZ3       3323            0.0000000000
     21606      7202  TIP3      H2              3.9413996015       27.3641942534        3.9799153365  WZ3       3323            0.0000000000
     21607      7203  TIP3      OH2             5.1966996015       31.9724242534        9.8986353365  WZ3       3324            0.0000000000
     21608      7203  TIP3      H1              5.5591696015       32.8269842534        9.6650753365  WZ3       3324            0.0000000000
     21609      7203  TIP3      H2              5.7282196015       31.6805842534       10.6392653365  WZ3       3324            0.0000000000
     21610      7204  TIP3      OH2             3.3651196015       32.8448242534        3.1287453365  WZ3       3325            0.0000000000
     21611      7204  TIP3      H1              2.4151696015       32.9505642534        3.1800753365  WZ3       3325            0.0000000000
     21612      7204  TIP3      H2              3.7169296015       33.6655642534        3.4734953365  WZ3       3325            0.0000000000
     21613      7205  TIP3      OH2             8.7407796015       28.0714942534        9.5991953365  WZ3       3326            0.0000000000
     21614      7205  TIP3      H1              8.3149096015       27.8436642534       10.4255953365  WZ3       3326            0.0000000000
     21615      7205  TIP3      H2              9.3213596015       27.3326742534        9.4167253365  WZ3       3326            0.0000000000
     21616      7206  TIP3      OH2            10.9436696015       29.0005442534       -1.3269046635  WZ3       3327            0.0000000000
     21617      7206  TIP3      H1             11.2969796015       28.6205242534       -0.5225546635  WZ3       3327            0.0000000000
     21618      7206  TIP3      H2              9.9950196015       28.9070242534       -1.2399746635  WZ3       3327            0.0000000000
     21619      7207  TIP3      OH2            11.3991996015       32.6234442534       12.0686753365  WZ3       3328            0.0000000000
     21620      7207  TIP3      H1             10.7975196015       32.0677342534       11.5733053365  WZ3       3328            0.0000000000
     21621      7207  TIP3      H2             11.6805696015       33.2904242534       11.4424153365  WZ3       3328            0.0000000000
     21622      7208  TIP3      OH2            15.4471096015       33.4797942534       -1.1258846635  WZ3       3329            0.0000000000
     21623      7208  TIP3      H1             16.1908996015       34.0658442534       -1.2657246635  WZ3       3329            0.0000000000
     21624      7208  TIP3      H2             14.7529196015       34.0483742534       -0.7926446635  WZ3       3329            0.0000000000
     21625      7209  TIP3      OH2            -0.4782103985       19.8562142534       11.4759353365  WZ3       3330            0.0000000000
     21626      7209  TIP3      H1             -1.3709803985       20.1947542534       11.4083353365  WZ3       3330            0.0000000000
     21627      7209  TIP3      H2             -0.5769303985       19.0008242534       11.8940153365  WZ3       3330            0.0000000000
     21628      7210  TIP3      OH2            11.8095996015       27.6727442534        0.8998853365  WZ3       3331            0.0000000000
     21629      7210  TIP3      H1             11.5323596015       26.9446742534        1.4559953365  WZ3       3331            0.0000000000
     21630      7210  TIP3      H2             12.7368996015       27.7919442534        1.1051453365  WZ3       3331            0.0000000000
     21631      7211  TIP3      OH2            -0.8270103985       31.6606542534        9.9108753365  WZ3       3332            0.0000000000
     21632      7211  TIP3      H1             -0.6099803985       30.7288942534        9.8798453365  WZ3       3332            0.0000000000
     21633      7211  TIP3      H2             -0.5806603985       31.9351542534       10.7941553365  WZ3       3332            0.0000000000
     21634      7212  TIP3      OH2             5.0344496015       30.1121542534       -2.8799046635  WZ3       3333            0.0000000000
     21635      7212  TIP3      H1              5.2734296015       29.3639642534       -3.4270146635  WZ3       3333            0.0000000000
     21636      7212  TIP3      H2              4.7655796015       29.7243242534       -2.0471246635  WZ3       3333            0.0000000000
     21637      7213  TIP3      OH2             3.9715096015       29.6825342534       -0.4236446635  WZ3       3334            0.0000000000
     21638      7213  TIP3      H1              4.1183096015       29.1625142534        0.3664453365  WZ3       3334            0.0000000000
     21639      7213  TIP3      H2              3.9686796015       30.5892942534       -0.1170546635  WZ3       3334            0.0000000000
     21640      7214  TIP3      OH2             0.4246196015       26.9348642534        0.0868953365  WZ3       3335            0.0000000000
     21641      7214  TIP3      H1             -0.2614503985       27.2871142534        0.6538653365  WZ3       3335            0.0000000000
     21642      7214  TIP3      H2              0.9474096015       27.6978242534       -0.1596746635  WZ3       3335            0.0000000000
     21643      7215  TIP3      OH2             8.2561296015       19.5972442534       10.3657953365  WZ3       3336            0.0000000000
     21644      7215  TIP3      H1              8.9549196015       19.6711142534       11.0157653365  WZ3       3336            0.0000000000
     21645      7215  TIP3      H2              7.8752696015       18.7327442534       10.5200853365  WZ3       3336            0.0000000000
     21646      7216  TIP3      OH2             9.0406196015       19.2494142534        1.4630253365  WZ3       3337            0.0000000000
     21647      7216  TIP3      H1              9.2604496015       19.7209542534        0.6595653365  WZ3       3337            0.0000000000
     21648      7216  TIP3      H2              9.5990196015       19.6436742534        2.1330853365  WZ3       3337            0.0000000000
     21649      7217  TIP3      OH2             6.7092296015       31.3798942534        0.3257753365  WZ3       3338            0.0000000000
     21650      7217  TIP3      H1              5.8928396015       31.8768642534        0.3782053365  WZ3       3338            0.0000000000
     21651      7217  TIP3      H2              7.2388596015       31.8552442534       -0.3143446635  WZ3       3338            0.0000000000
     21652      7218  TIP3      OH2             6.2406096015       20.9772942534        2.2978653365  WZ3       3339            0.0000000000
     21653      7218  TIP3      H1              7.0528696015       21.4816142534        2.3440353365  WZ3       3339            0.0000000000
     21654      7218  TIP3      H2              5.9959096015       20.8322642534        3.2118253365  WZ3       3339            0.0000000000
     21655      7219  TIP3      OH2             6.7762496015       21.9635642534       11.4825253365  WZ3       3340            0.0000000000
     21656      7219  TIP3      H1              6.8952796015       22.5371042534       12.2395653365  WZ3       3340            0.0000000000
     21657      7219  TIP3      H2              7.4317096015       21.2755042534       11.5973053365  WZ3       3340            0.0000000000
     21658      7220  TIP3      OH2             7.1242796015       18.0585942534        3.2359753365  WZ3       3341            0.0000000000
     21659      7220  TIP3      H1              6.7776296015       18.6756542534        3.8804053365  WZ3       3341            0.0000000000
     21660      7220  TIP3      H2              7.7829696015       18.5591642534        2.7545253365  WZ3       3341            0.0000000000
     21661      7221  TIP3      OH2             4.0475396015       32.4236142534        0.3074653365  WZ3       3342            0.0000000000
     21662      7221  TIP3      H1              4.2084096015       33.2233642534       -0.1932746635  WZ3       3342            0.0000000000
     21663      7221  TIP3      H2              3.8503196015       32.7302142534        1.1925253365  WZ3       3342            0.0000000000
     21664      7222  TIP3      OH2             2.7819796015       19.1215342534       -0.0767746635  WZ3       3343            0.0000000000
     21665      7222  TIP3      H1              2.6984596015       20.0098442534        0.2698653365  WZ3       3343            0.0000000000
     21666      7222  TIP3      H2              3.6720096015       18.8562042534        0.1549053365  WZ3       3343            0.0000000000
     21667      7223  TIP3      OH2            12.9808296015       19.8705942534       12.3174953365  WZ3       3344            0.0000000000
     21668      7223  TIP3      H1             12.0644096015       20.1327642534       12.2298653365  WZ3       3344            0.0000000000
     21669      7223  TIP3      H2             13.3163296015       19.8674942534       11.4210253365  WZ3       3344            0.0000000000
     21670      7224  TIP3      OH2            11.5829296015       23.6206942534        6.4132253365  WZ3       3345            0.0000000000
     21671      7224  TIP3      H1             10.7853696015       23.2057142534        6.0847253365  WZ3       3345            0.0000000000
     21672      7224  TIP3      H2             12.0280396015       22.9300642534        6.9042753365  WZ3       3345            0.0000000000
     21673      7225  TIP3      OH2             1.0405096015       29.5487542534       -1.0163246635  WZ3       3346            0.0000000000
     21674      7225  TIP3      H1              1.6326596015       30.2482342534       -0.7400846635  WZ3       3346            0.0000000000
     21675      7225  TIP3      H2              1.4998096015       29.1157042534       -1.7358646635  WZ3       3346            0.0000000000
     21676      7226  TIP3      OH2            -0.6435703985       22.2130542534       -1.9003846635  WZ3       3347            0.0000000000
     21677      7226  TIP3      H1             -0.6883103985       23.1523642534       -1.7216846635  WZ3       3347            0.0000000000
     21678      7226  TIP3      H2             -1.5312503985       21.9775442534       -2.1701746635  WZ3       3347            0.0000000000
     21679      7227  TIP3      OH2            12.6693896015       32.8769442534        8.0355753365  WZ3       3348            0.0000000000
     21680      7227  TIP3      H1             12.5138196015       33.5553842534        7.3785053365  WZ3       3348            0.0000000000
     21681      7227  TIP3      H2             13.6020296015       32.9488742534        8.2386353365  WZ3       3348            0.0000000000
     21682      7228  TIP3      OH2             0.1646296015       16.9947142534        6.7727153365  WZ3       3349            0.0000000000
     21683      7228  TIP3      H1             -0.0643903985       17.0539642534        5.8452153365  WZ3       3349            0.0000000000
     21684      7228  TIP3      H2             -0.2780303985       16.2032642534        7.0791253365  WZ3       3349            0.0000000000
     21685      7229  TIP3      OH2            -0.9050403985       30.9354242534        2.9332953365  WZ3       3350            0.0000000000
     21686      7229  TIP3      H1             -1.7371803985       31.4076942534        2.9604353365  WZ3       3350            0.0000000000
     21687      7229  TIP3      H2             -0.3592103985       31.4451842534        2.3346053365  WZ3       3350            0.0000000000
     21688      7230  TIP3      OH2            -1.6166703985       33.5477942534       14.2630953365  WZ3       3351            0.0000000000
     21689      7230  TIP3      H1             -1.0764503985       33.3311942534       15.0230153365  WZ3       3351            0.0000000000
     21690      7230  TIP3      H2             -2.0978703985       32.7423942534       14.0733453365  WZ3       3351            0.0000000000
     21691      7231  TIP3      OH2             2.9806696015       32.4672342534       15.8835153365  WZ3       3352            0.0000000000
     21692      7231  TIP3      H1              3.7483896015       32.0083142534       16.2244353365  WZ3       3352            0.0000000000
     21693      7231  TIP3      H2              2.9592896015       32.2412142534       14.9536353365  WZ3       3352            0.0000000000
     21694      7232  TIP3      OH2             7.0726296015       31.9752942534       -2.7413046635  WZ3       3353            0.0000000000
     21695      7232  TIP3      H1              6.4287296015       31.3441542534       -2.4199346635  WZ3       3353            0.0000000000
     21696      7232  TIP3      H2              7.8344596015       31.4440942534       -2.9729546635  WZ3       3353            0.0000000000
     21697      7233  TIP3      OH2             9.5575396015       30.8473442534       14.6126653365  WZ3       3354            0.0000000000
     21698      7233  TIP3      H1              9.2064896015       29.9906442534       14.8557053365  WZ3       3354            0.0000000000
     21699      7233  TIP3      H2             10.2838596015       30.9900142534       15.2195653365  WZ3       3354            0.0000000000
     21700      7234  TIP3      OH2            11.6769196015       31.7922842534       -2.5075046635  WZ3       3355            0.0000000000
     21701      7234  TIP3      H1             11.9599596015       30.9978042534       -2.0548146635  WZ3       3355            0.0000000000
     21702      7234  TIP3      H2             12.4167096015       32.0253842534       -3.0683946635  WZ3       3355            0.0000000000
     21703      7235  TIP3      OH2            -1.7097203985       27.3582042534       15.2175253365  WZ3       3356            0.0000000000
     21704      7235  TIP3      H1             -1.5656703985       26.4562742534       14.9311953365  WZ3       3356            0.0000000000
     21705      7235  TIP3      H2             -2.4819803985       27.6444142534       14.7297553365  WZ3       3356            0.0000000000
     21706      7236  TIP3      OH2             2.6316496015       27.7017742534       -2.6500146635  WZ3       3357            0.0000000000
     21707      7236  TIP3      H1              2.6960596015       26.9077342534       -2.1193746635  WZ3       3357            0.0000000000
     21708      7236  TIP3      H2              3.2845696015       27.5830542534       -3.3398146635  WZ3       3357            0.0000000000
     21709      7237  TIP3      OH2             4.9458896015       27.3280142534       14.6501653365  WZ3       3358            0.0000000000
     21710      7237  TIP3      H1              4.6172696015       27.5988242534       13.7929053365  WZ3       3358            0.0000000000
     21711      7237  TIP3      H2              5.0977096015       26.3869942534       14.5626653365  WZ3       3358            0.0000000000
     21712      7238  TIP3      OH2             7.9839896015       28.7489442534       -2.9142146635  WZ3       3359            0.0000000000
     21713      7238  TIP3      H1              7.7153996015       28.9291542534       -2.0133246635  WZ3       3359            0.0000000000
     21714      7238  TIP3      H2              7.7775496015       27.8235642534       -3.0456346635  WZ3       3359            0.0000000000
     21715      7239  TIP3      OH2            10.6804096015       27.2437442534       12.0333953365  WZ3       3360            0.0000000000
     21716      7239  TIP3      H1             11.4258896015       27.8321142534       11.9137953365  WZ3       3360            0.0000000000
     21717      7239  TIP3      H2              9.9230896015       27.8257142534       12.0967053365  WZ3       3360            0.0000000000
     21718      7240  TIP3      OH2            -0.8770703985       24.5585342534       14.6374553365  WZ3       3361            0.0000000000
     21719      7240  TIP3      H1             -0.4689503985       23.7011942534       14.5165153365  WZ3       3361            0.0000000000
     21720      7240  TIP3      H2             -1.1373103985       24.5726642534       15.5584853365  WZ3       3361            0.0000000000
     21721      7241  TIP3      OH2             3.7810296015       25.6743942534       -0.3442146635  WZ3       3362            0.0000000000
     21722      7241  TIP3      H1              3.3212296015       25.1902242534        0.3416353365  WZ3       3362            0.0000000000
     21723      7241  TIP3      H2              4.0358996015       25.0059342534       -0.9801646635  WZ3       3362            0.0000000000
     21724      7242  TIP3      OH2             3.0699596015       23.5671042534       12.0117453365  WZ3       3363            0.0000000000
     21725      7242  TIP3      H1              2.4515696015       24.2417642534       12.2922153365  WZ3       3363            0.0000000000
     21726      7242  TIP3      H2              3.4140796015       23.8884942534       11.1783653365  WZ3       3363            0.0000000000
     21727      7243  TIP3      OH2             4.8520696015       23.9175742534       -2.0818946635  WZ3       3364            0.0000000000
     21728      7243  TIP3      H1              4.6715696015       23.7626942534       -3.0090646635  WZ3       3364            0.0000000000
     21729      7243  TIP3      H2              5.8021196015       24.0254442534       -2.0371046635  WZ3       3364            0.0000000000
     21730      7244  TIP3      OH2             8.0897796015       26.0386342534       15.2892253365  WZ3       3365            0.0000000000
     21731      7244  TIP3      H1              9.0428996015       26.1225442534       15.2618253365  WZ3       3365            0.0000000000
     21732      7244  TIP3      H2              7.9292396015       25.3268142534       15.9087153365  WZ3       3365            0.0000000000
     21733      7245  TIP3      OH2            14.2418996015       26.2719942534       -2.6360846635  WZ3       3366            0.0000000000
     21734      7245  TIP3      H1             13.9683796015       25.8475442534       -3.4492546635  WZ3       3366            0.0000000000
     21735      7245  TIP3      H2             14.2813096015       27.2034442534       -2.8530446635  WZ3       3366            0.0000000000
     21736      7246  TIP3      OH2             3.4093296015       20.9221842534       13.0940553365  WZ3       3367            0.0000000000
     21737      7246  TIP3      H1              3.5594196015       20.1933142534       12.4920253365  WZ3       3367            0.0000000000
     21738      7246  TIP3      H2              3.4115696015       21.6993542534       12.5352753365  WZ3       3367            0.0000000000
     21739      7247  TIP3      OH2             3.8218996015       19.2917642534       10.5867953365  WZ3       3368            0.0000000000
     21740      7247  TIP3      H1              4.3576496015       19.7434342534        9.9347253365  WZ3       3368            0.0000000000
     21741      7247  TIP3      H2              2.9698596015       19.1837442534       10.1642053365  WZ3       3368            0.0000000000
     21742      7248  TIP3      OH2             5.4037396015       24.7313842534       10.8263153365  WZ3       3369            0.0000000000
     21743      7248  TIP3      H1              6.1542196015       24.5751342534       10.2530953365  WZ3       3369            0.0000000000
     21744      7248  TIP3      H2              5.0645696015       25.5830442534       10.5508653365  WZ3       3369            0.0000000000
     21745      7249  TIP3      OH2             9.8193596015       22.5465642534       15.8548453365  WZ3       3370            0.0000000000
     21746      7249  TIP3      H1             10.0114896015       21.6155042534       15.7432953365  WZ3       3370            0.0000000000
     21747      7249  TIP3      H2             10.6769896015       22.9715142534       15.8443853365  WZ3       3370            0.0000000000
     21748      7250  TIP3      OH2            11.1360796015       25.3350842534       13.9321153365  WZ3       3371            0.0000000000
     21749      7250  TIP3      H1             10.8545796015       26.0445442534       13.3544953365  WZ3       3371            0.0000000000
     21750      7250  TIP3      H2             12.0785096015       25.2623842534       13.7812353365  WZ3       3371            0.0000000000
     21751      7251  TIP3      OH2             1.8879596015       22.1205342534       15.0056153365  WZ3       3372            0.0000000000
     21752      7251  TIP3      H1              1.1208596015       21.5880142534       14.7953753365  WZ3       3372            0.0000000000
     21753      7251  TIP3      H2              2.5668596015       21.8105742534       14.4062453365  WZ3       3372            0.0000000000
     21754      7252  TIP3      OH2             4.6274496015       16.7483342534       11.0181553365  WZ3       3373            0.0000000000
     21755      7252  TIP3      H1              4.5294096015       17.6946542534       10.9127753365  WZ3       3373            0.0000000000
     21756      7252  TIP3      H2              3.8850696015       16.3757142534       10.5425053365  WZ3       3373            0.0000000000
     21757      7253  TIP3      OH2             5.8914996015       21.0698742534       14.5819953365  WZ3       3374            0.0000000000
     21758      7253  TIP3      H1              5.6560396015       20.8505442534       15.4834853365  WZ3       3374            0.0000000000
     21759      7253  TIP3      H2              5.1081896015       20.8629942534       14.0722453365  WZ3       3374            0.0000000000
     21760      7254  TIP3      OH2             8.6071596015       20.1972242534       13.6573453365  WZ3       3375            0.0000000000
     21761      7254  TIP3      H1              7.6596996015       20.2291942534       13.7896753365  WZ3       3375            0.0000000000
     21762      7254  TIP3      H2              8.9198296015       19.5719342534       14.3111653365  WZ3       3375            0.0000000000
     21763      7255  TIP3      OH2            10.2413096015       18.8313342534       15.6625353365  WZ3       3376            0.0000000000
     21764      7255  TIP3      H1             10.1444896015       17.8790642534       15.6567253365  WZ3       3376            0.0000000000
     21765      7255  TIP3      H2              9.9196196015       19.1000142534       16.5230853365  WZ3       3376            0.0000000000
     21766      7256  TIP3      OH2             0.0682396015       20.0409142534       14.7100853365  WZ3       3377            0.0000000000
     21767      7256  TIP3      H1              0.2799796015       19.3345242534       14.0998353365  WZ3       3377            0.0000000000
     21768      7256  TIP3      H2             -0.0430103985       19.6035142534       15.5542053365  WZ3       3377            0.0000000000
     21769      7257  TIP3      OH2             4.8492596015       16.0420742534       13.6894353365  WZ3       3378            0.0000000000
     21770      7257  TIP3      H1              5.5610996015       15.4022942534       13.6753453365  WZ3       3378            0.0000000000
     21771      7257  TIP3      H2              4.7482996015       16.3089042534       12.7757453365  WZ3       3378            0.0000000000
     21772      7258  TIP3      OH2             5.2030096015       17.7249142534       15.7430653365  WZ3       3379            0.0000000000
     21773      7258  TIP3      H1              5.0712296015       17.2492942534       14.9229153365  WZ3       3379            0.0000000000
     21774      7258  TIP3      H2              4.6037496015       18.4692742534       15.6877753365  WZ3       3379            0.0000000000
     21775      7259  TIP3      OH2             4.7492396015       34.6079442534       -1.0805346635  WZ3       3380            0.0000000000
     21776      7259  TIP3      H1              5.6823096015       34.7658142534       -0.9366946635  WZ3       3380            0.0000000000
     21777      7259  TIP3      H2              4.4851196015       35.2832442534       -1.7053846635  WZ3       3380            0.0000000000
     21778      7260  TIP3      OH2            -1.6822703985       29.2443242534       -1.5977246635  WZ3       3381            0.0000000000
     21779      7260  TIP3      H1             -0.7683503985       29.3232142534       -1.3243346635  WZ3       3381            0.0000000000
     21780      7260  TIP3      H2             -1.6749603985       28.5572842534       -2.2641646635  WZ3       3381            0.0000000000
     21781      7261  TIP3      OH2            -3.0332103985       34.6371742534        3.4796653365  WZ3       3382            0.0000000000
     21782      7261  TIP3      H1             -3.6805003985       34.1753442534        2.9467853365  WZ3       3382            0.0000000000
     21783      7261  TIP3      H2             -2.6787503985       33.9655042534        4.0622853365  WZ3       3382            0.0000000000
     21784      7262  TIP3      OH2            -2.1632903985       32.7178742534        5.2842853365  WZ3       3383            0.0000000000
     21785      7262  TIP3      H1             -2.4976103985       31.8376042534        5.4563053365  WZ3       3383            0.0000000000
     21786      7262  TIP3      H2             -1.9410503985       33.0633742534        6.1488453365  WZ3       3383            0.0000000000
     21787      7263  TIP3      OH2            15.3851896015       33.5275142534        8.2647653365  WZ3       3384            0.0000000000
     21788      7263  TIP3      H1             15.3638596015       33.7123542534        9.2037053365  WZ3       3384            0.0000000000
     21789      7263  TIP3      H2             16.0758096015       34.0959142534        7.9239053365  WZ3       3384            0.0000000000
     21790      7264  TIP3      OH2            14.9484796015       33.0946242534       11.1866753365  WZ3       3385            0.0000000000
     21791      7264  TIP3      H1             14.4613496015       32.3590342534       10.8154153365  WZ3       3385            0.0000000000
     21792      7264  TIP3      H2             15.4977496015       32.7010142534       11.8646153365  WZ3       3385            0.0000000000
     21793      7265  TIP3      OH2            13.3992096015       28.8844342534       15.8247053365  WZ3       3386            0.0000000000
     21794      7265  TIP3      H1             12.5333196015       28.7794042534       16.2189353365  WZ3       3386            0.0000000000
     21795      7265  TIP3      H2             13.7757996015       29.6427642534       16.2711753365  WZ3       3386            0.0000000000
     21796      7266  TIP3      OH2            14.7001796015       27.1408042534        1.3389553365  WZ3       3387            0.0000000000
     21797      7266  TIP3      H1             15.5503196015       27.5618942534        1.4661153365  WZ3       3387            0.0000000000
     21798      7266  TIP3      H2             14.7056896015       26.4008142534        1.9460953365  WZ3       3387            0.0000000000
     21799      7267  TIP3      OH2            15.0947396015       25.1945442534        3.1625253365  WZ3       3388            0.0000000000
     21800      7267  TIP3      H1             14.3681996015       24.7148042534        3.5602853365  WZ3       3388            0.0000000000
     21801      7267  TIP3      H2             15.6760696015       25.4000142534        3.8946853365  WZ3       3388            0.0000000000
     21802      7268  TIP3      OH2            14.8538596015       27.9792942534        8.1102853365  WZ3       3389            0.0000000000
     21803      7268  TIP3      H1             15.6872796015       27.6012942534        7.8296453365  WZ3       3389            0.0000000000
     21804      7268  TIP3      H2             14.9658896015       28.9224142534        7.9911953365  WZ3       3389            0.0000000000
     21805      7269  TIP3      OH2            13.3400896015       30.8570442534       10.4171253365  WZ3       3390            0.0000000000
     21806      7269  TIP3      H1             12.6926196015       31.1821942534       11.0426453365  WZ3       3390            0.0000000000
     21807      7269  TIP3      H2             12.8224896015       30.4168142534        9.7429553365  WZ3       3390            0.0000000000
     21808      7270  TIP3      OH2            15.3630496015       25.0953942534       -0.4463446635  WZ3       3391            0.0000000000
     21809      7270  TIP3      H1             14.8411596015       25.4518042534       -1.1652546635  WZ3       3391            0.0000000000
     21810      7270  TIP3      H2             15.3299696015       25.7701742534        0.2317453365  WZ3       3391            0.0000000000
     21811      7271  TIP3      OH2            13.7119496015       22.3349542534       -1.8956346635  WZ3       3392            0.0000000000
     21812      7271  TIP3      H1             13.8083896015       23.0016542534       -2.5756646635  WZ3       3392            0.0000000000
     21813      7271  TIP3      H2             13.5719096015       21.5195842534       -2.3770846635  WZ3       3392            0.0000000000
     21814      7272  TIP3      OH2            12.8814196015       23.7151942534        3.7253953365  WZ3       3393            0.0000000000
     21815      7272  TIP3      H1             12.7312996015       22.7700542534        3.7051753365  WZ3       3393            0.0000000000
     21816      7272  TIP3      H2             12.5278696015       23.9963342534        4.5693053365  WZ3       3393            0.0000000000
     21817      7273  TIP3      OH2            -2.0833403985       25.7934142534        7.7357753365  WZ3       3394            0.0000000000
     21818      7273  TIP3      H1             -1.8990503985       25.7115842534        6.8000653365  WZ3       3394            0.0000000000
     21819      7273  TIP3      H2             -1.2340503985       25.6691142534        8.1594153365  WZ3       3394            0.0000000000
     21820      7274  TIP3      OH2            13.7377096015       25.6855242534       13.3642253365  WZ3       3395            0.0000000000
     21821      7274  TIP3      H1             14.3204396015       24.9507542534       13.5559453365  WZ3       3395            0.0000000000
     21822      7274  TIP3      H2             14.3016396015       26.4575542534       13.4108053365  WZ3       3395            0.0000000000
     21823      7275  TIP3      OH2            15.2344196015       23.5881042534       14.0487653365  WZ3       3396            0.0000000000
     21824      7275  TIP3      H1             14.3710896015       23.2093142534       13.8832353365  WZ3       3396            0.0000000000
     21825      7275  TIP3      H2             15.8387896015       22.8495842534       13.9743453365  WZ3       3396            0.0000000000
     21826      7276  TIP3      OH2            12.9593296015       19.7429342534       -2.7780846635  WZ3       3397            0.0000000000
     21827      7276  TIP3      H1             13.5699096015       19.3716142534       -2.1412646635  WZ3       3397            0.0000000000
     21828      7276  TIP3      H2             12.1224796015       19.3216242534       -2.5820846635  WZ3       3397            0.0000000000
     21829      7277  TIP3      OH2            12.5918996015       21.2977742534        2.1879053365  WZ3       3398            0.0000000000
     21830      7277  TIP3      H1             12.8716096015       20.3908142534        2.3120753365  WZ3       3398            0.0000000000
     21831      7277  TIP3      H2             13.3510696015       21.7319242534        1.7988253365  WZ3       3398            0.0000000000
     21832      7278  TIP3      OH2            13.2037296015       21.8795142534        7.6237953365  WZ3       3399            0.0000000000
     21833      7278  TIP3      H1             14.1365296015       22.0915042534        7.5893953365  WZ3       3399            0.0000000000
     21834      7278  TIP3      H2             12.9684796015       21.9807242534        8.5460953365  WZ3       3399            0.0000000000
     21835      7279  TIP3      OH2            13.2329196015       22.6160442534       10.3997353365  WZ3       3400            0.0000000000
     21836      7279  TIP3      H1             12.3900496015       22.8840842534       10.7657153365  WZ3       3400            0.0000000000
     21837      7279  TIP3      H2             13.6753496015       23.4382342534       10.1888453365  WZ3       3400            0.0000000000
     21838      7280  TIP3      OH2            -2.4858603985       21.0639142534       13.8766553365  WZ3       3401            0.0000000000
     21839      7280  TIP3      H1             -1.5663703985       20.9417442534       14.1129653365  WZ3       3401            0.0000000000
     21840      7280  TIP3      H2             -2.9354103985       20.3138842534       14.2660053365  WZ3       3401            0.0000000000
     21841      7281  TIP3      OH2            15.5160796015       16.5960642534       15.7532353365  WZ3       3402            0.0000000000
     21842      7281  TIP3      H1             15.8657796015       15.9424142534       15.1477053365  WZ3       3402            0.0000000000
     21843      7281  TIP3      H2             15.6630296015       17.4334742534       15.3134953365  WZ3       3402            0.0000000000
     21844      7282  TIP3      OH2            13.2053796015       18.5607042534        2.2361053365  WZ3       3403            0.0000000000
     21845      7282  TIP3      H1             13.3878796015       18.1118542534        3.0616053365  WZ3       3403            0.0000000000
     21846      7282  TIP3      H2             12.6056696015       17.9761442534        1.7725653365  WZ3       3403            0.0000000000
     21847      7283  TIP3      OH2            -1.2646103985       19.3760742534        6.7679453365  WZ3       3404            0.0000000000
     21848      7283  TIP3      H1             -0.8194503985       18.5843242534        7.0699153365  WZ3       3404            0.0000000000
     21849      7283  TIP3      H2             -0.7983103985       20.0925942534        7.1985053365  WZ3       3404            0.0000000000
     21850      7284  TIP3      OH2            -2.9605803985       22.3753742534        7.8369653365  WZ3       3405            0.0000000000
     21851      7284  TIP3      H1             -2.4686003985       22.1544242534        7.0461653365  WZ3       3405            0.0000000000
     21852      7284  TIP3      H2             -2.5984903985       23.2157142534        8.1179153365  WZ3       3405            0.0000000000
     21853      7285  TIP3      OH2            15.0357996015       18.7055242534       14.1023653365  WZ3       3406            0.0000000000
     21854      7285  TIP3      H1             14.1183696015       18.9762342534       14.0667153365  WZ3       3406            0.0000000000
     21855      7285  TIP3      H2             15.1587396015       18.1703642534       13.3183353365  WZ3       3406            0.0000000000
     21856      7286  TIP3      OH2            15.0719996015       18.6285142534       -1.2358646635  WZ3       3407            0.0000000000
     21857      7286  TIP3      H1             15.4842596015       17.9070842534       -1.7110646635  WZ3       3407            0.0000000000
     21858      7286  TIP3      H2             15.7536496015       19.2979742534       -1.1774346635  WZ3       3407            0.0000000000
     21859      7287  TIP3      OH2            -2.6469303985       18.6332842534        1.8912053365  WZ3       3408            0.0000000000
     21860      7287  TIP3      H1             -3.5720903985       18.8419442534        1.7617553365  WZ3       3408            0.0000000000
     21861      7287  TIP3      H2             -2.1929403985       19.1173642534        1.2014353365  WZ3       3408            0.0000000000
     21862      7288  TIP3      OH2            12.1237896015       33.6174542534        3.8369453365  WZ3       3409            0.0000000000
     21863      7288  TIP3      H1             12.7760796015       33.2696642534        3.2288553365  WZ3       3409            0.0000000000
     21864      7288  TIP3      H2             12.6341696015       34.1057742534        4.4829153365  WZ3       3409            0.0000000000
     21865      7289  TIP3      OH2            -2.6833903985       17.3711842534       10.2354553365  WZ3       3410            0.0000000000
     21866      7289  TIP3      H1             -3.3483403985       17.1252142534       10.8785453365  WZ3       3410            0.0000000000
     21867      7289  TIP3      H2             -3.1262603985       17.9932242534        9.6582553365  WZ3       3410            0.0000000000
     21868      7290  TIP3      OH2            -0.4914603985       30.5465942534       14.3800353365  WZ3       3411            0.0000000000
     21869      7290  TIP3      H1             -1.3122103985       30.7212442534       13.9195053365  WZ3       3411            0.0000000000
     21870      7290  TIP3      H2             -0.7436803985       30.4730642534       15.3004753365  WZ3       3411            0.0000000000
     21871      7291  TIP3      OH2             2.4628296015       31.5207142534       10.6384353365  WZ3       3412            0.0000000000
     21872      7291  TIP3      H1              2.0379396015       32.3305642534       10.3558953365  WZ3       3412            0.0000000000
     21873      7291  TIP3      H2              3.3671096015       31.6061242534       10.3364153365  WZ3       3412            0.0000000000
     21874      7292  TIP3      OH2             6.7739696015       32.9197142534       13.5978053365  WZ3       3413            0.0000000000
     21875      7292  TIP3      H1              6.9587196015       32.5863242534       14.4758353365  WZ3       3413            0.0000000000
     21876      7292  TIP3      H2              7.6204196015       33.2295742534       13.2757253365  WZ3       3413            0.0000000000
     21877      7293  TIP3      OH2             9.1190096015       34.2056042534       12.8419453365  WZ3       3414            0.0000000000
     21878      7293  TIP3      H1              9.7958996015       33.5728342534       12.6018653365  WZ3       3414            0.0000000000
     21879      7293  TIP3      H2              9.4408896015       34.6066542534       13.6492753365  WZ3       3414            0.0000000000
     21880      7294  TIP3      OH2            14.0363896015       16.7951542534       11.9214453365  WZ3       3415            0.0000000000
     21881      7294  TIP3      H1             13.2237396015       17.1201842534       11.5339153365  WZ3       3415            0.0000000000
     21882      7294  TIP3      H2             14.2692396015       16.0350042534       11.3883553365  WZ3       3415            0.0000000000
     21883      7295  TIP3      OH2            -0.1355003985       34.7771042534       10.6859653365  WZ3       3416            0.0000000000
     21884      7295  TIP3      H1             -0.8558603985       35.2172042534       10.2347353365  WZ3       3416            0.0000000000
     21885      7295  TIP3      H2             -0.5011003985       34.5265742534       11.5343653365  WZ3       3416            0.0000000000
     21886      7296  TIP3      OH2             2.3317596015       34.3774942534        9.7156853365  WZ3       3417            0.0000000000
     21887      7296  TIP3      H1              1.4669796015       34.4493442534       10.1196953365  WZ3       3417            0.0000000000
     21888      7296  TIP3      H2              2.2766596015       34.9242242534        8.9319353365  WZ3       3417            0.0000000000
     21889      7297  TIP3      OH2             7.0423196015       34.2653842534        8.8912853365  WZ3       3418            0.0000000000
     21890      7297  TIP3      H1              6.5857196015       34.7943542534        8.2371253365  WZ3       3418            0.0000000000
     21891      7297  TIP3      H2              7.2051196015       34.8685242534        9.6165153365  WZ3       3418            0.0000000000
     21892      7298  TIP3      OH2             9.3699496015       33.1433442534        9.8363153365  WZ3       3419            0.0000000000
     21893      7298  TIP3      H1              8.4653196015       33.3083642534        9.5705253365  WZ3       3419            0.0000000000
     21894      7298  TIP3      H2              9.7988096015       33.9965642534        9.7706553365  WZ3       3419            0.0000000000
     21895      7299  TIP3      OH2            11.9741396015       34.7132542534       10.1310953365  WZ3       3420            0.0000000000
     21896      7299  TIP3      H1             11.7923396015       35.6291442534        9.9205853365  WZ3       3420            0.0000000000
     21897      7299  TIP3      H2             12.1509196015       34.3029642534        9.2845553365  WZ3       3420            0.0000000000
     21898      7300  TIP3      OH2            -0.7206903985       33.4003542534        7.5961453365  WZ3       3421            0.0000000000
     21899      7300  TIP3      H1             -0.7390903985       32.9748642534        8.4533753365  WZ3       3421            0.0000000000
     21900      7300  TIP3      H2              0.0840996015       33.0818542534        7.1873653365  WZ3       3421            0.0000000000
     21901      7301  TIP3      OH2             1.4206196015       32.1102242534        6.2511353365  WZ3       3422            0.0000000000
     21902      7301  TIP3      H1              1.2016896015       31.1939642534        6.4207353365  WZ3       3422            0.0000000000
     21903      7301  TIP3      H2              2.2448396015       32.2502642534        6.7172753365  WZ3       3422            0.0000000000
     21904      7302  TIP3      OH2             3.9578696015       32.5801542534        7.0999353365  WZ3       3423            0.0000000000
     21905      7302  TIP3      H1              4.1704396015       31.6920542534        6.8130253365  WZ3       3423            0.0000000000
     21906      7302  TIP3      H2              4.0223796015       32.5459242534        8.0543353365  WZ3       3423            0.0000000000
     21907      7303  TIP3      OH2             7.4662396015       18.2442142534        6.2442653365  WZ3       3424            0.0000000000
     21908      7303  TIP3      H1              6.7919196015       17.6147742534        6.4998453365  WZ3       3424            0.0000000000
     21909      7303  TIP3      H2              8.0301596015       17.7601042534        5.6410553365  WZ3       3424            0.0000000000
     21910      7304  TIP3      OH2            12.6089596015       16.3516142534        6.3569753365  WZ3       3425            0.0000000000
     21911      7304  TIP3      H1             13.2127196015       16.8991542534        5.8550753365  WZ3       3425            0.0000000000
     21912      7304  TIP3      H2             11.7391596015       16.6706542534        6.1163853365  WZ3       3425            0.0000000000
     21913      7305  TIP3      OH2            14.3359996015       17.4904842534        4.6900653365  WZ3       3426            0.0000000000
     21914      7305  TIP3      H1             14.9477496015       16.9760542534        4.1634253365  WZ3       3426            0.0000000000
     21915      7305  TIP3      H2             14.7183396015       18.3676942534        4.7135053365  WZ3       3426            0.0000000000
     21916      7306  TIP3      OH2            -0.2070103985       16.8782442534        4.0662553365  WZ3       3427            0.0000000000
     21917      7306  TIP3      H1             -0.9840303985       16.6437342534        3.5588453365  WZ3       3427            0.0000000000
     21918      7306  TIP3      H2              0.3233496015       16.0814542534        4.0750553365  WZ3       3427            0.0000000000
     21919      7307  TIP3      OH2            -1.3706703985       16.6760542534       -0.1301346635  WZ3       3428            0.0000000000
     21920      7307  TIP3      H1             -0.9316003985       17.2871042534       -0.7217846635  WZ3       3428            0.0000000000
     21921      7307  TIP3      H2             -2.0044303985       17.2144642534        0.3438653365  WZ3       3428            0.0000000000
     21922      7308  TIP3      OH2             4.3722496015       16.8049542534        3.8795653365  WZ3       3429            0.0000000000
     21923      7308  TIP3      H1              5.2465896015       17.1933842534        3.8499953365  WZ3       3429            0.0000000000
     21924      7308  TIP3      H2              4.2363296015       16.5897342534        4.8022853365  WZ3       3429            0.0000000000
     21925      7309  TIP3      OH2             9.9290896015       16.8349342534        5.5287353365  WZ3       3430            0.0000000000
     21926      7309  TIP3      H1             10.0052496015       16.9300942534        4.5793353365  WZ3       3430            0.0000000000
     21927      7309  TIP3      H2              9.6540096015       15.9272242534        5.6576453365  WZ3       3430            0.0000000000
     21928      7310  TIP3      OH2            11.2823496015       16.8607142534        1.2212353365  WZ3       3431            0.0000000000
     21929      7310  TIP3      H1             10.5794596015       17.4756342534        1.0113753365  WZ3       3431            0.0000000000
     21930      7310  TIP3      H2             10.8374896015       16.0233842534        1.3523253365  WZ3       3431            0.0000000000
     21931      7311  TIP3      OH2            -1.4697203985       32.6242742534        0.7673753365  WZ3       3432            0.0000000000
     21932      7311  TIP3      H1             -2.1547303985       32.5861642534        0.0998853365  WZ3       3432            0.0000000000
     21933      7311  TIP3      H2             -1.4660003985       33.5370342534        1.0555853365  WZ3       3432            0.0000000000
     21934      7312  TIP3      OH2             0.4902396015       18.5922042534       -1.6877246635  WZ3       3433            0.0000000000
     21935      7312  TIP3      H1              0.9815796015       17.9624442534       -2.2151746635  WZ3       3433            0.0000000000
     21936      7312  TIP3      H2              1.1138696015       18.8881442534       -1.0246046635  WZ3       3433            0.0000000000
     21937      7313  TIP3      OH2             5.5162496015       18.8853542534        0.7693253365  WZ3       3434            0.0000000000
     21938      7313  TIP3      H1              5.6943796015       18.2386742534        1.4521853365  WZ3       3434            0.0000000000
     21939      7313  TIP3      H2              5.4628696015       19.7191242534        1.2364353365  WZ3       3434            0.0000000000
     21940      7314  TIP3      OH2             7.3946296015       33.8337642534       -0.8350046635  WZ3       3435            0.0000000000
     21941      7314  TIP3      H1              8.2606496015       34.2005042534       -1.0131846635  WZ3       3435            0.0000000000
     21942      7314  TIP3      H2              7.1479096015       33.3945642534       -1.6489246635  WZ3       3435            0.0000000000
     21943      7315  TIP3      OH2            14.1035896015       33.3967942534        1.8441053365  WZ3       3436            0.0000000000
     21944      7315  TIP3      H1             13.9092996015       32.6490042534        1.2790653365  WZ3       3436            0.0000000000
     21945      7315  TIP3      H2             14.0645996015       34.1548042534        1.2608953365  WZ3       3436            0.0000000000
     21946      7316  TIP3      OH2            -0.2492103985       17.3924342534       13.5838753365  WZ3       3437            0.0000000000
     21947      7316  TIP3      H1             -0.6153903985       16.6266942534       14.0263453365  WZ3       3437            0.0000000000
     21948      7316  TIP3      H2              0.6636396015       17.4214542534       13.8703853365  WZ3       3437            0.0000000000
     21949      7317  TIP3      OH2             1.7238696015       16.7428742534       15.1195853365  WZ3       3438            0.0000000000
     21950      7317  TIP3      H1              2.6222296015       16.4688942534       14.9349253365  WZ3       3438            0.0000000000
     21951      7317  TIP3      H2              1.3371796015       16.0004742534       15.5838453365  WZ3       3438            0.0000000000
     21952      7318  TIP3      OH2             0.3483996015       33.5443542534       -2.2074146635  WZ3       3439            0.0000000000
     21953      7318  TIP3      H1              0.0808596015       33.8306442534       -1.3341046635  WZ3       3439            0.0000000000
     21954      7318  TIP3      H2              1.1196596015       32.9982742534       -2.0551646635  WZ3       3439            0.0000000000
     21955      7319  TIP3      OH2            10.1450996015       16.0754042534       15.3018653365  WZ3       3440            0.0000000000
     21956      7319  TIP3      H1             10.2218196015       15.6494742534       16.1556353365  WZ3       3440            0.0000000000
     21957      7319  TIP3      H2             11.0387596015       16.0888742534       14.9592153365  WZ3       3440            0.0000000000
     21958      7320  TIP3      OH2            13.3212096015       32.1480342534       13.9942853365  WZ3       3441            0.0000000000
     21959      7320  TIP3      H1             12.5393996015       31.9618342534       13.4743453365  WZ3       3441            0.0000000000
     21960      7320  TIP3      H2             13.2491996015       33.0774642534       14.2115353365  WZ3       3441            0.0000000000
     21961      7321  TIP3      OH2            27.7272496015       26.0344742534        4.0250053365  WZ3       3442            0.0000000000
     21962      7321  TIP3      H1             27.8163596015       26.9782942534        3.8927153365  WZ3       3442            0.0000000000
     21963      7321  TIP3      H2             27.0890096015       25.7591142534        3.3669453365  WZ3       3442            0.0000000000
     21964      7322  TIP3      OH2            26.6603796015       25.2895442534        7.4438253365  WZ3       3443            0.0000000000
     21965      7322  TIP3      H1             26.6221296015       24.6431742534        8.1487853365  WZ3       3443            0.0000000000
     21966      7322  TIP3      H2             26.3380296015       24.8229842534        6.6726953365  WZ3       3443            0.0000000000
     21967      7323  TIP3      OH2            19.0288796015       24.9037542534        9.0368153365  WZ3       3444            0.0000000000
     21968      7323  TIP3      H1             19.0700896015       24.2780842534        9.7600553365  WZ3       3444            0.0000000000
     21969      7323  TIP3      H2             19.7316496015       25.5276142534        9.2188553365  WZ3       3444            0.0000000000
     21970      7324  TIP3      OH2            30.3663996015       28.2285842534        5.7453353365  WZ3       3445            0.0000000000
     21971      7324  TIP3      H1             29.9256696015       27.5081842534        6.1958953365  WZ3       3445            0.0000000000
     21972      7324  TIP3      H2             30.3533696015       28.9493042534        6.3751053365  WZ3       3445            0.0000000000
     21973      7325  TIP3      OH2            19.9521896015       29.3536442534        7.5717253365  WZ3       3446            0.0000000000
     21974      7325  TIP3      H1             19.5827096015       28.5516942534        7.2021553365  WZ3       3446            0.0000000000
     21975      7325  TIP3      H2             20.8932996015       29.1851342534        7.6180653365  WZ3       3446            0.0000000000
     21976      7326  TIP3      OH2            16.5622396015       23.0139042534        2.9646053365  WZ3       3447            0.0000000000
     21977      7326  TIP3      H1             16.1145796015       23.8597742534        2.9462553365  WZ3       3447            0.0000000000
     21978      7326  TIP3      H2             16.0013596015       22.4343242534        2.4491153365  WZ3       3447            0.0000000000
     21979      7327  TIP3      OH2            17.2728496015       25.1758642534        5.0904053365  WZ3       3448            0.0000000000
     21980      7327  TIP3      H1             17.4861996015       24.4060242534        5.6177053365  WZ3       3448            0.0000000000
     21981      7327  TIP3      H2             18.0106096015       25.2655342534        4.4871653365  WZ3       3448            0.0000000000
     21982      7328  TIP3      OH2            27.4779496015       33.3327542534        5.9573753365  WZ3       3449            0.0000000000
     21983      7328  TIP3      H1             28.0975896015       32.6562242534        5.6842953365  WZ3       3449            0.0000000000
     21984      7328  TIP3      H2             27.2696896015       33.1148342534        6.8658653365  WZ3       3449            0.0000000000
     21985      7329  TIP3      OH2            25.0498196015       27.7216842534        7.8499253365  WZ3       3450            0.0000000000
     21986      7329  TIP3      H1             25.3536096015       27.0358242534        7.2553353365  WZ3       3450            0.0000000000
     21987      7329  TIP3      H2             25.7712196015       27.8405542534        8.4677253365  WZ3       3450            0.0000000000
     21988      7330  TIP3      OH2            33.7127996015       19.3232142534        8.7105453365  WZ3       3451            0.0000000000
     21989      7330  TIP3      H1             33.7620196015       19.9333342534        9.4464553365  WZ3       3451            0.0000000000
     21990      7330  TIP3      H2             34.1383096015       19.7843042534        7.9876553365  WZ3       3451            0.0000000000
     21991      7331  TIP3      OH2            28.1905196015       22.1159242534        8.1774053365  WZ3       3452            0.0000000000
     21992      7331  TIP3      H1             28.3331096015       21.1696242534        8.1975653365  WZ3       3452            0.0000000000
     21993      7331  TIP3      H2             28.0844196015       22.3229042534        7.2488953365  WZ3       3452            0.0000000000
     21994      7332  TIP3      OH2            21.3453496015       20.2175642534        5.4498853365  WZ3       3453            0.0000000000
     21995      7332  TIP3      H1             21.3884596015       21.0774142534        5.0315153365  WZ3       3453            0.0000000000
     21996      7332  TIP3      H2             20.8877596015       19.6650342534        4.8162053365  WZ3       3453            0.0000000000
     21997      7333  TIP3      OH2            29.0676196015       20.3481242534        3.8507153365  WZ3       3454            0.0000000000
     21998      7333  TIP3      H1             29.7140496015       20.0194442534        4.4754753365  WZ3       3454            0.0000000000
     21999      7333  TIP3      H2             29.5775596015       20.8660242534        3.2278553365  WZ3       3454            0.0000000000
     22000      7334  TIP3      OH2            17.9654996015       22.6141442534        6.2120253365  WZ3       3455            0.0000000000
     22001      7334  TIP3      H1             18.6191596015       22.0643142534        6.6440353365  WZ3       3455            0.0000000000
     22002      7334  TIP3      H2             17.9894296015       22.3400442534        5.2952253365  WZ3       3455            0.0000000000
     22003      7335  TIP3      OH2            23.1219496015       24.1642742534        5.4271753365  WZ3       3456            0.0000000000
     22004      7335  TIP3      H1             23.7380496015       23.6378142534        5.9365753365  WZ3       3456            0.0000000000
     22005      7335  TIP3      H2             22.5358296015       23.5241442534        5.0235353365  WZ3       3456            0.0000000000
     22006      7336  TIP3      OH2            34.1042596015       20.8011342534       10.9465253365  WZ3       3457            0.0000000000
     22007      7336  TIP3      H1             33.4157196015       21.4592042534       10.8511853365  WZ3       3457            0.0000000000
     22008      7336  TIP3      H2             34.1197196015       20.6039242534       11.8830653365  WZ3       3457            0.0000000000
     22009      7337  TIP3      OH2            20.1555396015       19.1354042534        9.5239653365  WZ3       3458            0.0000000000
     22010      7337  TIP3      H1             19.9367096015       19.6654642534        8.7575653365  WZ3       3458            0.0000000000
     22011      7337  TIP3      H2             19.4876296015       19.3619542534       10.1711053365  WZ3       3458            0.0000000000
     22012      7338  TIP3      OH2            27.5245196015       28.6355142534        3.0678753365  WZ3       3459            0.0000000000
     22013      7338  TIP3      H1             27.2290296015       28.3127442534        2.2165653365  WZ3       3459            0.0000000000
     22014      7338  TIP3      H2             27.2002996015       29.5351842534        3.1091353365  WZ3       3459            0.0000000000
     22015      7339  TIP3      OH2            22.7246796015       26.8109742534        9.8113353365  WZ3       3460            0.0000000000
     22016      7339  TIP3      H1             21.9845896015       27.4091242534        9.9148553365  WZ3       3460            0.0000000000
     22017      7339  TIP3      H2             23.4386296015       27.3649342534        9.4956953365  WZ3       3460            0.0000000000
     22018      7340  TIP3      OH2            30.8314596015       19.6390542534        5.8313053365  WZ3       3461            0.0000000000
     22019      7340  TIP3      H1             30.6162596015       18.8733942534        6.3639053365  WZ3       3461            0.0000000000
     22020      7340  TIP3      H2             31.4871996015       20.1115142534        6.3441553365  WZ3       3461            0.0000000000
     22021      7341  TIP3      OH2            19.7492696015       21.0275842534        7.4761853365  WZ3       3462            0.0000000000
     22022      7341  TIP3      H1             20.3628996015       21.6603442534        7.8494253365  WZ3       3462            0.0000000000
     22023      7341  TIP3      H2             20.2613396015       20.5550842534        6.8198753365  WZ3       3462            0.0000000000
     22024      7342  TIP3      OH2            21.1321096015       28.7752742534       10.5984853365  WZ3       3463            0.0000000000
     22025      7342  TIP3      H1             21.1268696015       29.6546242534       10.2204153365  WZ3       3463            0.0000000000
     22026      7342  TIP3      H2             20.2785196015       28.6916842534       11.0234753365  WZ3       3463            0.0000000000
     22027      7343  TIP3      OH2            17.2531996015       28.4460642534        1.3804153365  WZ3       3464            0.0000000000
     22028      7343  TIP3      H1             16.9812896015       28.6751642534        0.4917053365  WZ3       3464            0.0000000000
     22029      7343  TIP3      H2             17.2987696015       29.2839442534        1.8409453365  WZ3       3464            0.0000000000
     22030      7344  TIP3      OH2            30.8781696015       30.0676542534        8.0932653365  WZ3       3465            0.0000000000
     22031      7344  TIP3      H1             29.9365396015       30.1260442534        8.2549553365  WZ3       3465            0.0000000000
     22032      7344  TIP3      H2             31.1547796015       30.9737042534        7.9562353365  WZ3       3465            0.0000000000
     22033      7345  TIP3      OH2            31.1788696015       18.3541842534        9.5106553365  WZ3       3466            0.0000000000
     22034      7345  TIP3      H1             30.4427896015       18.9648942534        9.4727853365  WZ3       3466            0.0000000000
     22035      7345  TIP3      H2             31.8622696015       18.7690842534        8.9842953365  WZ3       3466            0.0000000000
     22036      7346  TIP3      OH2            24.1820096015       16.4409142534        6.9764553365  WZ3       3467            0.0000000000
     22037      7346  TIP3      H1             24.0644296015       15.4925142534        6.9222853365  WZ3       3467            0.0000000000
     22038      7346  TIP3      H2             23.3270196015       16.7735242534        7.2495653365  WZ3       3467            0.0000000000
     22039      7347  TIP3      OH2            29.1302896015       31.8490042534        4.7184253365  WZ3       3468            0.0000000000
     22040      7347  TIP3      H1             29.5555196015       31.1417942534        4.2333853365  WZ3       3468            0.0000000000
     22041      7347  TIP3      H2             29.4472896015       32.6502742534        4.3016453365  WZ3       3468            0.0000000000
     22042      7348  TIP3      OH2            30.2899396015       29.7498542534        3.2270853365  WZ3       3469            0.0000000000
     22043      7348  TIP3      H1             30.0324196015       29.0598642534        2.6156753365  WZ3       3469            0.0000000000
     22044      7348  TIP3      H2             30.3610196015       29.3069742534        4.0726753365  WZ3       3469            0.0000000000
     22045      7349  TIP3      OH2            31.9759596015       28.3165242534       11.7044353365  WZ3       3470            0.0000000000
     22046      7349  TIP3      H1             32.1155896015       27.7247742534       10.9651353365  WZ3       3470            0.0000000000
     22047      7349  TIP3      H2             32.1432396015       29.1891142534       11.3483153365  WZ3       3470            0.0000000000
     22048      7350  TIP3      OH2            26.4484996015       25.2784742534        1.4770353365  WZ3       3471            0.0000000000
     22049      7350  TIP3      H1             25.7370496015       25.8134442534        1.1250853365  WZ3       3471            0.0000000000
     22050      7350  TIP3      H2             27.1394596015       25.3336842534        0.8169253365  WZ3       3471            0.0000000000
     22051      7351  TIP3      OH2            26.5024196015       23.7359042534       -1.4844646635  WZ3       3472            0.0000000000
     22052      7351  TIP3      H1             27.2034096015       23.7585942534       -0.8330646635  WZ3       3472            0.0000000000
     22053      7351  TIP3      H2             26.8047096015       23.1078742534       -2.1405346635  WZ3       3472            0.0000000000
     22054      7352  TIP3      OH2            33.8178896015       24.6563242534        9.7704753365  WZ3       3473            0.0000000000
     22055      7352  TIP3      H1             33.1652996015       25.3508842534        9.8595653365  WZ3       3473            0.0000000000
     22056      7352  TIP3      H2             34.2829196015       24.8664142534        8.9606353365  WZ3       3473            0.0000000000
     22057      7353  TIP3      OH2            29.8542696015       25.4878042534        2.4286253365  WZ3       3474            0.0000000000
     22058      7353  TIP3      H1             29.1223696015       25.7161742534        3.0016853365  WZ3       3474            0.0000000000
     22059      7353  TIP3      H2             30.3014896015       24.7740742534        2.8833753365  WZ3       3474            0.0000000000
     22060      7354  TIP3      OH2            29.7516196015       23.6620642534       11.4963253365  WZ3       3475            0.0000000000
     22061      7354  TIP3      H1             29.8315296015       24.4255042534       12.0681753365  WZ3       3475            0.0000000000
     22062      7354  TIP3      H2             29.1503896015       23.9413042534       10.8058353365  WZ3       3475            0.0000000000
     22063      7355  TIP3      OH2            21.4996396015       26.1184242534        4.3111253365  WZ3       3476            0.0000000000
     22064      7355  TIP3      H1             21.1691596015       25.7477642534        3.4928253365  WZ3       3476            0.0000000000
     22065      7355  TIP3      H2             22.0880496015       25.4478242534        4.6579553365  WZ3       3476            0.0000000000
     22066      7356  TIP3      OH2            22.8663896015       29.5464842534        6.9923453365  WZ3       3477            0.0000000000
     22067      7356  TIP3      H1             22.7715196015       28.9677942534        6.2358053365  WZ3       3477            0.0000000000
     22068      7356  TIP3      H2             23.5957496015       29.1750542534        7.4886253365  WZ3       3477            0.0000000000
     22069      7357  TIP3      OH2            21.8661896015       24.8869842534        7.9446253365  WZ3       3478            0.0000000000
     22070      7357  TIP3      H1             22.4314396015       25.0084042534        7.1817453365  WZ3       3478            0.0000000000
     22071      7357  TIP3      H2             22.1850796015       25.5244842534        8.5834753365  WZ3       3478            0.0000000000
     22072      7358  TIP3      OH2            28.1754096015       30.3901742534        8.6786753365  WZ3       3479            0.0000000000
     22073      7358  TIP3      H1             27.9350696015       31.0524842534        9.3265953365  WZ3       3479            0.0000000000
     22074      7358  TIP3      H2             27.9772296015       29.5556942534        9.1036353365  WZ3       3479            0.0000000000
     22075      7359  TIP3      OH2            22.7462596015       29.2862542534       12.6618153365  WZ3       3480            0.0000000000
     22076      7359  TIP3      H1             22.4350096015       30.0685742534       13.1171353365  WZ3       3480            0.0000000000
     22077      7359  TIP3      H2             22.0962796015       29.1331642534       11.9760153365  WZ3       3480            0.0000000000
     22078      7360  TIP3      OH2            28.7252196015       24.6500942534        0.1137453365  WZ3       3481            0.0000000000
     22079      7360  TIP3      H1             29.3047696015       24.8001242534        0.8606353365  WZ3       3481            0.0000000000
     22080      7360  TIP3      H2             29.1392196015       25.1208342534       -0.6096146635  WZ3       3481            0.0000000000
     22081      7361  TIP3      OH2            19.6662496015       25.4843642534       11.8903853365  WZ3       3482            0.0000000000
     22082      7361  TIP3      H1             19.7365696015       26.1350442534       12.5888853365  WZ3       3482            0.0000000000
     22083      7361  TIP3      H2             18.7754696015       25.5871142534       11.5554753365  WZ3       3482            0.0000000000
     22084      7362  TIP3      OH2            26.4517096015       31.3869442534        3.5490553365  WZ3       3483            0.0000000000
     22085      7362  TIP3      H1             26.9254696015       31.6825742534        4.3264753365  WZ3       3483            0.0000000000
     22086      7362  TIP3      H2             25.8886396015       32.1251042534        3.3160153365  WZ3       3483            0.0000000000
     22087      7363  TIP3      OH2            20.9858496015       31.3577542534       13.4251953365  WZ3       3484            0.0000000000
     22088      7363  TIP3      H1             20.9933796015       31.2217242534       12.4777453365  WZ3       3484            0.0000000000
     22089      7363  TIP3      H2             20.0698896015       31.2405642534       13.6771953365  WZ3       3484            0.0000000000
     22090      7364  TIP3      OH2            32.4240596015       16.4001342534       -0.0732846635  WZ3       3485            0.0000000000
     22091      7364  TIP3      H1             31.5241296015       16.5390342534        0.2217753365  WZ3       3485            0.0000000000
     22092      7364  TIP3      H2             32.6758996015       17.2315942534       -0.4751146635  WZ3       3485            0.0000000000
     22093      7365  TIP3      OH2            20.4899096015       25.1878542534        1.9004053365  WZ3       3486            0.0000000000
     22094      7365  TIP3      H1             20.1980396015       25.9560242534        1.4095353365  WZ3       3486            0.0000000000
     22095      7365  TIP3      H2             19.8154296015       24.5284742534        1.7375453365  WZ3       3486            0.0000000000
     22096      7366  TIP3      OH2            16.5829196015       27.5507742534       10.7153853365  WZ3       3488            0.0000000000
     22097      7366  TIP3      H1             16.0817596015       27.5227142534        9.9003553365  WZ3       3488            0.0000000000
     22098      7366  TIP3      H2             16.5882896015       26.6450942534       11.0251153365  WZ3       3488            0.0000000000
     22099      7367  TIP3      OH2            16.3331896015       30.3311542534        7.5994053365  WZ3       3489            0.0000000000
     22100      7367  TIP3      H1             17.2792496015       30.1868542534        7.5803553365  WZ3       3489            0.0000000000
     22101      7367  TIP3      H2             16.2208196015       31.1154342534        8.1365253365  WZ3       3489            0.0000000000
     22102      7368  TIP3      OH2            25.5094396015       30.5710442534       12.1579153365  WZ3       3491            0.0000000000
     22103      7368  TIP3      H1             25.5968996015       31.3975042534       12.6328253365  WZ3       3491            0.0000000000
     22104      7368  TIP3      H2             24.6459496015       30.2414242534       12.4068453365  WZ3       3491            0.0000000000
     22105      7369  TIP3      OH2            25.9240196015       34.3434142534        1.9639753365  WZ3       3492            0.0000000000
     22106      7369  TIP3      H1             25.8486196015       34.2221342534        1.0174953365  WZ3       3492            0.0000000000
     22107      7369  TIP3      H2             25.9568896015       35.2926842534        2.0824353365  WZ3       3492            0.0000000000
     22108      7370  TIP3      OH2            19.5773996015       33.1321142534        3.7448753365  WZ3       3493            0.0000000000
     22109      7370  TIP3      H1             19.7294396015       32.7841542534        4.6235253365  WZ3       3493            0.0000000000
     22110      7370  TIP3      H2             18.7264396015       32.7758442534        3.4895953365  WZ3       3493            0.0000000000
     22111      7371  TIP3      OH2            28.6944296015       33.4231442534        1.7154353365  WZ3       3495            0.0000000000
     22112      7371  TIP3      H1             27.7594096015       33.5233342534        1.8941353365  WZ3       3495            0.0000000000
     22113      7371  TIP3      H2             28.9746196015       32.7137442534        2.2937553365  WZ3       3495            0.0000000000
     22114      7372  TIP3      OH2            31.6830196015       22.4903742534       13.7619953365  WZ3       3496            0.0000000000
     22115      7372  TIP3      H1             31.2756996015       22.9709342534       13.0413253365  WZ3       3496            0.0000000000
     22116      7372  TIP3      H2             31.7235896015       21.5849742534       13.4540753365  WZ3       3496            0.0000000000
     22117      7373  TIP3      OH2            18.8319696015       28.8743142534       11.7586653365  WZ3       3497            0.0000000000
     22118      7373  TIP3      H1             19.0480996015       28.5128742534       12.6182453365  WZ3       3497            0.0000000000
     22119      7373  TIP3      H2             17.9764396015       28.4996942534       11.5490153365  WZ3       3497            0.0000000000
     22120      7374  TIP3      OH2            21.4507696015       17.3443642534        7.7540853365  WZ3       3498            0.0000000000
     22121      7374  TIP3      H1             20.5891396015       17.2571842534        7.3463753365  WZ3       3498            0.0000000000
     22122      7374  TIP3      H2             21.4283396015       18.2003742534        8.1818453365  WZ3       3498            0.0000000000
     22123      7375  TIP3      OH2            26.1135496015       17.0664042534       11.1287853365  WZ3       3499            0.0000000000
     22124      7375  TIP3      H1             26.5338596015       16.6511142534       11.8818453365  WZ3       3499            0.0000000000
     22125      7375  TIP3      H2             25.1805096015       16.8877342534       11.2459853365  WZ3       3499            0.0000000000
     22126      7376  TIP3      OH2            29.4400396015       20.8219242534       11.9822353365  WZ3       3500            0.0000000000
     22127      7376  TIP3      H1             28.9259896015       20.6961442534       12.7798353365  WZ3       3500            0.0000000000
     22128      7376  TIP3      H2             29.2845096015       21.7342342534       11.7378553365  WZ3       3500            0.0000000000
     22129      7377  TIP3      OH2            30.2025296015       25.6829242534       -2.2564646635  WZ3       3501            0.0000000000
     22130      7377  TIP3      H1             30.2446096015       25.4603142534       -3.1864646635  WZ3       3501            0.0000000000
     22131      7377  TIP3      H2             31.0517396015       26.0816342534       -2.0664746635  WZ3       3501            0.0000000000
     22132      7378  TIP3      OH2            25.7752796015       19.5587442534       -1.5861346635  WZ3       3502            0.0000000000
     22133      7378  TIP3      H1             25.5217596015       19.5779042534       -0.6633246635  WZ3       3502            0.0000000000
     22134      7378  TIP3      H2             25.5184896015       18.6872842534       -1.8875146635  WZ3       3502            0.0000000000
     22135      7379  TIP3      OH2            21.5417796015       22.3098142534        8.8491053365  WZ3       3503            0.0000000000
     22136      7379  TIP3      H1             20.8999896015       22.2695442534        9.5581153365  WZ3       3503            0.0000000000
     22137      7379  TIP3      H2             21.5789796015       23.2362842534        8.6114053365  WZ3       3503            0.0000000000
     22138      7380  TIP3      OH2            21.5386896015       22.5308242534        3.7611053365  WZ3       3504            0.0000000000
     22139      7380  TIP3      H1             20.6459796015       22.1904342534        3.7024853365  WZ3       3504            0.0000000000
     22140      7380  TIP3      H2             21.9893496015       22.1539142534        3.0054253365  WZ3       3504            0.0000000000
     22141      7381  TIP3      OH2            27.0742396015       22.9468542534        2.5781853365  WZ3       3505            0.0000000000
     22142      7381  TIP3      H1             26.6652696015       23.7617142534        2.2866653365  WZ3       3505            0.0000000000
     22143      7381  TIP3      H2             27.7948596015       22.8068642534        1.9638953365  WZ3       3505            0.0000000000
     22144      7382  TIP3      OH2            26.1763996015       23.1224942534       14.0662553365  WZ3       3506            0.0000000000
     22145      7382  TIP3      H1             25.6137796015       22.4176542534       14.3870353365  WZ3       3506            0.0000000000
     22146      7382  TIP3      H2             27.0027396015       23.0016842534       14.5340153365  WZ3       3506            0.0000000000
     22147      7383  TIP3      OH2            28.0790096015       22.3928942534        5.3921553365  WZ3       3507            0.0000000000
     22148      7383  TIP3      H1             27.8834596015       22.9985742534        4.6772153365  WZ3       3507            0.0000000000
     22149      7383  TIP3      H2             28.2602696015       21.5594142534        4.9577853365  WZ3       3507            0.0000000000
     22150      7384  TIP3      OH2            19.2918296015       22.6301642534       10.7163053365  WZ3       3508            0.0000000000
     22151      7384  TIP3      H1             19.2537696015       23.0303242534       11.5850153365  WZ3       3508            0.0000000000
     22152      7384  TIP3      H2             18.8009396015       21.8134042534       10.8065953365  WZ3       3508            0.0000000000
     22153      7385  TIP3      OH2            22.6575696015       20.0043942534       -2.4850946635  WZ3       3509            0.0000000000
     22154      7385  TIP3      H1             22.2266396015       19.5594042534       -1.7553546635  WZ3       3509            0.0000000000
     22155      7385  TIP3      H2             21.9394396015       20.3760242534       -2.9973446635  WZ3       3509            0.0000000000
     22156      7386  TIP3      OH2            15.8999096015       19.7463442534        4.5667753365  WZ3       3510            0.0000000000
     22157      7386  TIP3      H1             16.5306796015       19.7175542534        5.2861653365  WZ3       3510            0.0000000000
     22158      7386  TIP3      H2             16.3493396015       19.3212142534        3.8363653365  WZ3       3510            0.0000000000
     22159      7387  TIP3      OH2            17.1741196015       20.4925442534       -0.0091846635  WZ3       3511            0.0000000000
     22160      7387  TIP3      H1             17.6482896015       21.0835342534       -0.5940946635  WZ3       3511            0.0000000000
     22161      7387  TIP3      H2             16.4567596015       21.0228342534        0.3378253365  WZ3       3511            0.0000000000
     22162      7388  TIP3      OH2            27.3429296015       24.0310242534       10.0633953365  WZ3       3512            0.0000000000
     22163      7388  TIP3      H1             27.6664096015       23.3999942534        9.4204453365  WZ3       3512            0.0000000000
     22164      7388  TIP3      H2             26.9028596015       23.4962442534       10.7241353365  WZ3       3512            0.0000000000
     22165      7389  TIP3      OH2            24.1202196015       19.9585742534        4.8475153365  WZ3       3513            0.0000000000
     22166      7389  TIP3      H1             23.2093296015       20.0152542534        5.1361153365  WZ3       3513            0.0000000000
     22167      7389  TIP3      H2             24.6255096015       19.8981242534        5.6582353365  WZ3       3513            0.0000000000
     22168      7390  TIP3      OH2            18.9485596015       21.5872042534        3.6742753365  WZ3       3514            0.0000000000
     22169      7390  TIP3      H1             18.0593596015       21.6867542534        3.3342353365  WZ3       3514            0.0000000000
     22170      7390  TIP3      H2             19.2450496015       20.7455042534        3.3280653365  WZ3       3514            0.0000000000
     22171      7391  TIP3      OH2            22.6017396015       21.5874642534        1.3307353365  WZ3       3515            0.0000000000
     22172      7391  TIP3      H1             23.5332896015       21.7164642534        1.5090453365  WZ3       3515            0.0000000000
     22173      7391  TIP3      H2             22.3867696015       22.2568942534        0.6812053365  WZ3       3515            0.0000000000
     22174      7392  TIP3      OH2            28.5254096015       19.1932042534        8.1116953365  WZ3       3516            0.0000000000
     22175      7392  TIP3      H1             27.8485696015       19.3245142534        8.7756653365  WZ3       3516            0.0000000000
     22176      7392  TIP3      H2             28.0398996015       19.0381542534        7.3014653365  WZ3       3516            0.0000000000
     22177      7393  TIP3      OH2            21.2757596015       22.7816842534       -1.1026546635  WZ3       3517            0.0000000000
     22178      7393  TIP3      H1             20.7332696015       22.4020642534       -1.7938946635  WZ3       3517            0.0000000000
     22179      7393  TIP3      H2             22.1092496015       22.9761542534       -1.5312446635  WZ3       3517            0.0000000000
     22180      7394  TIP3      OH2            19.4108996015       27.3388742534       13.9965053365  WZ3       3519            0.0000000000
     22181      7394  TIP3      H1             20.1431396015       27.5934642534       14.5579553365  WZ3       3519            0.0000000000
     22182      7394  TIP3      H2             18.6307696015       27.5434142534       14.5120453365  WZ3       3519            0.0000000000
     22183      7395  TIP3      OH2            25.4401896015       22.7458742534        6.7344753365  WZ3       3520            0.0000000000
     22184      7395  TIP3      H1             26.0045296015       22.1995342534        6.1874353365  WZ3       3520            0.0000000000
     22185      7395  TIP3      H2             25.2925296015       22.2240642534        7.5232353365  WZ3       3520            0.0000000000
     22186      7396  TIP3      OH2            20.4421596015       18.8824842534        3.1529553365  WZ3       3521            0.0000000000
     22187      7396  TIP3      H1             20.1251096015       17.9800142534        3.1174953365  WZ3       3521            0.0000000000
     22188      7396  TIP3      H2             21.2235696015       18.8842242534        2.6001153365  WZ3       3521            0.0000000000
     22189      7397  TIP3      OH2            24.0667796015       21.1344842534        9.1485153365  WZ3       3522            0.0000000000
     22190      7397  TIP3      H1             23.2313096015       21.5884342534        9.2587553365  WZ3       3522            0.0000000000
     22191      7397  TIP3      H2             24.5908396015       21.4103342534        9.9005053365  WZ3       3522            0.0000000000
     22192      7398  TIP3      OH2            24.6110396015       27.3472542534        0.8331553365  WZ3       3523            0.0000000000
     22193      7398  TIP3      H1             23.8661396015       26.8397842534        0.5109453365  WZ3       3523            0.0000000000
     22194      7398  TIP3      H2             24.4767596015       27.3960542534        1.7796353365  WZ3       3523            0.0000000000
     22195      7399  TIP3      OH2            31.7609296015       26.4800742534        9.6199153365  WZ3       3524            0.0000000000
     22196      7399  TIP3      H1             32.4028096015       26.9367042534        9.0761353365  WZ3       3524            0.0000000000
     22197      7399  TIP3      H2             30.9306196015       26.5933142534        9.1573253365  WZ3       3524            0.0000000000
     22198      7400  TIP3      OH2            28.5087196015       20.1612442534       -0.9675846635  WZ3       3525            0.0000000000
     22199      7400  TIP3      H1             27.5701396015       20.2728042534       -1.1187046635  WZ3       3525            0.0000000000
     22200      7400  TIP3      H2             28.8059296015       21.0179342534       -0.6610146635  WZ3       3525            0.0000000000
     22201      7401  TIP3      OH2            26.1302496015       27.5315842534       12.0700653365  WZ3       3526            0.0000000000
     22202      7401  TIP3      H1             25.7848596015       27.1498242534       12.8770253365  WZ3       3526            0.0000000000
     22203      7401  TIP3      H2             25.9302596015       28.4649442534       12.1413553365  WZ3       3526            0.0000000000
     22204      7402  TIP3      OH2            29.2270696015       22.0285142534        0.6931553365  WZ3       3527            0.0000000000
     22205      7402  TIP3      H1             30.1189696015       21.8910142534        1.0122753365  WZ3       3527            0.0000000000
     22206      7402  TIP3      H2             29.2834296015       22.8191242534        0.1565053365  WZ3       3527            0.0000000000
     22207      7403  TIP3      OH2            19.7358696015       26.6422542534        6.6029453365  WZ3       3528            0.0000000000
     22208      7403  TIP3      H1             20.4805896015       26.6398242534        6.0015953365  WZ3       3528            0.0000000000
     22209      7403  TIP3      H2             19.8135296015       25.8186342534        7.0844553365  WZ3       3528            0.0000000000
     22210      7404  TIP3      OH2            26.7364496015       28.8056842534       -0.1413846635  WZ3       3529            0.0000000000
     22211      7404  TIP3      H1             26.4412896015       29.6324742534        0.2400953365  WZ3       3529            0.0000000000
     22212      7404  TIP3      H2             26.0334496015       28.1863742534        0.0547553365  WZ3       3529            0.0000000000
     22213      7405  TIP3      OH2            16.7438396015       25.1029442534       11.9177953365  WZ3       3530            0.0000000000
     22214      7405  TIP3      H1             16.9666996015       24.6849042534       12.7495453365  WZ3       3530            0.0000000000
     22215      7405  TIP3      H2             16.1418496015       24.4904442534       11.4950753365  WZ3       3530            0.0000000000
     22216      7406  TIP3      OH2            23.7603296015       24.6199342534       14.1307653365  WZ3       3531            0.0000000000
     22217      7406  TIP3      H1             23.4644096015       24.4542342534       13.2356753365  WZ3       3531            0.0000000000
     22218      7406  TIP3      H2             24.6918496015       24.3999642534       14.1201553365  WZ3       3531            0.0000000000
     22219      7407  TIP3      OH2            28.3806096015       29.9931342534       12.0205653365  WZ3       3532            0.0000000000
     22220      7407  TIP3      H1             27.4800396015       30.1763942534       11.7529553365  WZ3       3532            0.0000000000
     22221      7407  TIP3      H2             28.4147196015       30.2520642534       12.9414453365  WZ3       3532            0.0000000000
     22222      7408  TIP3      OH2            34.1119396015       22.2379242534        0.3878253365  WZ3       3533            0.0000000000
     22223      7408  TIP3      H1             33.5575696015       21.8417242534       -0.2844246635  WZ3       3533            0.0000000000
     22224      7408  TIP3      H2             34.2122996015       23.1484442534        0.1101553365  WZ3       3533            0.0000000000
     22225      7409  TIP3      OH2            29.5674996015       25.8319142534        7.8742253365  WZ3       3536            0.0000000000
     22226      7409  TIP3      H1             28.6391896015       25.6001042534        7.8471553365  WZ3       3536            0.0000000000
     22227      7409  TIP3      H2             30.0186096015       25.0548942534        7.5441053365  WZ3       3536            0.0000000000
     22228      7410  TIP3      OH2            22.1108096015       30.1600742534        4.0070953365  WZ3       3537            0.0000000000
     22229      7410  TIP3      H1             22.6380296015       30.9335142534        3.8069753365  WZ3       3537            0.0000000000
     22230      7410  TIP3      H2             21.2306596015       30.3849942534        3.7054953365  WZ3       3537            0.0000000000
     22231      7411  TIP3      OH2            17.8655796015       25.0224842534       -1.4056646635  WZ3       3538            0.0000000000
     22232      7411  TIP3      H1             18.4815696015       25.6492042534       -1.0261846635  WZ3       3538            0.0000000000
     22233      7411  TIP3      H2             17.0038396015       25.3384642534       -1.1340146635  WZ3       3538            0.0000000000
     22234      7412  TIP3      OH2            23.5380396015       27.8230642534        3.5835253365  WZ3       3539            0.0000000000
     22235      7412  TIP3      H1             23.2970396015       28.7485042534        3.6250553365  WZ3       3539            0.0000000000
     22236      7412  TIP3      H2             22.7973996015       27.3641942534        3.9799153365  WZ3       3539            0.0000000000
     22237      7413  TIP3      OH2            24.0526996015       31.9724242534        9.8986353365  WZ3       3540            0.0000000000
     22238      7413  TIP3      H1             24.4151696015       32.8269842534        9.6650753365  WZ3       3540            0.0000000000
     22239      7413  TIP3      H2             24.5842196015       31.6805842534       10.6392653365  WZ3       3540            0.0000000000
     22240      7414  TIP3      OH2            22.2211196015       32.8448242534        3.1287453365  WZ3       3541            0.0000000000
     22241      7414  TIP3      H1             21.2711696015       32.9505642534        3.1800753365  WZ3       3541            0.0000000000
     22242      7414  TIP3      H2             22.5729296015       33.6655642534        3.4734953365  WZ3       3541            0.0000000000
     22243      7415  TIP3      OH2            27.5967796015       28.0714942534        9.5991953365  WZ3       3542            0.0000000000
     22244      7415  TIP3      H1             27.1709096015       27.8436642534       10.4255953365  WZ3       3542            0.0000000000
     22245      7415  TIP3      H2             28.1773596015       27.3326742534        9.4167253365  WZ3       3542            0.0000000000
     22246      7416  TIP3      OH2            29.7996696015       29.0005442534       -1.3269046635  WZ3       3543            0.0000000000
     22247      7416  TIP3      H1             30.1529796015       28.6205242534       -0.5225546635  WZ3       3543            0.0000000000
     22248      7416  TIP3      H2             28.8510196015       28.9070242534       -1.2399746635  WZ3       3543            0.0000000000
     22249      7417  TIP3      OH2            18.3777896015       19.8562142534       11.4759353365  WZ3       3546            0.0000000000
     22250      7417  TIP3      H1             17.4850196015       20.1947542534       11.4083353365  WZ3       3546            0.0000000000
     22251      7417  TIP3      H2             18.2790696015       19.0008242534       11.8940153365  WZ3       3546            0.0000000000
     22252      7418  TIP3      OH2            30.6655996015       27.6727442534        0.8998853365  WZ3       3547            0.0000000000
     22253      7418  TIP3      H1             30.3883596015       26.9446742534        1.4559953365  WZ3       3547            0.0000000000
     22254      7418  TIP3      H2             31.5928996015       27.7919442534        1.1051453365  WZ3       3547            0.0000000000
     22255      7419  TIP3      OH2            18.0289896015       31.6606542534        9.9108753365  WZ3       3548            0.0000000000
     22256      7419  TIP3      H1             18.2460196015       30.7288942534        9.8798453365  WZ3       3548            0.0000000000
     22257      7419  TIP3      H2             18.2753396015       31.9351542534       10.7941553365  WZ3       3548            0.0000000000
     22258      7420  TIP3      OH2            23.8904496015       30.1121542534       -2.8799046635  WZ3       3549            0.0000000000
     22259      7420  TIP3      H1             24.1294296015       29.3639642534       -3.4270146635  WZ3       3549            0.0000000000
     22260      7420  TIP3      H2             23.6215796015       29.7243242534       -2.0471246635  WZ3       3549            0.0000000000
     22261      7421  TIP3      OH2            22.8275096015       29.6825342534       -0.4236446635  WZ3       3550            0.0000000000
     22262      7421  TIP3      H1             22.9743096015       29.1625142534        0.3664453365  WZ3       3550            0.0000000000
     22263      7421  TIP3      H2             22.8246796015       30.5892942534       -0.1170546635  WZ3       3550            0.0000000000
     22264      7422  TIP3      OH2            19.2806196015       26.9348642534        0.0868953365  WZ3       3551            0.0000000000
     22265      7422  TIP3      H1             18.5945496015       27.2871142534        0.6538653365  WZ3       3551            0.0000000000
     22266      7422  TIP3      H2             19.8034096015       27.6978242534       -0.1596746635  WZ3       3551            0.0000000000
     22267      7423  TIP3      OH2            27.1121296015       19.5972442534       10.3657953365  WZ3       3552            0.0000000000
     22268      7423  TIP3      H1             27.8109196015       19.6711142534       11.0157653365  WZ3       3552            0.0000000000
     22269      7423  TIP3      H2             26.7312696015       18.7327442534       10.5200853365  WZ3       3552            0.0000000000
     22270      7424  TIP3      OH2            27.8966196015       19.2494142534        1.4630253365  WZ3       3553            0.0000000000
     22271      7424  TIP3      H1             28.1164496015       19.7209542534        0.6595653365  WZ3       3553            0.0000000000
     22272      7424  TIP3      H2             28.4550196015       19.6436742534        2.1330853365  WZ3       3553            0.0000000000
     22273      7425  TIP3      OH2            25.5652296015       31.3798942534        0.3257753365  WZ3       3554            0.0000000000
     22274      7425  TIP3      H1             24.7488396015       31.8768642534        0.3782053365  WZ3       3554            0.0000000000
     22275      7425  TIP3      H2             26.0948596015       31.8552442534       -0.3143446635  WZ3       3554            0.0000000000
     22276      7426  TIP3      OH2            25.0966096015       20.9772942534        2.2978653365  WZ3       3555            0.0000000000
     22277      7426  TIP3      H1             25.9088696015       21.4816142534        2.3440353365  WZ3       3555            0.0000000000
     22278      7426  TIP3      H2             24.8519096015       20.8322642534        3.2118253365  WZ3       3555            0.0000000000
     22279      7427  TIP3      OH2            25.6322496015       21.9635642534       11.4825253365  WZ3       3556            0.0000000000
     22280      7427  TIP3      H1             25.7512796015       22.5371042534       12.2395653365  WZ3       3556            0.0000000000
     22281      7427  TIP3      H2             26.2877096015       21.2755042534       11.5973053365  WZ3       3556            0.0000000000
     22282      7428  TIP3      OH2            25.9802796015       18.0585942534        3.2359753365  WZ3       3557            0.0000000000
     22283      7428  TIP3      H1             25.6336296015       18.6756542534        3.8804053365  WZ3       3557            0.0000000000
     22284      7428  TIP3      H2             26.6389696015       18.5591642534        2.7545253365  WZ3       3557            0.0000000000
     22285      7429  TIP3      OH2            22.9035396015       32.4236142534        0.3074653365  WZ3       3558            0.0000000000
     22286      7429  TIP3      H1             23.0644096015       33.2233642534       -0.1932746635  WZ3       3558            0.0000000000
     22287      7429  TIP3      H2             22.7063196015       32.7302142534        1.1925253365  WZ3       3558            0.0000000000
     22288      7430  TIP3      OH2            21.6379796015       19.1215342534       -0.0767746635  WZ3       3559            0.0000000000
     22289      7430  TIP3      H1             21.5544596015       20.0098442534        0.2698653365  WZ3       3559            0.0000000000
     22290      7430  TIP3      H2             22.5280096015       18.8562042534        0.1549053365  WZ3       3559            0.0000000000
     22291      7431  TIP3      OH2            31.8368296015       19.8705942534       12.3174953365  WZ3       3560            0.0000000000
     22292      7431  TIP3      H1             30.9204096015       20.1327642534       12.2298653365  WZ3       3560            0.0000000000
     22293      7431  TIP3      H2             32.1723296015       19.8674942534       11.4210253365  WZ3       3560            0.0000000000
     22294      7432  TIP3      OH2            30.4389296015       23.6206942534        6.4132253365  WZ3       3561            0.0000000000
     22295      7432  TIP3      H1             29.6413696015       23.2057142534        6.0847253365  WZ3       3561            0.0000000000
     22296      7432  TIP3      H2             30.8840396015       22.9300642534        6.9042753365  WZ3       3561            0.0000000000
     22297      7433  TIP3      OH2            19.8965096015       29.5487542534       -1.0163246635  WZ3       3562            0.0000000000
     22298      7433  TIP3      H1             20.4886596015       30.2482342534       -0.7400846635  WZ3       3562            0.0000000000
     22299      7433  TIP3      H2             20.3558096015       29.1157042534       -1.7358646635  WZ3       3562            0.0000000000
     22300      7434  TIP3      OH2            18.2124296015       22.2130542534       -1.9003846635  WZ3       3563            0.0000000000
     22301      7434  TIP3      H1             18.1676896015       23.1523642534       -1.7216846635  WZ3       3563            0.0000000000
     22302      7434  TIP3      H2             17.3247496015       21.9775442534       -2.1701746635  WZ3       3563            0.0000000000
     22303      7435  TIP3      OH2            19.0206296015       16.9947142534        6.7727153365  WZ3       3565            0.0000000000
     22304      7435  TIP3      H1             18.7916096015       17.0539642534        5.8452153365  WZ3       3565            0.0000000000
     22305      7435  TIP3      H2             18.5779696015       16.2032642534        7.0791253365  WZ3       3565            0.0000000000
     22306      7436  TIP3      OH2            17.9509596015       30.9354242534        2.9332953365  WZ3       3566            0.0000000000
     22307      7436  TIP3      H1             17.1188196015       31.4076942534        2.9604353365  WZ3       3566            0.0000000000
     22308      7436  TIP3      H2             18.4967896015       31.4451842534        2.3346053365  WZ3       3566            0.0000000000
     22309      7437  TIP3      OH2            17.2393296015       33.5477942534       14.2630953365  WZ3       3567            0.0000000000
     22310      7437  TIP3      H1             17.7795496015       33.3311942534       15.0230153365  WZ3       3567            0.0000000000
     22311      7437  TIP3      H2             16.7581296015       32.7423942534       14.0733453365  WZ3       3567            0.0000000000
     22312      7438  TIP3      OH2            21.8366696015       32.4672342534       15.8835153365  WZ3       3568            0.0000000000
     22313      7438  TIP3      H1             22.6043896015       32.0083142534       16.2244353365  WZ3       3568            0.0000000000
     22314      7438  TIP3      H2             21.8152896015       32.2412142534       14.9536353365  WZ3       3568            0.0000000000
     22315      7439  TIP3      OH2            25.9286296015       31.9752942534       -2.7413046635  WZ3       3569            0.0000000000
     22316      7439  TIP3      H1             25.2847296015       31.3441542534       -2.4199346635  WZ3       3569            0.0000000000
     22317      7439  TIP3      H2             26.6904596015       31.4440942534       -2.9729546635  WZ3       3569            0.0000000000
     22318      7440  TIP3      OH2            28.4135396015       30.8473442534       14.6126653365  WZ3       3570            0.0000000000
     22319      7440  TIP3      H1             28.0624896015       29.9906442534       14.8557053365  WZ3       3570            0.0000000000
     22320      7440  TIP3      H2             29.1398596015       30.9900142534       15.2195653365  WZ3       3570            0.0000000000
     22321      7441  TIP3      OH2            17.1462796015       27.3582042534       15.2175253365  WZ3       3572            0.0000000000
     22322      7441  TIP3      H1             17.2903296015       26.4562742534       14.9311953365  WZ3       3572            0.0000000000
     22323      7441  TIP3      H2             16.3740196015       27.6444142534       14.7297553365  WZ3       3572            0.0000000000
     22324      7442  TIP3      OH2            21.4876496015       27.7017742534       -2.6500146635  WZ3       3573            0.0000000000
     22325      7442  TIP3      H1             21.5520596015       26.9077342534       -2.1193746635  WZ3       3573            0.0000000000
     22326      7442  TIP3      H2             22.1405696015       27.5830542534       -3.3398146635  WZ3       3573            0.0000000000
     22327      7443  TIP3      OH2            23.8018896015       27.3280142534       14.6501653365  WZ3       3574            0.0000000000
     22328      7443  TIP3      H1             23.4732696015       27.5988242534       13.7929053365  WZ3       3574            0.0000000000
     22329      7443  TIP3      H2             23.9537096015       26.3869942534       14.5626653365  WZ3       3574            0.0000000000
     22330      7444  TIP3      OH2            26.8399896015       28.7489442534       -2.9142146635  WZ3       3575            0.0000000000
     22331      7444  TIP3      H1             26.5713996015       28.9291542534       -2.0133246635  WZ3       3575            0.0000000000
     22332      7444  TIP3      H2             26.6335496015       27.8235642534       -3.0456346635  WZ3       3575            0.0000000000
     22333      7445  TIP3      OH2            29.5364096015       27.2437442534       12.0333953365  WZ3       3576            0.0000000000
     22334      7445  TIP3      H1             30.2818896015       27.8321142534       11.9137953365  WZ3       3576            0.0000000000
     22335      7445  TIP3      H2             28.7790896015       27.8257142534       12.0967053365  WZ3       3576            0.0000000000
     22336      7446  TIP3      OH2            17.9789296015       24.5585342534       14.6374553365  WZ3       3577            0.0000000000
     22337      7446  TIP3      H1             18.3870496015       23.7011942534       14.5165153365  WZ3       3577            0.0000000000
     22338      7446  TIP3      H2             17.7186896015       24.5726642534       15.5584853365  WZ3       3577            0.0000000000
     22339      7447  TIP3      OH2            22.6370296015       25.6743942534       -0.3442146635  WZ3       3578            0.0000000000
     22340      7447  TIP3      H1             22.1772296015       25.1902242534        0.3416353365  WZ3       3578            0.0000000000
     22341      7447  TIP3      H2             22.8918996015       25.0059342534       -0.9801646635  WZ3       3578            0.0000000000
     22342      7448  TIP3      OH2            21.9259596015       23.5671042534       12.0117453365  WZ3       3579            0.0000000000
     22343      7448  TIP3      H1             21.3075696015       24.2417642534       12.2922153365  WZ3       3579            0.0000000000
     22344      7448  TIP3      H2             22.2700796015       23.8884942534       11.1783653365  WZ3       3579            0.0000000000
     22345      7449  TIP3      OH2            23.7080696015       23.9175742534       -2.0818946635  WZ3       3580            0.0000000000
     22346      7449  TIP3      H1             23.5275696015       23.7626942534       -3.0090646635  WZ3       3580            0.0000000000
     22347      7449  TIP3      H2             24.6581196015       24.0254442534       -2.0371046635  WZ3       3580            0.0000000000
     22348      7450  TIP3      OH2            26.9457796015       26.0386342534       15.2892253365  WZ3       3581            0.0000000000
     22349      7450  TIP3      H1             27.8988996015       26.1225442534       15.2618253365  WZ3       3581            0.0000000000
     22350      7450  TIP3      H2             26.7852396015       25.3268142534       15.9087153365  WZ3       3581            0.0000000000
     22351      7451  TIP3      OH2            33.0978996015       26.2719942534       -2.6360846635  WZ3       3582            0.0000000000
     22352      7451  TIP3      H1             32.8243796015       25.8475442534       -3.4492546635  WZ3       3582            0.0000000000
     22353      7451  TIP3      H2             33.1373096015       27.2034442534       -2.8530446635  WZ3       3582            0.0000000000
     22354      7452  TIP3      OH2            22.2653296015       20.9221842534       13.0940553365  WZ3       3583            0.0000000000
     22355      7452  TIP3      H1             22.4154196015       20.1933142534       12.4920253365  WZ3       3583            0.0000000000
     22356      7452  TIP3      H2             22.2675696015       21.6993542534       12.5352753365  WZ3       3583            0.0000000000
     22357      7453  TIP3      OH2            22.6778996015       19.2917642534       10.5867953365  WZ3       3584            0.0000000000
     22358      7453  TIP3      H1             23.2136496015       19.7434342534        9.9347253365  WZ3       3584            0.0000000000
     22359      7453  TIP3      H2             21.8258596015       19.1837442534       10.1642053365  WZ3       3584            0.0000000000
     22360      7454  TIP3      OH2            24.2597396015       24.7313842534       10.8263153365  WZ3       3585            0.0000000000
     22361      7454  TIP3      H1             25.0102196015       24.5751342534       10.2530953365  WZ3       3585            0.0000000000
     22362      7454  TIP3      H2             23.9205696015       25.5830442534       10.5508653365  WZ3       3585            0.0000000000
     22363      7455  TIP3      OH2            28.6753596015       22.5465642534       15.8548453365  WZ3       3586            0.0000000000
     22364      7455  TIP3      H1             28.8674896015       21.6155042534       15.7432953365  WZ3       3586            0.0000000000
     22365      7455  TIP3      H2             29.5329896015       22.9715142534       15.8443853365  WZ3       3586            0.0000000000
     22366      7456  TIP3      OH2            29.9920796015       25.3350842534       13.9321153365  WZ3       3587            0.0000000000
     22367      7456  TIP3      H1             29.7105796015       26.0445442534       13.3544953365  WZ3       3587            0.0000000000
     22368      7456  TIP3      H2             30.9345096015       25.2623842534       13.7812353365  WZ3       3587            0.0000000000
     22369      7457  TIP3      OH2            20.7439596015       22.1205342534       15.0056153365  WZ3       3588            0.0000000000
     22370      7457  TIP3      H1             19.9768596015       21.5880142534       14.7953753365  WZ3       3588            0.0000000000
     22371      7457  TIP3      H2             21.4228596015       21.8105742534       14.4062453365  WZ3       3588            0.0000000000
     22372      7458  TIP3      OH2            23.4834496015       16.7483342534       11.0181553365  WZ3       3589            0.0000000000
     22373      7458  TIP3      H1             23.3854096015       17.6946542534       10.9127753365  WZ3       3589            0.0000000000
     22374      7458  TIP3      H2             22.7410696015       16.3757142534       10.5425053365  WZ3       3589            0.0000000000
     22375      7459  TIP3      OH2            24.7474996015       21.0698742534       14.5819953365  WZ3       3590            0.0000000000
     22376      7459  TIP3      H1             24.5120396015       20.8505442534       15.4834853365  WZ3       3590            0.0000000000
     22377      7459  TIP3      H2             23.9641896015       20.8629942534       14.0722453365  WZ3       3590            0.0000000000
     22378      7460  TIP3      OH2            27.4631596015       20.1972242534       13.6573453365  WZ3       3591            0.0000000000
     22379      7460  TIP3      H1             26.5156996015       20.2291942534       13.7896753365  WZ3       3591            0.0000000000
     22380      7460  TIP3      H2             27.7758296015       19.5719342534       14.3111653365  WZ3       3591            0.0000000000
     22381      7461  TIP3      OH2            29.0973096015       18.8313342534       15.6625353365  WZ3       3592            0.0000000000
     22382      7461  TIP3      H1             29.0004896015       17.8790642534       15.6567253365  WZ3       3592            0.0000000000
     22383      7461  TIP3      H2             28.7756196015       19.1000142534       16.5230853365  WZ3       3592            0.0000000000
     22384      7462  TIP3      OH2            18.9242396015       20.0409142534       14.7100853365  WZ3       3593            0.0000000000
     22385      7462  TIP3      H1             19.1359796015       19.3345242534       14.0998353365  WZ3       3593            0.0000000000
     22386      7462  TIP3      H2             18.8129896015       19.6035142534       15.5542053365  WZ3       3593            0.0000000000
     22387      7463  TIP3      OH2            23.7052596015       16.0420742534       13.6894353365  WZ3       3594            0.0000000000
     22388      7463  TIP3      H1             24.4170996015       15.4022942534       13.6753453365  WZ3       3594            0.0000000000
     22389      7463  TIP3      H2             23.6042996015       16.3089042534       12.7757453365  WZ3       3594            0.0000000000
     22390      7464  TIP3      OH2            24.0590096015       17.7249142534       15.7430653365  WZ3       3595            0.0000000000
     22391      7464  TIP3      H1             23.9272296015       17.2492942534       14.9229153365  WZ3       3595            0.0000000000
     22392      7464  TIP3      H2             23.4597496015       18.4692742534       15.6877753365  WZ3       3595            0.0000000000
     22393      7465  TIP3      OH2            23.6052396015       34.6079442534       -1.0805346635  WZ3       3596            0.0000000000
     22394      7465  TIP3      H1             24.5383096015       34.7658142534       -0.9366946635  WZ3       3596            0.0000000000
     22395      7465  TIP3      H2             23.3411196015       35.2832442534       -1.7053846635  WZ3       3596            0.0000000000
     22396      7466  TIP3      OH2            17.1737296015       29.2443242534       -1.5977246635  WZ3       3597            0.0000000000
     22397      7466  TIP3      H1             18.0876496015       29.3232142534       -1.3243346635  WZ3       3597            0.0000000000
     22398      7466  TIP3      H2             17.1810396015       28.5572842534       -2.2641646635  WZ3       3597            0.0000000000
     22399      7467  TIP3      OH2            15.8227896015       34.6371742534        3.4796653365  WZ3       3598            0.0000000000
     22400      7467  TIP3      H1             15.1754996015       34.1753442534        2.9467853365  WZ3       3598            0.0000000000
     22401      7467  TIP3      H2             16.1772496015       33.9655042534        4.0622853365  WZ3       3598            0.0000000000
     22402      7468  TIP3      OH2            16.6927096015       32.7178742534        5.2842853365  WZ3       3599            0.0000000000
     22403      7468  TIP3      H1             16.3583896015       31.8376042534        5.4563053365  WZ3       3599            0.0000000000
     22404      7468  TIP3      H2             16.9149496015       33.0633742534        6.1488453365  WZ3       3599            0.0000000000
     22405      7469  TIP3      OH2            33.9507396015       25.1945442534        3.1625253365  WZ3       3604            0.0000000000
     22406      7469  TIP3      H1             33.2241996015       24.7148042534        3.5602853365  WZ3       3604            0.0000000000
     22407      7469  TIP3      H2             34.5320696015       25.4000142534        3.8946853365  WZ3       3604            0.0000000000
     22408      7470  TIP3      OH2            34.2190496015       25.0953942534       -0.4463446635  WZ3       3607            0.0000000000
     22409      7470  TIP3      H1             33.6971596015       25.4518042534       -1.1652546635  WZ3       3607            0.0000000000
     22410      7470  TIP3      H2             34.1859696015       25.7701742534        0.2317453365  WZ3       3607            0.0000000000
     22411      7471  TIP3      OH2            32.5679496015       22.3349542534       -1.8956346635  WZ3       3608            0.0000000000
     22412      7471  TIP3      H1             32.6643896015       23.0016542534       -2.5756646635  WZ3       3608            0.0000000000
     22413      7471  TIP3      H2             32.4279096015       21.5195842534       -2.3770846635  WZ3       3608            0.0000000000
     22414      7472  TIP3      OH2            31.7374196015       23.7151942534        3.7253953365  WZ3       3609            0.0000000000
     22415      7472  TIP3      H1             31.5872996015       22.7700542534        3.7051753365  WZ3       3609            0.0000000000
     22416      7472  TIP3      H2             31.3838696015       23.9963342534        4.5693053365  WZ3       3609            0.0000000000
     22417      7473  TIP3      OH2            16.7726596015       25.7934142534        7.7357753365  WZ3       3610            0.0000000000
     22418      7473  TIP3      H1             16.9569496015       25.7115842534        6.8000653365  WZ3       3610            0.0000000000
     22419      7473  TIP3      H2             17.6219496015       25.6691142534        8.1594153365  WZ3       3610            0.0000000000
     22420      7474  TIP3      OH2            32.5937096015       25.6855242534       13.3642253365  WZ3       3611            0.0000000000
     22421      7474  TIP3      H1             33.1764396015       24.9507542534       13.5559453365  WZ3       3611            0.0000000000
     22422      7474  TIP3      H2             33.1576396015       26.4575542534       13.4108053365  WZ3       3611            0.0000000000
     22423      7475  TIP3      OH2            34.0904196015       23.5881042534       14.0487653365  WZ3       3612            0.0000000000
     22424      7475  TIP3      H1             33.2270896015       23.2093142534       13.8832353365  WZ3       3612            0.0000000000
     22425      7475  TIP3      H2             34.6947896015       22.8495842534       13.9743453365  WZ3       3612            0.0000000000
     22426      7476  TIP3      OH2            31.8153296015       19.7429342534       -2.7780846635  WZ3       3613            0.0000000000
     22427      7476  TIP3      H1             32.4259096015       19.3716142534       -2.1412646635  WZ3       3613            0.0000000000
     22428      7476  TIP3      H2             30.9784796015       19.3216242534       -2.5820846635  WZ3       3613            0.0000000000
     22429      7477  TIP3      OH2            31.4478996015       21.2977742534        2.1879053365  WZ3       3614            0.0000000000
     22430      7477  TIP3      H1             31.7276096015       20.3908142534        2.3120753365  WZ3       3614            0.0000000000
     22431      7477  TIP3      H2             32.2070696015       21.7319242534        1.7988253365  WZ3       3614            0.0000000000
     22432      7478  TIP3      OH2            32.0597296015       21.8795142534        7.6237953365  WZ3       3615            0.0000000000
     22433      7478  TIP3      H1             32.9925296015       22.0915042534        7.5893953365  WZ3       3615            0.0000000000
     22434      7478  TIP3      H2             31.8244796015       21.9807242534        8.5460953365  WZ3       3615            0.0000000000
     22435      7479  TIP3      OH2            32.0889196015       22.6160442534       10.3997353365  WZ3       3616            0.0000000000
     22436      7479  TIP3      H1             31.2460496015       22.8840842534       10.7657153365  WZ3       3616            0.0000000000
     22437      7479  TIP3      H2             32.5313496015       23.4382342534       10.1888453365  WZ3       3616            0.0000000000
     22438      7480  TIP3      OH2            16.3701396015       21.0639142534       13.8766553365  WZ3       3617            0.0000000000
     22439      7480  TIP3      H1             17.2896296015       20.9417442534       14.1129653365  WZ3       3617            0.0000000000
     22440      7480  TIP3      H2             15.9205896015       20.3138842534       14.2660053365  WZ3       3617            0.0000000000
     22441      7481  TIP3      OH2            34.3720796015       16.5960642534       15.7532353365  WZ3       3618            0.0000000000
     22442      7481  TIP3      H1             34.7217796015       15.9424142534       15.1477053365  WZ3       3618            0.0000000000
     22443      7481  TIP3      H2             34.5190296015       17.4334742534       15.3134953365  WZ3       3618            0.0000000000
     22444      7482  TIP3      OH2            32.0613796015       18.5607042534        2.2361053365  WZ3       3619            0.0000000000
     22445      7482  TIP3      H1             32.2438796015       18.1118542534        3.0616053365  WZ3       3619            0.0000000000
     22446      7482  TIP3      H2             31.4616696015       17.9761442534        1.7725653365  WZ3       3619            0.0000000000
     22447      7483  TIP3      OH2            17.5913896015       19.3760742534        6.7679453365  WZ3       3620            0.0000000000
     22448      7483  TIP3      H1             18.0365496015       18.5843242534        7.0699153365  WZ3       3620            0.0000000000
     22449      7483  TIP3      H2             18.0576896015       20.0925942534        7.1985053365  WZ3       3620            0.0000000000
     22450      7484  TIP3      OH2            15.8954196015       22.3753742534        7.8369653365  WZ3       3621            0.0000000000
     22451      7484  TIP3      H1             16.3873996015       22.1544242534        7.0461653365  WZ3       3621            0.0000000000
     22452      7484  TIP3      H2             16.2575096015       23.2157142534        8.1179153365  WZ3       3621            0.0000000000
     22453      7485  TIP3      OH2            33.8917996015       18.7055242534       14.1023653365  WZ3       3622            0.0000000000
     22454      7485  TIP3      H1             32.9743696015       18.9762342534       14.0667153365  WZ3       3622            0.0000000000
     22455      7485  TIP3      H2             34.0147396015       18.1703642534       13.3183353365  WZ3       3622            0.0000000000
     22456      7486  TIP3      OH2            33.9279996015       18.6285142534       -1.2358646635  WZ3       3623            0.0000000000
     22457      7486  TIP3      H1             34.3402596015       17.9070842534       -1.7110646635  WZ3       3623            0.0000000000
     22458      7486  TIP3      H2             34.6096496015       19.2979742534       -1.1774346635  WZ3       3623            0.0000000000
     22459      7487  TIP3      OH2            16.2090696015       18.6332842534        1.8912053365  WZ3       3624            0.0000000000
     22460      7487  TIP3      H1             15.2839096015       18.8419442534        1.7617553365  WZ3       3624            0.0000000000
     22461      7487  TIP3      H2             16.6630596015       19.1173642534        1.2014353365  WZ3       3624            0.0000000000
     22462      7488  TIP3      OH2            16.1726096015       17.3711842534       10.2354553365  WZ3       3626            0.0000000000
     22463      7488  TIP3      H1             15.5076596015       17.1252142534       10.8785453365  WZ3       3626            0.0000000000
     22464      7488  TIP3      H2             15.7297396015       17.9932242534        9.6582553365  WZ3       3626            0.0000000000
     22465      7489  TIP3      OH2            18.3645396015       30.5465942534       14.3800353365  WZ3       3627            0.0000000000
     22466      7489  TIP3      H1             17.5437896015       30.7212442534       13.9195053365  WZ3       3627            0.0000000000
     22467      7489  TIP3      H2             18.1123196015       30.4730642534       15.3004753365  WZ3       3627            0.0000000000
     22468      7490  TIP3      OH2            21.3188296015       31.5207142534       10.6384353365  WZ3       3628            0.0000000000
     22469      7490  TIP3      H1             20.8939396015       32.3305642534       10.3558953365  WZ3       3628            0.0000000000
     22470      7490  TIP3      H2             22.2231096015       31.6061242534       10.3364153365  WZ3       3628            0.0000000000
     22471      7491  TIP3      OH2            25.6299696015       32.9197142534       13.5978053365  WZ3       3629            0.0000000000
     22472      7491  TIP3      H1             25.8147196015       32.5863242534       14.4758353365  WZ3       3629            0.0000000000
     22473      7491  TIP3      H2             26.4764196015       33.2295742534       13.2757253365  WZ3       3629            0.0000000000
     22474      7492  TIP3      OH2            32.8923896015       16.7951542534       11.9214453365  WZ3       3631            0.0000000000
     22475      7492  TIP3      H1             32.0797396015       17.1201842534       11.5339153365  WZ3       3631            0.0000000000
     22476      7492  TIP3      H2             33.1252396015       16.0350042534       11.3883553365  WZ3       3631            0.0000000000
     22477      7493  TIP3      OH2            18.7204996015       34.7771042534       10.6859653365  WZ3       3632            0.0000000000
     22478      7493  TIP3      H1             18.0001396015       35.2172042534       10.2347353365  WZ3       3632            0.0000000000
     22479      7493  TIP3      H2             18.3548996015       34.5265742534       11.5343653365  WZ3       3632            0.0000000000
     22480      7494  TIP3      OH2            21.1877596015       34.3774942534        9.7156853365  WZ3       3633            0.0000000000
     22481      7494  TIP3      H1             20.3229796015       34.4493442534       10.1196953365  WZ3       3633            0.0000000000
     22482      7494  TIP3      H2             21.1326596015       34.9242242534        8.9319353365  WZ3       3633            0.0000000000
     22483      7495  TIP3      OH2            25.8983196015       34.2653842534        8.8912853365  WZ3       3634            0.0000000000
     22484      7495  TIP3      H1             25.4417196015       34.7943542534        8.2371253365  WZ3       3634            0.0000000000
     22485      7495  TIP3      H2             26.0611196015       34.8685242534        9.6165153365  WZ3       3634            0.0000000000
     22486      7496  TIP3      OH2            28.2259496015       33.1433442534        9.8363153365  WZ3       3635            0.0000000000
     22487      7496  TIP3      H1             27.3213196015       33.3083642534        9.5705253365  WZ3       3635            0.0000000000
     22488      7496  TIP3      H2             28.6548096015       33.9965642534        9.7706553365  WZ3       3635            0.0000000000
     22489      7497  TIP3      OH2            18.1353096015       33.4003542534        7.5961453365  WZ3       3637            0.0000000000
     22490      7497  TIP3      H1             18.1169096015       32.9748642534        8.4533753365  WZ3       3637            0.0000000000
     22491      7497  TIP3      H2             18.9400996015       33.0818542534        7.1873653365  WZ3       3637            0.0000000000
     22492      7498  TIP3      OH2            20.2766196015       32.1102242534        6.2511353365  WZ3       3638            0.0000000000
     22493      7498  TIP3      H1             20.0576896015       31.1939642534        6.4207353365  WZ3       3638            0.0000000000
     22494      7498  TIP3      H2             21.1008396015       32.2502642534        6.7172753365  WZ3       3638            0.0000000000
     22495      7499  TIP3      OH2            22.8138696015       32.5801542534        7.0999353365  WZ3       3639            0.0000000000
     22496      7499  TIP3      H1             23.0264396015       31.6920542534        6.8130253365  WZ3       3639            0.0000000000
     22497      7499  TIP3      H2             22.8783796015       32.5459242534        8.0543353365  WZ3       3639            0.0000000000
     22498      7500  TIP3      OH2            26.3222396015       18.2442142534        6.2442653365  WZ3       3640            0.0000000000
     22499      7500  TIP3      H1             25.6479196015       17.6147742534        6.4998453365  WZ3       3640            0.0000000000
     22500      7500  TIP3      H2             26.8861596015       17.7601042534        5.6410553365  WZ3       3640            0.0000000000
     22501      7501  TIP3      OH2            31.4649596015       16.3516142534        6.3569753365  WZ3       3641            0.0000000000
     22502      7501  TIP3      H1             32.0687196015       16.8991542534        5.8550753365  WZ3       3641            0.0000000000
     22503      7501  TIP3      H2             30.5951596015       16.6706542534        6.1163853365  WZ3       3641            0.0000000000
     22504      7502  TIP3      OH2            33.1919996015       17.4904842534        4.6900653365  WZ3       3642            0.0000000000
     22505      7502  TIP3      H1             33.8037496015       16.9760542534        4.1634253365  WZ3       3642            0.0000000000
     22506      7502  TIP3      H2             33.5743396015       18.3676942534        4.7135053365  WZ3       3642            0.0000000000
     22507      7503  TIP3      OH2            18.6489896015       16.8782442534        4.0662553365  WZ3       3643            0.0000000000
     22508      7503  TIP3      H1             17.8719696015       16.6437342534        3.5588453365  WZ3       3643            0.0000000000
     22509      7503  TIP3      H2             19.1793496015       16.0814542534        4.0750553365  WZ3       3643            0.0000000000
     22510      7504  TIP3      OH2            17.4853296015       16.6760542534       -0.1301346635  WZ3       3644            0.0000000000
     22511      7504  TIP3      H1             17.9243996015       17.2871042534       -0.7217846635  WZ3       3644            0.0000000000
     22512      7504  TIP3      H2             16.8515696015       17.2144642534        0.3438653365  WZ3       3644            0.0000000000
     22513      7505  TIP3      OH2            23.2282496015       16.8049542534        3.8795653365  WZ3       3645            0.0000000000
     22514      7505  TIP3      H1             24.1025896015       17.1933842534        3.8499953365  WZ3       3645            0.0000000000
     22515      7505  TIP3      H2             23.0923296015       16.5897342534        4.8022853365  WZ3       3645            0.0000000000
     22516      7506  TIP3      OH2            28.7850896015       16.8349342534        5.5287353365  WZ3       3646            0.0000000000
     22517      7506  TIP3      H1             28.8612496015       16.9300942534        4.5793353365  WZ3       3646            0.0000000000
     22518      7506  TIP3      H2             28.5100096015       15.9272242534        5.6576453365  WZ3       3646            0.0000000000
     22519      7507  TIP3      OH2            30.1383496015       16.8607142534        1.2212353365  WZ3       3647            0.0000000000
     22520      7507  TIP3      H1             29.4354596015       17.4756342534        1.0113753365  WZ3       3647            0.0000000000
     22521      7507  TIP3      H2             29.6934896015       16.0233842534        1.3523253365  WZ3       3647            0.0000000000
     22522      7508  TIP3      OH2            17.3862796015       32.6242742534        0.7673753365  WZ3       3648            0.0000000000
     22523      7508  TIP3      H1             16.7012696015       32.5861642534        0.0998853365  WZ3       3648            0.0000000000
     22524      7508  TIP3      H2             17.3899996015       33.5370342534        1.0555853365  WZ3       3648            0.0000000000
     22525      7509  TIP3      OH2            19.3462396015       18.5922042534       -1.6877246635  WZ3       3649            0.0000000000
     22526      7509  TIP3      H1             19.8375796015       17.9624442534       -2.2151746635  WZ3       3649            0.0000000000
     22527      7509  TIP3      H2             19.9698696015       18.8881442534       -1.0246046635  WZ3       3649            0.0000000000
     22528      7510  TIP3      OH2            24.3722496015       18.8853542534        0.7693253365  WZ3       3650            0.0000000000
     22529      7510  TIP3      H1             24.5503796015       18.2386742534        1.4521853365  WZ3       3650            0.0000000000
     22530      7510  TIP3      H2             24.3188696015       19.7191242534        1.2364353365  WZ3       3650            0.0000000000
     22531      7511  TIP3      OH2            26.2506296015       33.8337642534       -0.8350046635  WZ3       3651            0.0000000000
     22532      7511  TIP3      H1             27.1166496015       34.2005042534       -1.0131846635  WZ3       3651            0.0000000000
     22533      7511  TIP3      H2             26.0039096015       33.3945642534       -1.6489246635  WZ3       3651            0.0000000000
     22534      7512  TIP3      OH2            18.6067896015       17.3924342534       13.5838753365  WZ3       3653            0.0000000000
     22535      7512  TIP3      H1             18.2406096015       16.6266942534       14.0263453365  WZ3       3653            0.0000000000
     22536      7512  TIP3      H2             19.5196396015       17.4214542534       13.8703853365  WZ3       3653            0.0000000000
     22537      7513  TIP3      OH2            20.5798696015       16.7428742534       15.1195853365  WZ3       3654            0.0000000000
     22538      7513  TIP3      H1             21.4782296015       16.4688942534       14.9349253365  WZ3       3654            0.0000000000
     22539      7513  TIP3      H2             20.1931796015       16.0004742534       15.5838453365  WZ3       3654            0.0000000000
     22540      7514  TIP3      OH2            19.2043996015       33.5443542534       -2.2074146635  WZ3       3655            0.0000000000
     22541      7514  TIP3      H1             18.9368596015       33.8306442534       -1.3341046635  WZ3       3655            0.0000000000
     22542      7514  TIP3      H2             19.9756596015       32.9982742534       -2.0551646635  WZ3       3655            0.0000000000
     22543      7515  TIP3      OH2            29.0010996015       16.0754042534       15.3018653365  WZ3       3656            0.0000000000
     22544      7515  TIP3      H1             29.0778196015       15.6494742534       16.1556353365  WZ3       3656            0.0000000000
     22545      7515  TIP3      H2             29.8947596015       16.0888742534       14.9592153365  WZ3       3656            0.0000000000
     22546      7516  TIP3      OH2            35.4182396015       23.0139042534        2.9646053365  WZ3       3660            0.0000000000
     22547      7516  TIP3      H1             34.9705796015       23.8597742534        2.9462553365  WZ3       3660            0.0000000000
     22548      7516  TIP3      H2             34.8573596015       22.4343242534        2.4491153365  WZ3       3660            0.0000000000
     22549      7517  TIP3      OH2            34.7559096015       19.7463442534        4.5667753365  WZ3       3680            0.0000000000
     22550      7517  TIP3      H1             35.3866796015       19.7175542534        5.2861653365  WZ3       3680            0.0000000000
     22551      7517  TIP3      H2             35.2053396015       19.3212142534        3.8363653365  WZ3       3680            0.0000000000
     22552      7518  TIP3      OH2            36.0301196015       20.4925442534       -0.0091846635  WZ3       3681            0.0000000000
     22553      7518  TIP3      H1             36.5042896015       21.0835342534       -0.5940946635  WZ3       3681            0.0000000000
     22554      7518  TIP3      H2             35.3127596015       21.0228342534        0.3378253365  WZ3       3681            0.0000000000
     22555      7519  TIP3      OH2            37.2337896015       19.8562142534       11.4759353365  WZ3       3689            0.0000000000
     22556      7519  TIP3      H1             36.3410196015       20.1947542534       11.4083353365  WZ3       3689            0.0000000000
     22557      7519  TIP3      H2             37.1350696015       19.0008242534       11.8940153365  WZ3       3689            0.0000000000
     22558      7520  TIP3      OH2            37.8766296015       16.9947142534        6.7727153365  WZ3       3695            0.0000000000
     22559      7520  TIP3      H1             37.6476096015       17.0539642534        5.8452153365  WZ3       3695            0.0000000000
     22560      7520  TIP3      H2             37.4339696015       16.2032642534        7.0791253365  WZ3       3695            0.0000000000
     22561      7521  TIP3      OH2            37.7802396015       20.0409142534       14.7100853365  WZ3       3702            0.0000000000
     22562      7521  TIP3      H1             37.9919796015       19.3345242534       14.0998353365  WZ3       3702            0.0000000000
     22563      7521  TIP3      H2             37.6689896015       19.6035142534       15.5542053365  WZ3       3702            0.0000000000
     22564      7522  TIP3      OH2            35.2261396015       21.0639142534       13.8766553365  WZ3       3707            0.0000000000
     22565      7522  TIP3      H1             36.1456296015       20.9417442534       14.1129653365  WZ3       3707            0.0000000000
     22566      7522  TIP3      H2             34.7765896015       20.3138842534       14.2660053365  WZ3       3707            0.0000000000
     22567      7523  TIP3      OH2            36.4473896015       19.3760742534        6.7679453365  WZ3       3708            0.0000000000
     22568      7523  TIP3      H1             36.8925496015       18.5843242534        7.0699153365  WZ3       3708            0.0000000000
     22569      7523  TIP3      H2             36.9136896015       20.0925942534        7.1985053365  WZ3       3708            0.0000000000
     22570      7524  TIP3      OH2            34.7514196015       22.3753742534        7.8369653365  WZ3       3709            0.0000000000
     22571      7524  TIP3      H1             35.2433996015       22.1544242534        7.0461653365  WZ3       3709            0.0000000000
     22572      7524  TIP3      H2             35.1135096015       23.2157142534        8.1179153365  WZ3       3709            0.0000000000
     22573      7525  TIP3      OH2            35.0650696015       18.6332842534        1.8912053365  WZ3       3710            0.0000000000
     22574      7525  TIP3      H1             34.1399096015       18.8419442534        1.7617553365  WZ3       3710            0.0000000000
     22575      7525  TIP3      H2             35.5190596015       19.1173642534        1.2014353365  WZ3       3710            0.0000000000
     22576      7526  TIP3      OH2            35.0286096015       17.3711842534       10.2354553365  WZ3       3711            0.0000000000
     22577      7526  TIP3      H1             34.3636596015       17.1252142534       10.8785453365  WZ3       3711            0.0000000000
     22578      7526  TIP3      H2             34.5857396015       17.9932242534        9.6582553365  WZ3       3711            0.0000000000
     22579      7527  TIP3      OH2            37.5049896015       16.8782442534        4.0662553365  WZ3       3718            0.0000000000
     22580      7527  TIP3      H1             36.7279696015       16.6437342534        3.5588453365  WZ3       3718            0.0000000000
     22581      7527  TIP3      H2             38.0353496015       16.0814542534        4.0750553365  WZ3       3718            0.0000000000
     22582      7528  TIP3      OH2            36.3413296015       16.6760542534       -0.1301346635  WZ3       3719            0.0000000000
     22583      7528  TIP3      H1             36.7803996015       17.2871042534       -0.7217846635  WZ3       3719            0.0000000000
     22584      7528  TIP3      H2             35.7075696015       17.2144642534        0.3438653365  WZ3       3719            0.0000000000
     22585      7529  TIP3      OH2            38.2022396015       18.5922042534       -1.6877246635  WZ3       3721            0.0000000000
     22586      7529  TIP3      H1             38.6935796015       17.9624442534       -2.2151746635  WZ3       3721            0.0000000000
     22587      7529  TIP3      H2             38.8258696015       18.8881442534       -1.0246046635  WZ3       3721            0.0000000000
     22588      7530  TIP3      OH2            37.4627896015       17.3924342534       13.5838753365  WZ3       3722            0.0000000000
     22589      7530  TIP3      H1             37.0966096015       16.6266942534       14.0263453365  WZ3       3722            0.0000000000
     22590      7530  TIP3      H2             38.3756396015       17.4214542534       13.8703853365  WZ3       3722            0.0000000000
     22591      7531  TIP3      OH2            39.4358696015       16.7428742534       15.1195853365  WZ3       3723            0.0000000000
     22592      7531  TIP3      H1             40.3342296015       16.4688942534       14.9349253365  WZ3       3723            0.0000000000
     22593      7531  TIP3      H2             39.0491796015       16.0004742534       15.5838453365  WZ3       3723            0.0000000000
     22594      7532  TIP3      OH2           -24.1439403985       35.2561342534       -0.0732846635  WZ3       3734            0.0000000000
     22595      7532  TIP3      H1            -25.0438703985       35.3950342534        0.2217753365  WZ3       3734            0.0000000000
     22596      7532  TIP3      H2            -23.8921003985       36.0875942534       -0.4751146635  WZ3       3734            0.0000000000
     22597      7533  TIP3      OH2           -22.1959203985       35.4520642534       15.7532353365  WZ3       3771            0.0000000000
     22598      7533  TIP3      H1            -21.8462203985       34.7984142534       15.1477053365  WZ3       3771            0.0000000000
     22599      7533  TIP3      H2            -22.0489703985       36.2894742534       15.3134953365  WZ3       3771            0.0000000000
     22600      7534  TIP3      OH2           -23.6756103985       35.6511542534       11.9214453365  WZ3       3778            0.0000000000
     22601      7534  TIP3      H1            -24.4882603985       35.9761842534       11.5339153365  WZ3       3778            0.0000000000
     22602      7534  TIP3      H2            -23.4427603985       34.8910042534       11.3883553365  WZ3       3778            0.0000000000
     22603      7535  TIP3      OH2           -25.1030403985       35.2076142534        6.3569753365  WZ3       3780            0.0000000000
     22604      7535  TIP3      H1            -24.4992803985       35.7551542534        5.8550753365  WZ3       3780            0.0000000000
     22605      7535  TIP3      H2            -25.9728403985       35.5266542534        6.1163853365  WZ3       3780            0.0000000000
     22606      7536  TIP3      OH2           -23.3760003985       36.3464842534        4.6900653365  WZ3       3781            0.0000000000
     22607      7536  TIP3      H1            -22.7642503985       35.8320542534        4.1634253365  WZ3       3781            0.0000000000
     22608      7536  TIP3      H2            -22.9936603985       37.2236942534        4.7135053365  WZ3       3781            0.0000000000
     22609      7537  TIP3      OH2           -13.5299903985       35.2969142534        6.9764553365  WZ3       3800            0.0000000000
     22610      7537  TIP3      H1            -13.6475703985       34.3485142534        6.9222853365  WZ3       3800            0.0000000000
     22611      7537  TIP3      H2            -14.3849803985       35.6295242534        7.2495653365  WZ3       3800            0.0000000000
     22612      7538  TIP3      OH2            -5.2879403985       35.2561342534       -0.0732846635  WZ3       3801            0.0000000000
     22613      7538  TIP3      H1             -6.1878703985       35.3950342534        0.2217753365  WZ3       3801            0.0000000000
     22614      7538  TIP3      H2             -5.0361003985       36.0875942534       -0.4751146635  WZ3       3801            0.0000000000
     22615      7539  TIP3      OH2           -16.2612303985       36.2003642534        7.7540853365  WZ3       3802            0.0000000000
     22616      7539  TIP3      H1            -17.1228603985       36.1131842534        7.3463753365  WZ3       3802            0.0000000000
     22617      7539  TIP3      H2            -16.2836603985       37.0563742534        8.1818453365  WZ3       3802            0.0000000000
     22618      7540  TIP3      OH2           -11.5984503985       35.9224042534       11.1287853365  WZ3       3803            0.0000000000
     22619      7540  TIP3      H1            -11.1781403985       35.5071142534       11.8818453365  WZ3       3803            0.0000000000
     22620      7540  TIP3      H2            -12.5314903985       35.7437342534       11.2459853365  WZ3       3803            0.0000000000
     22621      7541  TIP3      OH2           -18.6913703985       35.8507142534        6.7727153365  WZ3       3824            0.0000000000
     22622      7541  TIP3      H1            -18.9203903985       35.9099642534        5.8452153365  WZ3       3824            0.0000000000
     22623      7541  TIP3      H2            -19.1340303985       35.0592642534        7.0791253365  WZ3       3824            0.0000000000
     22624      7542  TIP3      OH2           -14.2285503985       35.6043342534       11.0181553365  WZ3       3827            0.0000000000
     22625      7542  TIP3      H1            -14.3265903985       36.5506542534       10.9127753365  WZ3       3827            0.0000000000
     22626      7542  TIP3      H2            -14.9709303985       35.2317142534       10.5425053365  WZ3       3827            0.0000000000
     22627      7543  TIP3      OH2           -14.0067403985       34.8980742534       13.6894353365  WZ3       3832            0.0000000000
     22628      7543  TIP3      H1            -13.2949003985       34.2582942534       13.6753453365  WZ3       3832            0.0000000000
     22629      7543  TIP3      H2            -14.1077003985       35.1649042534       12.7757453365  WZ3       3832            0.0000000000
     22630      7544  TIP3      OH2           -13.6529903985       36.5809142534       15.7430653365  WZ3       3833            0.0000000000
     22631      7544  TIP3      H1            -13.7847703985       36.1052942534       14.9229153365  WZ3       3833            0.0000000000
     22632      7544  TIP3      H2            -14.2522503985       37.3252742534       15.6877753365  WZ3       3833            0.0000000000
     22633      7545  TIP3      OH2            -3.3399203985       35.4520642534       15.7532353365  WZ3       3838            0.0000000000
     22634      7545  TIP3      H1             -2.9902203985       34.7984142534       15.1477053365  WZ3       3838            0.0000000000
     22635      7545  TIP3      H2             -3.1929703985       36.2894742534       15.3134953365  WZ3       3838            0.0000000000
     22636      7546  TIP3      OH2           -21.5393903985       36.2271842534       10.2354553365  WZ3       3844            0.0000000000
     22637      7546  TIP3      H1            -22.2043403985       35.9812142534       10.8785453365  WZ3       3844            0.0000000000
     22638      7546  TIP3      H2            -21.9822603985       36.8492242534        9.6582553365  WZ3       3844            0.0000000000
     22639      7547  TIP3      OH2            -4.8196103985       35.6511542534       11.9214453365  WZ3       3845            0.0000000000
     22640      7547  TIP3      H1             -5.6322603985       35.9761842534       11.5339153365  WZ3       3845            0.0000000000
     22641      7547  TIP3      H2             -4.5867603985       34.8910042534       11.3883553365  WZ3       3845            0.0000000000
     22642      7548  TIP3      OH2           -11.3897603985       37.1002142534        6.2442653365  WZ3       3846            0.0000000000
     22643      7548  TIP3      H1            -12.0640803985       36.4707742534        6.4998453365  WZ3       3846            0.0000000000
     22644      7548  TIP3      H2            -10.8258403985       36.6161042534        5.6410553365  WZ3       3846            0.0000000000
     22645      7549  TIP3      OH2            -6.2470403985       35.2076142534        6.3569753365  WZ3       3847            0.0000000000
     22646      7549  TIP3      H1             -5.6432803985       35.7551542534        5.8550753365  WZ3       3847            0.0000000000
     22647      7549  TIP3      H2             -7.1168403985       35.5266542534        6.1163853365  WZ3       3847            0.0000000000
     22648      7550  TIP3      OH2            -4.5200003985       36.3464842534        4.6900653365  WZ3       3848            0.0000000000
     22649      7550  TIP3      H1             -3.9082503985       35.8320542534        4.1634253365  WZ3       3848            0.0000000000
     22650      7550  TIP3      H2             -4.1376603985       37.2236942534        4.7135053365  WZ3       3848            0.0000000000
     22651      7551  TIP3      OH2           -19.0630103985       35.7342442534        4.0662553365  WZ3       3849            0.0000000000
     22652      7551  TIP3      H1            -19.8400303985       35.4997342534        3.5588453365  WZ3       3849            0.0000000000
     22653      7551  TIP3      H2            -18.5326503985       34.9374542534        4.0750553365  WZ3       3849            0.0000000000
     22654      7552  TIP3      OH2           -20.2266703985       35.5320542534       -0.1301346635  WZ3       3850            0.0000000000
     22655      7552  TIP3      H1            -19.7876003985       36.1431042534       -0.7217846635  WZ3       3850            0.0000000000
     22656      7552  TIP3      H2            -20.8604303985       36.0704642534        0.3438653365  WZ3       3850            0.0000000000
     22657      7553  TIP3      OH2           -14.4837503985       35.6609542534        3.8795653365  WZ3       3851            0.0000000000
     22658      7553  TIP3      H1            -13.6094103985       36.0493842534        3.8499953365  WZ3       3851            0.0000000000
     22659      7553  TIP3      H2            -14.6196703985       35.4457342534        4.8022853365  WZ3       3851            0.0000000000
     22660      7554  TIP3      OH2            -8.9269103985       35.6909342534        5.5287353365  WZ3       3852            0.0000000000
     22661      7554  TIP3      H1             -8.8507503985       35.7860942534        4.5793353365  WZ3       3852            0.0000000000
     22662      7554  TIP3      H2             -9.2019903985       34.7832242534        5.6576453365  WZ3       3852            0.0000000000
     22663      7555  TIP3      OH2            -7.5736503985       35.7167142534        1.2212353365  WZ3       3853            0.0000000000
     22664      7555  TIP3      H1             -8.2765403985       36.3316342534        1.0113753365  WZ3       3853            0.0000000000
     22665      7555  TIP3      H2             -8.0185103985       34.8793842534        1.3523253365  WZ3       3853            0.0000000000
     22666      7556  TIP3      OH2           -19.1052103985       36.2484342534       13.5838753365  WZ3       3856            0.0000000000
     22667      7556  TIP3      H1            -19.4713903985       35.4826942534       14.0263453365  WZ3       3856            0.0000000000
     22668      7556  TIP3      H2            -18.1923603985       36.2774542534       13.8703853365  WZ3       3856            0.0000000000
     22669      7557  TIP3      OH2           -17.1321303985       35.5988742534       15.1195853365  WZ3       3857            0.0000000000
     22670      7557  TIP3      H1            -16.2337703985       35.3248942534       14.9349253365  WZ3       3857            0.0000000000
     22671      7557  TIP3      H2            -17.5188203985       34.8564742534       15.5838453365  WZ3       3857            0.0000000000
     22672      7558  TIP3      OH2            -8.7109003985       34.9314042534       15.3018653365  WZ3       3858            0.0000000000
     22673      7558  TIP3      H1             -8.6341803985       34.5054742534       16.1556353365  WZ3       3858            0.0000000000
     22674      7558  TIP3      H2             -7.8172403985       34.9448742534       14.9592153365  WZ3       3858            0.0000000000
     22675      7559  TIP3      OH2             5.3260096015       35.2969142534        6.9764553365  WZ3       3867            0.0000000000
     22676      7559  TIP3      H1              5.2084296015       34.3485142534        6.9222853365  WZ3       3867            0.0000000000
     22677      7559  TIP3      H2              4.4710196015       35.6295242534        7.2495653365  WZ3       3867            0.0000000000
     22678      7560  TIP3      OH2            13.5680596015       35.2561342534       -0.0732846635  WZ3       3868            0.0000000000
     22679      7560  TIP3      H1             12.6681296015       35.3950342534        0.2217753365  WZ3       3868            0.0000000000
     22680      7560  TIP3      H2             13.8198996015       36.0875942534       -0.4751146635  WZ3       3868            0.0000000000
     22681      7561  TIP3      OH2             2.5947696015       36.2003642534        7.7540853365  WZ3       3869            0.0000000000
     22682      7561  TIP3      H1              1.7331396015       36.1131842534        7.3463753365  WZ3       3869            0.0000000000
     22683      7561  TIP3      H2              2.5723396015       37.0563742534        8.1818453365  WZ3       3869            0.0000000000
     22684      7562  TIP3      OH2             7.2575496015       35.9224042534       11.1287853365  WZ3       3870            0.0000000000
     22685      7562  TIP3      H1              7.6778596015       35.5071142534       11.8818453365  WZ3       3870            0.0000000000
     22686      7562  TIP3      H2              6.3245096015       35.7437342534       11.2459853365  WZ3       3870            0.0000000000
     22687      7563  TIP3      OH2             0.1646296015       35.8507142534        6.7727153365  WZ3       3891            0.0000000000
     22688      7563  TIP3      H1             -0.0643903985       35.9099642534        5.8452153365  WZ3       3891            0.0000000000
     22689      7563  TIP3      H2             -0.2780303985       35.0592642534        7.0791253365  WZ3       3891            0.0000000000
     22690      7564  TIP3      OH2             4.6274496015       35.6043342534       11.0181553365  WZ3       3894            0.0000000000
     22691      7564  TIP3      H1              4.5294096015       36.5506542534       10.9127753365  WZ3       3894            0.0000000000
     22692      7564  TIP3      H2              3.8850696015       35.2317142534       10.5425053365  WZ3       3894            0.0000000000
     22693      7565  TIP3      OH2             4.8492596015       34.8980742534       13.6894353365  WZ3       3899            0.0000000000
     22694      7565  TIP3      H1              5.5610996015       34.2582942534       13.6753453365  WZ3       3899            0.0000000000
     22695      7565  TIP3      H2              4.7482996015       35.1649042534       12.7757453365  WZ3       3899            0.0000000000
     22696      7566  TIP3      OH2             5.2030096015       36.5809142534       15.7430653365  WZ3       3900            0.0000000000
     22697      7566  TIP3      H1              5.0712296015       36.1052942534       14.9229153365  WZ3       3900            0.0000000000
     22698      7566  TIP3      H2              4.6037496015       37.3252742534       15.6877753365  WZ3       3900            0.0000000000
     22699      7567  TIP3      OH2            15.5160796015       35.4520642534       15.7532353365  WZ3       3905            0.0000000000
     22700      7567  TIP3      H1             15.8657796015       34.7984142534       15.1477053365  WZ3       3905            0.0000000000
     22701      7567  TIP3      H2             15.6630296015       36.2894742534       15.3134953365  WZ3       3905            0.0000000000
     22702      7568  TIP3      OH2            -2.6833903985       36.2271842534       10.2354553365  WZ3       3911            0.0000000000
     22703      7568  TIP3      H1             -3.3483403985       35.9812142534       10.8785453365  WZ3       3911            0.0000000000
     22704      7568  TIP3      H2             -3.1262603985       36.8492242534        9.6582553365  WZ3       3911            0.0000000000
     22705      7569  TIP3      OH2            14.0363896015       35.6511542534       11.9214453365  WZ3       3912            0.0000000000
     22706      7569  TIP3      H1             13.2237396015       35.9761842534       11.5339153365  WZ3       3912            0.0000000000
     22707      7569  TIP3      H2             14.2692396015       34.8910042534       11.3883553365  WZ3       3912            0.0000000000
     22708      7570  TIP3      OH2             7.4662396015       37.1002142534        6.2442653365  WZ3       3913            0.0000000000
     22709      7570  TIP3      H1              6.7919196015       36.4707742534        6.4998453365  WZ3       3913            0.0000000000
     22710      7570  TIP3      H2              8.0301596015       36.6161042534        5.6410553365  WZ3       3913            0.0000000000
     22711      7571  TIP3      OH2            12.6089596015       35.2076142534        6.3569753365  WZ3       3914            0.0000000000
     22712      7571  TIP3      H1             13.2127196015       35.7551542534        5.8550753365  WZ3       3914            0.0000000000
     22713      7571  TIP3      H2             11.7391596015       35.5266542534        6.1163853365  WZ3       3914            0.0000000000
     22714      7572  TIP3      OH2            14.3359996015       36.3464842534        4.6900653365  WZ3       3915            0.0000000000
     22715      7572  TIP3      H1             14.9477496015       35.8320542534        4.1634253365  WZ3       3915            0.0000000000
     22716      7572  TIP3      H2             14.7183396015       37.2236942534        4.7135053365  WZ3       3915            0.0000000000
     22717      7573  TIP3      OH2            -0.2070103985       35.7342442534        4.0662553365  WZ3       3916            0.0000000000
     22718      7573  TIP3      H1             -0.9840303985       35.4997342534        3.5588453365  WZ3       3916            0.0000000000
     22719      7573  TIP3      H2              0.3233496015       34.9374542534        4.0750553365  WZ3       3916            0.0000000000
     22720      7574  TIP3      OH2            -1.3706703985       35.5320542534       -0.1301346635  WZ3       3917            0.0000000000
     22721      7574  TIP3      H1             -0.9316003985       36.1431042534       -0.7217846635  WZ3       3917            0.0000000000
     22722      7574  TIP3      H2             -2.0044303985       36.0704642534        0.3438653365  WZ3       3917            0.0000000000
     22723      7575  TIP3      OH2             4.3722496015       35.6609542534        3.8795653365  WZ3       3918            0.0000000000
     22724      7575  TIP3      H1              5.2465896015       36.0493842534        3.8499953365  WZ3       3918            0.0000000000
     22725      7575  TIP3      H2              4.2363296015       35.4457342534        4.8022853365  WZ3       3918            0.0000000000
     22726      7576  TIP3      OH2             9.9290896015       35.6909342534        5.5287353365  WZ3       3919            0.0000000000
     22727      7576  TIP3      H1             10.0052496015       35.7860942534        4.5793353365  WZ3       3919            0.0000000000
     22728      7576  TIP3      H2              9.6540096015       34.7832242534        5.6576453365  WZ3       3919            0.0000000000
     22729      7577  TIP3      OH2            11.2823496015       35.7167142534        1.2212353365  WZ3       3920            0.0000000000
     22730      7577  TIP3      H1             10.5794596015       36.3316342534        1.0113753365  WZ3       3920            0.0000000000
     22731      7577  TIP3      H2             10.8374896015       34.8793842534        1.3523253365  WZ3       3920            0.0000000000
     22732      7578  TIP3      OH2            -0.2492103985       36.2484342534       13.5838753365  WZ3       3923            0.0000000000
     22733      7578  TIP3      H1             -0.6153903985       35.4826942534       14.0263453365  WZ3       3923            0.0000000000
     22734      7578  TIP3      H2              0.6636396015       36.2774542534       13.8703853365  WZ3       3923            0.0000000000
     22735      7579  TIP3      OH2             1.7238696015       35.5988742534       15.1195853365  WZ3       3924            0.0000000000
     22736      7579  TIP3      H1              2.6222296015       35.3248942534       14.9349253365  WZ3       3924            0.0000000000
     22737      7579  TIP3      H2              1.3371796015       34.8564742534       15.5838453365  WZ3       3924            0.0000000000
     22738      7580  TIP3      OH2            10.1450996015       34.9314042534       15.3018653365  WZ3       3925            0.0000000000
     22739      7580  TIP3      H1             10.2218196015       34.5054742534       16.1556353365  WZ3       3925            0.0000000000
     22740      7580  TIP3      H2             11.0387596015       34.9448742534       14.9592153365  WZ3       3925            0.0000000000
     22741      7581  TIP3      OH2            24.1820096015       35.2969142534        6.9764553365  WZ3       3934            0.0000000000
     22742      7581  TIP3      H1             24.0644296015       34.3485142534        6.9222853365  WZ3       3934            0.0000000000
     22743      7581  TIP3      H2             23.3270196015       35.6295242534        7.2495653365  WZ3       3934            0.0000000000
     22744      7582  TIP3      OH2            21.4507696015       36.2003642534        7.7540853365  WZ3       3936            0.0000000000
     22745      7582  TIP3      H1             20.5891396015       36.1131842534        7.3463753365  WZ3       3936            0.0000000000
     22746      7582  TIP3      H2             21.4283396015       37.0563742534        8.1818453365  WZ3       3936            0.0000000000
     22747      7583  TIP3      OH2            26.1135496015       35.9224042534       11.1287853365  WZ3       3937            0.0000000000
     22748      7583  TIP3      H1             26.5338596015       35.5071142534       11.8818453365  WZ3       3937            0.0000000000
     22749      7583  TIP3      H2             25.1805096015       35.7437342534       11.2459853365  WZ3       3937            0.0000000000
     22750      7584  TIP3      OH2            19.0206296015       35.8507142534        6.7727153365  WZ3       3958            0.0000000000
     22751      7584  TIP3      H1             18.7916096015       35.9099642534        5.8452153365  WZ3       3958            0.0000000000
     22752      7584  TIP3      H2             18.5779696015       35.0592642534        7.0791253365  WZ3       3958            0.0000000000
     22753      7585  TIP3      OH2            23.4834496015       35.6043342534       11.0181553365  WZ3       3961            0.0000000000
     22754      7585  TIP3      H1             23.3854096015       36.5506542534       10.9127753365  WZ3       3961            0.0000000000
     22755      7585  TIP3      H2             22.7410696015       35.2317142534       10.5425053365  WZ3       3961            0.0000000000
     22756      7586  TIP3      OH2            23.7052596015       34.8980742534       13.6894353365  WZ3       3966            0.0000000000
     22757      7586  TIP3      H1             24.4170996015       34.2582942534       13.6753453365  WZ3       3966            0.0000000000
     22758      7586  TIP3      H2             23.6042996015       35.1649042534       12.7757453365  WZ3       3966            0.0000000000
     22759      7587  TIP3      OH2            24.0590096015       36.5809142534       15.7430653365  WZ3       3967            0.0000000000
     22760      7587  TIP3      H1             23.9272296015       36.1052942534       14.9229153365  WZ3       3967            0.0000000000
     22761      7587  TIP3      H2             23.4597496015       37.3252742534       15.6877753365  WZ3       3967            0.0000000000
     22762      7588  TIP3      OH2            16.1726096015       36.2271842534       10.2354553365  WZ3       3978            0.0000000000
     22763      7588  TIP3      H1             15.5076596015       35.9812142534       10.8785453365  WZ3       3978            0.0000000000
     22764      7588  TIP3      H2             15.7297396015       36.8492242534        9.6582553365  WZ3       3978            0.0000000000
     22765      7589  TIP3      OH2            26.3222396015       37.1002142534        6.2442653365  WZ3       3980            0.0000000000
     22766      7589  TIP3      H1             25.6479196015       36.4707742534        6.4998453365  WZ3       3980            0.0000000000
     22767      7589  TIP3      H2             26.8861596015       36.6161042534        5.6410553365  WZ3       3980            0.0000000000
     22768      7590  TIP3      OH2            18.6489896015       35.7342442534        4.0662553365  WZ3       3983            0.0000000000
     22769      7590  TIP3      H1             17.8719696015       35.4997342534        3.5588453365  WZ3       3983            0.0000000000
     22770      7590  TIP3      H2             19.1793496015       34.9374542534        4.0750553365  WZ3       3983            0.0000000000
     22771      7591  TIP3      OH2            17.4853296015       35.5320542534       -0.1301346635  WZ3       3984            0.0000000000
     22772      7591  TIP3      H1             17.9243996015       36.1431042534       -0.7217846635  WZ3       3984            0.0000000000
     22773      7591  TIP3      H2             16.8515696015       36.0704642534        0.3438653365  WZ3       3984            0.0000000000
     22774      7592  TIP3      OH2            23.2282496015       35.6609542534        3.8795653365  WZ3       3985            0.0000000000
     22775      7592  TIP3      H1             24.1025896015       36.0493842534        3.8499953365  WZ3       3985            0.0000000000
     22776      7592  TIP3      H2             23.0923296015       35.4457342534        4.8022853365  WZ3       3985            0.0000000000
     22777      7593  TIP3      OH2            18.6067896015       36.2484342534       13.5838753365  WZ3       3990            0.0000000000
     22778      7593  TIP3      H1             18.2406096015       35.4826942534       14.0263453365  WZ3       3990            0.0000000000
     22779      7593  TIP3      H2             19.5196396015       36.2774542534       13.8703853365  WZ3       3990            0.0000000000
     22780      7594  TIP3      OH2            20.5798696015       35.5988742534       15.1195853365  WZ3       3991            0.0000000000
     22781      7594  TIP3      H1             21.4782296015       35.3248942534       14.9349253365  WZ3       3991            0.0000000000
     22782      7594  TIP3      H2             20.1931796015       34.8564742534       15.5838453365  WZ3       3991            0.0000000000
     22783      7595  TIP3      OH2           -22.9548003985      -25.8016257466       17.1591053365  WZ4       46              0.0000000000
     22784      7595  TIP3      H1            -22.8814503985      -24.8626057466       17.3296353365  WZ4       46              0.0000000000
     22785      7595  TIP3      H2            -22.0492903985      -26.1067657466       17.1028353365  WZ4       46              0.0000000000
     22786      7596  TIP3      OH2           -27.5423803985      -23.0705657466       17.8222153365  WZ4       53              0.0000000000
     22787      7596  TIP3      H1            -27.1675403985      -23.8149557466       17.3514753365  WZ4       53              0.0000000000
     22788      7596  TIP3      H2            -27.5380103985      -23.3405057466       18.7405453365  WZ4       53              0.0000000000
     22789      7597  TIP3      OH2           -26.3654703985      -30.8850757466       16.5995353365  WZ4       60              0.0000000000
     22790      7597  TIP3      H1            -26.3233903985      -31.1076857466       15.6695353365  WZ4       60              0.0000000000
     22791      7597  TIP3      H2            -25.5162603985      -30.4863657466       16.7895253365  WZ4       60              0.0000000000
     22792      7598  TIP3      OH2           -24.1608903985      -25.5440357466       19.7090353365  WZ4       94              0.0000000000
     22793      7598  TIP3      H1            -24.5337803985      -26.3696557466       20.0180953365  WZ4       94              0.0000000000
     22794      7598  TIP3      H2            -23.8835403985      -25.7270957466       18.8113753365  WZ4       94              0.0000000000
     22795      7599  TIP3      OH2           -26.7683303985      -27.5674557466       17.5290953365  WZ4       102             0.0000000000
     22796      7599  TIP3      H1            -26.4150203985      -27.9474757466       18.3334453365  WZ4       102             0.0000000000
     22797      7599  TIP3      H2            -27.7169803985      -27.6609757466       17.6160253365  WZ4       102             0.0000000000
     22798      7600  TIP3      OH2           -22.2648903985      -23.0882057466       17.7301153365  WZ4       104             0.0000000000
     22799      7600  TIP3      H1            -21.5211003985      -22.5021557466       17.5902753365  WZ4       104             0.0000000000
     22800      7600  TIP3      H2            -22.9590803985      -22.5196257466       18.0633553365  WZ4       104             0.0000000000
     22801      7601  TIP3      OH2           -30.6393703985      -24.5927057466       16.1146953365  WZ4       128             0.0000000000
     22802      7601  TIP3      H1            -31.2832703985      -25.2238457466       16.4360653365  WZ4       128             0.0000000000
     22803      7601  TIP3      H2            -29.8775403985      -25.1239057466       15.8830453365  WZ4       128             0.0000000000
     22804      7602  TIP3      OH2           -26.0350803985      -24.7757157466       16.3484953365  WZ4       130             0.0000000000
     22805      7602  TIP3      H1            -25.7520403985      -25.5701957466       16.8011853365  WZ4       130             0.0000000000
     22806      7602  TIP3      H2            -25.2952903985      -24.5426157466       15.7876053365  WZ4       130             0.0000000000
     22807      7603  TIP3      OH2           -29.7280103985      -27.8190557466       15.9417853365  WZ4       134             0.0000000000
     22808      7603  TIP3      H1            -29.9966003985      -27.6388457466       16.8426753365  WZ4       134             0.0000000000
     22809      7603  TIP3      H2            -29.9344503985      -28.7444357466       15.8103653365  WZ4       134             0.0000000000
     22810      7604  TIP3      OH2           -23.4701003985      -30.2960057466       16.2199153365  WZ4       141             0.0000000000
     22811      7604  TIP3      H1            -23.7436203985      -30.7204557466       15.4067453365  WZ4       141             0.0000000000
     22812      7604  TIP3      H2            -23.4306903985      -29.3645557466       16.0029553365  WZ4       141             0.0000000000
     22813      7605  TIP3      OH2           -32.9627603985      -21.9600557466       17.7754653365  WZ4       155             0.0000000000
     22814      7605  TIP3      H1            -32.0296903985      -21.8021857466       17.9193053365  WZ4       155             0.0000000000
     22815      7605  TIP3      H2            -33.2268803985      -21.2847557466       17.1506153365  WZ4       155             0.0000000000
     22816      7606  TIP3      OH2           -22.3489503985      -31.4726057466       18.4096553365  WZ4       166             0.0000000000
     22817      7606  TIP3      H1            -22.8708403985      -31.1161957466       17.6907453365  WZ4       166             0.0000000000
     22818      7606  TIP3      H2            -22.3820303985      -30.7978257466       19.0877453365  WZ4       166             0.0000000000
     22819      7607  TIP3      OH2           -24.0000503985      -34.2330457466       16.9603653365  WZ4       167             0.0000000000
     22820      7607  TIP3      H1            -23.9036103985      -33.5663457466       16.2803353365  WZ4       167             0.0000000000
     22821      7607  TIP3      H2            -24.1400903985      -35.0484157466       16.4789153365  WZ4       167             0.0000000000
     22822      7608  TIP3      OH2           -30.3173703985      -22.7342357466       18.0209953365  WZ4       210             0.0000000000
     22823      7608  TIP3      H1            -29.4513503985      -22.3674957466       17.8428153365  WZ4       210             0.0000000000
     22824      7608  TIP3      H2            -30.5640903985      -23.1734357466       17.2070753365  WZ4       210             0.0000000000
     22825      7609  TIP3      OH2           -23.6084103985      -23.1712057466       20.7001053365  WZ4       211             0.0000000000
     22826      7609  TIP3      H1            -23.8027003985      -23.9189957466       20.1350653365  WZ4       211             0.0000000000
     22827      7609  TIP3      H2            -23.6474003985      -22.4131957466       20.1168953365  WZ4       211             0.0000000000
     22828      7610  TIP3      OH2            -9.9847503985      -30.5335257466       22.8810053365  WZ4       217             0.0000000000
     22829      7610  TIP3      H1             -9.8956403985      -29.5897057466       22.7487153365  WZ4       217             0.0000000000
     22830      7610  TIP3      H2            -10.6229903985      -30.8088857466       22.2229453365  WZ4       217             0.0000000000
     22831      7611  TIP3      OH2            -7.3456003985      -28.3394157466       24.6013353365  WZ4       220             0.0000000000
     22832      7611  TIP3      H1             -7.7863303985      -29.0598157466       25.0518953365  WZ4       220             0.0000000000
     22833      7611  TIP3      H2             -7.3586303985      -27.6186957466       25.2311053365  WZ4       220             0.0000000000
     22834      7612  TIP3      OH2           -10.2340503985      -23.2352457466       24.8133753365  WZ4       224             0.0000000000
     22835      7612  TIP3      H1             -9.6144103985      -23.9117757466       24.5402953365  WZ4       224             0.0000000000
     22836      7612  TIP3      H2            -10.4423103985      -23.4531657466       25.7218653365  WZ4       224             0.0000000000
     22837      7613  TIP3      OH2            -3.9992003985      -37.2447857466       27.5665453365  WZ4       226             0.0000000000
     22838      7613  TIP3      H1             -3.9499803985      -36.6346657466       28.3024553365  WZ4       226             0.0000000000
     22839      7613  TIP3      H2             -3.5736903985      -36.7836957466       26.8436553365  WZ4       226             0.0000000000
     22840      7614  TIP3      OH2            -8.6443803985      -36.2198757466       22.7067153365  WZ4       229             0.0000000000
     22841      7614  TIP3      H1             -7.9979503985      -36.5485557466       23.3314753365  WZ4       229             0.0000000000
     22842      7614  TIP3      H2             -8.1344403985      -35.7019757466       22.0838553365  WZ4       229             0.0000000000
     22843      7615  TIP3      OH2           -10.1874803985      -27.9324857466       21.9238753365  WZ4       234             0.0000000000
     22844      7615  TIP3      H1            -10.4829703985      -28.2552557466       21.0725653365  WZ4       234             0.0000000000
     22845      7615  TIP3      H2            -10.5117003985      -27.0328157466       21.9651353365  WZ4       234             0.0000000000
     22846      7616  TIP3      OH2           -20.4588003985      -28.1219357466       20.2364153365  WZ4       239             0.0000000000
     22847      7616  TIP3      H1            -20.7307103985      -27.8928357466       19.3477053365  WZ4       239             0.0000000000
     22848      7616  TIP3      H2            -20.4132303985      -27.2840557466       20.6969453365  WZ4       239             0.0000000000
     22849      7617  TIP3      OH2            -6.8338303985      -26.5003457466       26.9492653365  WZ4       240             0.0000000000
     22850      7617  TIP3      H1             -7.7754603985      -26.4419557466       27.1109553365  WZ4       240             0.0000000000
     22851      7617  TIP3      H2             -6.5572203985      -25.5942957466       26.8122353365  WZ4       240             0.0000000000
     22852      7618  TIP3      OH2            -8.5817103985      -24.7189957466       23.5744253365  WZ4       243             0.0000000000
     22853      7618  TIP3      H1             -8.1564803985      -25.4262057466       23.0893853365  WZ4       243             0.0000000000
     22854      7618  TIP3      H2             -8.2647103985      -23.9177257466       23.1576453365  WZ4       243             0.0000000000
     22855      7619  TIP3      OH2            -7.4220603985      -26.8181457466       22.0830853365  WZ4       244             0.0000000000
     22856      7619  TIP3      H1             -7.6795803985      -27.5081357466       21.4716753365  WZ4       244             0.0000000000
     22857      7619  TIP3      H2             -7.3509803985      -27.2610257466       22.9286753365  WZ4       244             0.0000000000
     22858      7620  TIP3      OH2            -5.7360403985      -28.2514757466       30.5604353365  WZ4       245             0.0000000000
     22859      7620  TIP3      H1             -5.5964103985      -28.8432257466       29.8211353365  WZ4       245             0.0000000000
     22860      7620  TIP3      H2             -5.5687603985      -27.3788857466       30.2043153365  WZ4       245             0.0000000000
     22861      7621  TIP3      OH2           -11.2635003985      -31.2895257466       20.3330353365  WZ4       246             0.0000000000
     22862      7621  TIP3      H1            -11.9749503985      -30.7545557466       19.9810853365  WZ4       246             0.0000000000
     22863      7621  TIP3      H2            -10.5725403985      -31.2343157466       19.6729253365  WZ4       246             0.0000000000
     22864      7622  TIP3      OH2           -11.2095803985      -32.8320957466       17.3715353365  WZ4       247             0.0000000000
     22865      7622  TIP3      H1            -10.5085903985      -32.8094057466       18.0229353365  WZ4       247             0.0000000000
     22866      7622  TIP3      H2            -10.9072903985      -33.4601257466       16.7154653365  WZ4       247             0.0000000000
     22867      7623  TIP3      OH2            -3.8941103985      -31.9116757466       28.6264753365  WZ4       248             0.0000000000
     22868      7623  TIP3      H1             -4.5467003985      -31.2171157466       28.7155653365  WZ4       248             0.0000000000
     22869      7623  TIP3      H2             -3.4290803985      -31.7015857466       27.8166353365  WZ4       248             0.0000000000
     22870      7624  TIP3      OH2            -7.8577303985      -31.0801957466       21.2846253365  WZ4       249             0.0000000000
     22871      7624  TIP3      H1             -8.5896303985      -30.8518257466       21.8576853365  WZ4       249             0.0000000000
     22872      7624  TIP3      H2             -7.4105103985      -31.7939257466       21.7393753365  WZ4       249             0.0000000000
     22873      7625  TIP3      OH2           -16.2123603985      -30.4495757466       23.1671253365  WZ4       251             0.0000000000
     22874      7625  TIP3      H1            -16.5428403985      -30.8202357466       22.3488253365  WZ4       251             0.0000000000
     22875      7625  TIP3      H2            -15.6239503985      -31.1201757466       23.5139553365  WZ4       251             0.0000000000
     22876      7626  TIP3      OH2           -14.8456103985      -27.0215157466       25.8483453365  WZ4       252             0.0000000000
     22877      7626  TIP3      H1            -14.9404803985      -27.6002057466       25.0918053365  WZ4       252             0.0000000000
     22878      7626  TIP3      H2            -14.1162503985      -27.3929457466       26.3446253365  WZ4       252             0.0000000000
     22879      7627  TIP3      OH2            -9.5365903985      -26.1778257466       27.5346753365  WZ4       254             0.0000000000
     22880      7627  TIP3      H1             -9.7769303985      -25.5155157466       28.1825953365  WZ4       254             0.0000000000
     22881      7627  TIP3      H2             -9.7347703985      -27.0123057466       27.9596353365  WZ4       254             0.0000000000
     22882      7628  TIP3      OH2            -8.9867803985      -31.9179057466       18.9697453365  WZ4       256             0.0000000000
     22883      7628  TIP3      H1             -8.4072303985      -31.7678757466       19.7166353365  WZ4       256             0.0000000000
     22884      7628  TIP3      H2             -8.5727803985      -31.4471657466       18.2463853365  WZ4       256             0.0000000000
     22885      7629  TIP3      OH2           -11.2602903985      -25.1810557466       22.4050553365  WZ4       258             0.0000000000
     22886      7629  TIP3      H1            -10.7865303985      -24.8854257466       23.1824753365  WZ4       258             0.0000000000
     22887      7629  TIP3      H2            -11.8233603985      -24.4428957466       22.1720153365  WZ4       258             0.0000000000
     22888      7630  TIP3      OH2           -17.2220903985      -31.3801457466       20.7564053365  WZ4       261             0.0000000000
     22889      7630  TIP3      H1            -17.5139603985      -30.6119757466       20.2655353365  WZ4       261             0.0000000000
     22890      7630  TIP3      H2            -17.8965703985      -32.0395257466       20.5935453365  WZ4       261             0.0000000000
     22891      7631  TIP3      OH2            -4.0988003985      -25.8016257466       17.1591053365  WZ4       262             0.0000000000
     22892      7631  TIP3      H1             -4.0254503985      -24.8626057466       17.3296353365  WZ4       262             0.0000000000
     22893      7631  TIP3      H2             -3.1932903985      -26.1067657466       17.1028353365  WZ4       262             0.0000000000
     22894      7632  TIP3      OH2            -3.1809603985      -25.5708757466       32.1377753365  WZ4       265             0.0000000000
     22895      7632  TIP3      H1             -3.2302803985      -26.5260657466       32.1005353365  WZ4       265             0.0000000000
     22896      7632  TIP3      H2             -4.0077303985      -25.3033457466       32.5391553365  WZ4       265             0.0000000000
     22897      7633  TIP3      OH2           -11.7879803985      -22.2245857466       20.8199753365  WZ4       267             0.0000000000
     22898      7633  TIP3      H1            -11.8633803985      -22.3458657466       19.8734953365  WZ4       267             0.0000000000
     22899      7633  TIP3      H2            -11.7551103985      -21.2753157466       20.9384353365  WZ4       267             0.0000000000
     22900      7634  TIP3      OH2           -18.1346003985      -23.4358857466       22.6008753365  WZ4       268             0.0000000000
     22901      7634  TIP3      H1            -17.9825603985      -23.7838457466       23.4795253365  WZ4       268             0.0000000000
     22902      7634  TIP3      H2            -18.9855603985      -23.7921557466       22.3455953365  WZ4       268             0.0000000000
     22903      7635  TIP3      OH2            -8.6863803985      -23.0705657466       17.8222153365  WZ4       269             0.0000000000
     22904      7635  TIP3      H1             -8.3115403985      -23.8149557466       17.3514753365  WZ4       269             0.0000000000
     22905      7635  TIP3      H2             -8.6820103985      -23.3405057466       18.7405453365  WZ4       269             0.0000000000
     22906      7636  TIP3      OH2            -9.0175703985      -23.1448557466       20.5714353365  WZ4       270             0.0000000000
     22907      7636  TIP3      H1             -9.9525903985      -23.0446657466       20.7501353365  WZ4       270             0.0000000000
     22908      7636  TIP3      H2             -8.7373803985      -23.8542557466       21.1497553365  WZ4       270             0.0000000000
     22909      7637  TIP3      OH2            -7.5094703985      -30.8850757466       16.5995353365  WZ4       276             0.0000000000
     22910      7637  TIP3      H1             -7.4673903985      -31.1076857466       15.6695353365  WZ4       276             0.0000000000
     22911      7637  TIP3      H2             -6.6602603985      -30.4863657466       16.7895253365  WZ4       276             0.0000000000
     22912      7638  TIP3      OH2           -10.6377603985      -33.6211457466       21.4341853365  WZ4       280             0.0000000000
     22913      7638  TIP3      H1            -11.0467303985      -32.8062857466       21.1426653365  WZ4       280             0.0000000000
     22914      7638  TIP3      H2             -9.9171403985      -33.7611357466       20.8198953365  WZ4       280             0.0000000000
     22915      7639  TIP3      OH2            -9.6329903985      -34.1751057466       24.2481553365  WZ4       282             0.0000000000
     22916      7639  TIP3      H1             -9.8285403985      -33.5694257466       23.5332153365  WZ4       282             0.0000000000
     22917      7639  TIP3      H2             -9.4517303985      -35.0085857466       23.8137853365  WZ4       282             0.0000000000
     22918      7640  TIP3      OH2           -15.0544303985      -36.5636057466       16.3709053365  WZ4       284             0.0000000000
     22919      7640  TIP3      H1            -15.4853603985      -37.0085957466       17.1006453365  WZ4       284             0.0000000000
     22920      7640  TIP3      H2            -15.7725603985      -36.1919757466       15.8586553365  WZ4       284             0.0000000000
     22921      7641  TIP3      OH2           -20.5378803985      -36.0754557466       18.8468153365  WZ4       286             0.0000000000
     22922      7641  TIP3      H1            -20.0637103985      -35.4844657466       18.2619053365  WZ4       286             0.0000000000
     22923      7641  TIP3      H2            -21.2552403985      -35.5451657466       19.1938253365  WZ4       286             0.0000000000
     22924      7642  TIP3      OH2           -15.1102603985      -34.9805357466       20.1867353365  WZ4       290             0.0000000000
     22925      7642  TIP3      H1            -14.1787103985      -34.8515357466       20.3650453365  WZ4       290             0.0000000000
     22926      7642  TIP3      H2            -15.3252303985      -34.3111057466       19.5372053365  WZ4       290             0.0000000000
     22927      7643  TIP3      OH2           -16.4362403985      -33.7863157466       17.7533453365  WZ4       292             0.0000000000
     22928      7643  TIP3      H1            -16.9787303985      -34.1659357466       17.0621053365  WZ4       292             0.0000000000
     22929      7643  TIP3      H2            -15.6027503985      -33.5918457466       17.3247553365  WZ4       292             0.0000000000
     22930      7644  TIP3      OH2            -5.8990803985      -21.7032557466       33.2444553365  WZ4       293             0.0000000000
     22931      7644  TIP3      H1             -5.6992103985      -21.2790657466       32.4099853365  WZ4       293             0.0000000000
     22932      7644  TIP3      H2             -5.2437103985      -21.3594357466       33.8514953365  WZ4       293             0.0000000000
     22933      7645  TIP3      OH2           -13.1009603985      -29.2207457466       19.6891553365  WZ4       298             0.0000000000
     22934      7645  TIP3      H1            -13.8458603985      -29.7282157466       19.3669453365  WZ4       298             0.0000000000
     22935      7645  TIP3      H2            -13.2352403985      -29.1719457466       20.6356353365  WZ4       298             0.0000000000
     22936      7646  TIP3      OH2            -5.9510703985      -30.0879257466       28.4759153365  WZ4       299             0.0000000000
     22937      7646  TIP3      H1             -5.3091903985      -29.6312957466       27.9321353365  WZ4       299             0.0000000000
     22938      7646  TIP3      H2             -6.7813803985      -29.9746857466       28.0133253365  WZ4       299             0.0000000000
     22939      7647  TIP3      OH2            -9.2032803985      -36.4067557466       17.8884153365  WZ4       300             0.0000000000
     22940      7647  TIP3      H1            -10.1418603985      -36.2951957466       17.7372953365  WZ4       300             0.0000000000
     22941      7647  TIP3      H2             -8.9060703985      -35.5500657466       18.1949853365  WZ4       300             0.0000000000
     22942      7648  TIP3      OH2            -8.4849303985      -34.5394857466       19.5491553365  WZ4       302             0.0000000000
     22943      7648  TIP3      H1             -7.5930303985      -34.6769857466       19.8682753365  WZ4       302             0.0000000000
     22944      7648  TIP3      H2             -8.4285703985      -33.7488757466       19.0125053365  WZ4       302             0.0000000000
     22945      7649  TIP3      OH2           -10.9755503985      -27.7623157466       18.7146153365  WZ4       304             0.0000000000
     22946      7649  TIP3      H1            -11.2707103985      -26.9355257466       19.0960953365  WZ4       304             0.0000000000
     22947      7649  TIP3      H2            -11.6785503985      -28.3816257466       18.9107553365  WZ4       304             0.0000000000
     22948      7650  TIP3      OH2            -3.6000603985      -34.3300757466       19.2438253365  WZ4       308             0.0000000000
     22949      7650  TIP3      H1             -4.1544303985      -34.7262757466       18.5715753365  WZ4       308             0.0000000000
     22950      7650  TIP3      H2             -3.4997003985      -33.4195557466       18.9661553365  WZ4       308             0.0000000000
     22951      7651  TIP3      OH2            -5.3048903985      -25.5440357466       19.7090353365  WZ4       310             0.0000000000
     22952      7651  TIP3      H1             -5.6777803985      -26.3696557466       20.0180953365  WZ4       310             0.0000000000
     22953      7651  TIP3      H2             -5.0275403985      -25.7270957466       18.8113753365  WZ4       310             0.0000000000
     22954      7652  TIP3      OH2            -8.1445003985      -30.7360857466       26.7302253365  WZ4       311             0.0000000000
     22955      7652  TIP3      H1             -9.0728103985      -30.9678957466       26.7031553365  WZ4       311             0.0000000000
     22956      7652  TIP3      H2             -7.6933903985      -31.5131057466       26.4001053365  WZ4       311             0.0000000000
     22957      7653  TIP3      OH2           -15.6011903985      -26.4079257466       22.8630953365  WZ4       312             0.0000000000
     22958      7653  TIP3      H1            -15.0739703985      -25.6344857466       22.6629753365  WZ4       312             0.0000000000
     22959      7653  TIP3      H2            -16.4813403985      -26.1830057466       22.5614953365  WZ4       312             0.0000000000
     22960      7654  TIP3      OH2           -19.8464203985      -31.5455157466       17.4503353365  WZ4       313             0.0000000000
     22961      7654  TIP3      H1            -19.2304303985      -30.9187957466       17.8298153365  WZ4       313             0.0000000000
     22962      7654  TIP3      H2            -20.7081603985      -31.2295357466       17.7219853365  WZ4       313             0.0000000000
     22963      7655  TIP3      OH2           -14.1739603985      -28.7449357466       22.4395253365  WZ4       314             0.0000000000
     22964      7655  TIP3      H1            -14.4149603985      -27.8194957466       22.4810553365  WZ4       314             0.0000000000
     22965      7655  TIP3      H2            -14.9146003985      -29.2038057466       22.8359153365  WZ4       314             0.0000000000
     22966      7656  TIP3      OH2           -15.4908803985      -23.7231757466       21.9847453365  WZ4       316             0.0000000000
     22967      7656  TIP3      H1            -16.4408303985      -23.6174357466       22.0360753365  WZ4       316             0.0000000000
     22968      7656  TIP3      H2            -15.1390703985      -22.9024357466       22.3294953365  WZ4       316             0.0000000000
     22969      7657  TIP3      OH2            -7.9123303985      -27.5674557466       17.5290953365  WZ4       318             0.0000000000
     22970      7657  TIP3      H1             -7.5590203985      -27.9474757466       18.3334453365  WZ4       318             0.0000000000
     22971      7657  TIP3      H2             -8.8609803985      -27.6609757466       17.6160253365  WZ4       318             0.0000000000
     22972      7658  TIP3      OH2            -7.4568003985      -23.9445557466       30.9246753365  WZ4       319             0.0000000000
     22973      7658  TIP3      H1             -8.0584803985      -24.5002657466       30.4293053365  WZ4       319             0.0000000000
     22974      7658  TIP3      H2             -7.1754303985      -23.2775757466       30.2984153365  WZ4       319             0.0000000000
     22975      7659  TIP3      OH2            -3.4088903985      -23.0882057466       17.7301153365  WZ4       320             0.0000000000
     22976      7659  TIP3      H1             -2.6651003985      -22.5021557466       17.5902753365  WZ4       320             0.0000000000
     22977      7659  TIP3      H2             -4.1030803985      -22.5196257466       18.0633553365  WZ4       320             0.0000000000
     22978      7660  TIP3      OH2            -7.0464003985      -28.8952557466       19.7558853365  WZ4       322             0.0000000000
     22979      7660  TIP3      H1             -7.3236403985      -29.6233257466       20.3119953365  WZ4       322             0.0000000000
     22980      7660  TIP3      H2             -6.1191003985      -28.7760557466       19.9611453365  WZ4       322             0.0000000000
     22981      7661  TIP3      OH2           -13.8215503985      -26.4558457466       15.9760953365  WZ4       324             0.0000000000
     22982      7661  TIP3      H1            -13.5825703985      -27.2040357466       15.4289853365  WZ4       324             0.0000000000
     22983      7661  TIP3      H2            -14.0904203985      -26.8436757466       16.8088753365  WZ4       324             0.0000000000
     22984      7662  TIP3      OH2           -14.8844903985      -26.8854657466       18.4323553365  WZ4       325             0.0000000000
     22985      7662  TIP3      H1            -14.7376903985      -27.4054857466       19.2224453365  WZ4       325             0.0000000000
     22986      7662  TIP3      H2            -14.8873203985      -25.9787057466       18.7389453365  WZ4       325             0.0000000000
     22987      7663  TIP3      OH2           -18.4313803985      -29.6331357466       18.9428953365  WZ4       326             0.0000000000
     22988      7663  TIP3      H1            -19.1174503985      -29.2808857466       19.5098653365  WZ4       326             0.0000000000
     22989      7663  TIP3      H2            -17.9085903985      -28.8701757466       18.6963253365  WZ4       326             0.0000000000
     22990      7664  TIP3      OH2           -12.1467703985      -25.1881057466       19.1817753365  WZ4       329             0.0000000000
     22991      7664  TIP3      H1            -12.9631603985      -24.6911357466       19.2342053365  WZ4       329             0.0000000000
     22992      7664  TIP3      H2            -11.6171403985      -24.7127557466       18.5416553365  WZ4       329             0.0000000000
     22993      7665  TIP3      OH2           -12.6153903985      -35.5907057466       21.1538653365  WZ4       330             0.0000000000
     22994      7665  TIP3      H1            -11.8031303985      -35.0863857466       21.2000353365  WZ4       330             0.0000000000
     22995      7665  TIP3      H2            -12.8600903985      -35.7357357466       22.0678253365  WZ4       330             0.0000000000
     22996      7666  TIP3      OH2           -14.8084603985      -24.1443857466       19.1634653365  WZ4       333             0.0000000000
     22997      7666  TIP3      H1            -14.6475903985      -23.3446357466       18.6627253365  WZ4       333             0.0000000000
     22998      7666  TIP3      H2            -15.0056803985      -23.8377857466       20.0485253365  WZ4       333             0.0000000000
     22999      7667  TIP3      OH2            -7.2730703985      -32.9473057466       25.2692253365  WZ4       336             0.0000000000
     23000      7667  TIP3      H1             -8.0706303985      -33.3622857466       24.9407253365  WZ4       336             0.0000000000
     23001      7667  TIP3      H2             -6.8279603985      -33.6379357466       25.7602753365  WZ4       336             0.0000000000
     23002      7668  TIP3      OH2           -17.8154903985      -27.0192457466       17.8396753365  WZ4       337             0.0000000000
     23003      7668  TIP3      H1            -17.2233403985      -26.3197657466       18.1159153365  WZ4       337             0.0000000000
     23004      7668  TIP3      H2            -17.3561903985      -27.4522957466       17.1201353365  WZ4       337             0.0000000000
     23005      7669  TIP3      OH2           -19.4995703985      -34.3549457466       16.9556153365  WZ4       338             0.0000000000
     23006      7669  TIP3      H1            -19.5443103985      -33.4156357466       17.1343153365  WZ4       338             0.0000000000
     23007      7669  TIP3      H2            -20.3872503985      -34.5904557466       16.6858253365  WZ4       338             0.0000000000
     23008      7670  TIP3      OH2            -6.1866103985      -23.6910557466       26.8915753365  WZ4       339             0.0000000000
     23009      7670  TIP3      H1             -6.3421803985      -23.0126157466       26.2345053365  WZ4       339             0.0000000000
     23010      7670  TIP3      H2             -5.2539703985      -23.6191257466       27.0946353365  WZ4       339             0.0000000000
     23011      7671  TIP3      OH2           -19.7610403985      -25.6325757466       21.7892953365  WZ4       341             0.0000000000
     23012      7671  TIP3      H1            -20.5931803985      -25.1603057466       21.8164353365  WZ4       341             0.0000000000
     23013      7671  TIP3      H2            -19.2152103985      -25.1228157466       21.1906053365  WZ4       341             0.0000000000
     23014      7672  TIP3      OH2           -11.7833703985      -24.5927057466       16.1146953365  WZ4       344             0.0000000000
     23015      7672  TIP3      H1            -12.4272703985      -25.2238457466       16.4360653365  WZ4       344             0.0000000000
     23016      7672  TIP3      H2            -11.0215403985      -25.1239057466       15.8830453365  WZ4       344             0.0000000000
     23017      7673  TIP3      OH2            -7.1790803985      -24.7757157466       16.3484953365  WZ4       346             0.0000000000
     23018      7673  TIP3      H1             -6.8960403985      -25.5701957466       16.8011853365  WZ4       346             0.0000000000
     23019      7673  TIP3      H2             -6.4392903985      -24.5426157466       15.7876053365  WZ4       346             0.0000000000
     23020      7674  TIP3      OH2           -16.2243503985      -28.8662257466       16.2059853365  WZ4       348             0.0000000000
     23021      7674  TIP3      H1            -16.1599403985      -29.6602657466       16.7366253365  WZ4       348             0.0000000000
     23022      7674  TIP3      H2            -15.5714303985      -28.9849457466       15.5161853365  WZ4       348             0.0000000000
     23023      7675  TIP3      OH2           -10.8720103985      -27.8190557466       15.9417853365  WZ4       350             0.0000000000
     23024      7675  TIP3      H1            -11.1406003985      -27.6388457466       16.8426753365  WZ4       350             0.0000000000
     23025      7675  TIP3      H2            -11.0784503985      -28.7444357466       15.8103653365  WZ4       350             0.0000000000
     23026      7676  TIP3      OH2           -15.0749703985      -30.8936057466       18.5117853365  WZ4       353             0.0000000000
     23027      7676  TIP3      H1            -15.5347703985      -31.3777757466       19.1976353365  WZ4       353             0.0000000000
     23028      7676  TIP3      H2            -14.8201003985      -31.5620657466       17.8758353365  WZ4       353             0.0000000000
     23029      7677  TIP3      OH2           -14.0039303985      -32.6504257466       16.7741053365  WZ4       355             0.0000000000
     23030      7677  TIP3      H1            -14.1844303985      -32.8053057466       15.8469353365  WZ4       355             0.0000000000
     23031      7677  TIP3      H2            -13.0538803985      -32.5425557466       16.8188953365  WZ4       355             0.0000000000
     23032      7678  TIP3      OH2            -4.6141003985      -30.2960057466       16.2199153365  WZ4       357             0.0000000000
     23033      7678  TIP3      H1             -4.8876203985      -30.7204557466       15.4067453365  WZ4       357             0.0000000000
     23034      7678  TIP3      H2             -4.5746903985      -29.3645557466       16.0029553365  WZ4       357             0.0000000000
     23035      7679  TIP3      OH2           -14.1067603985      -21.9600557466       17.7754653365  WZ4       371             0.0000000000
     23036      7679  TIP3      H1            -13.1736903985      -21.8021857466       17.9193053365  WZ4       371             0.0000000000
     23037      7679  TIP3      H2            -14.3708803985      -21.2847557466       17.1506153365  WZ4       371             0.0000000000
     23038      7680  TIP3      OH2           -20.5382703985      -27.3236757466       17.2582753365  WZ4       372             0.0000000000
     23039      7680  TIP3      H1            -19.6243503985      -27.2447857466       17.5316653365  WZ4       372             0.0000000000
     23040      7680  TIP3      H2            -20.5309603985      -28.0107157466       16.5918353365  WZ4       372             0.0000000000
     23041      7681  TIP3      OH2           -21.8892103985      -21.9308257466       22.3356653365  WZ4       373             0.0000000000
     23042      7681  TIP3      H1            -22.5365003985      -22.3926557466       21.8027853365  WZ4       373             0.0000000000
     23043      7681  TIP3      H2            -21.5347503985      -22.6024957466       22.9182853365  WZ4       373             0.0000000000
     23044      7682  TIP3      OH2            -3.4708103985      -23.0404857466       27.1207653365  WZ4       375             0.0000000000
     23045      7682  TIP3      H1             -3.4921403985      -22.8556457466       28.0597053365  WZ4       375             0.0000000000
     23046      7682  TIP3      H2             -2.7801903985      -22.4720857466       26.7799053365  WZ4       375             0.0000000000
     23047      7683  TIP3      OH2            -3.9075203985      -23.4733757466       30.0426753365  WZ4       376             0.0000000000
     23048      7683  TIP3      H1             -4.3946503985      -24.2089657466       29.6714153365  WZ4       376             0.0000000000
     23049      7683  TIP3      H2             -3.3582503985      -23.8669857466       30.7206153365  WZ4       376             0.0000000000
     23050      7684  TIP3      OH2            -4.1558203985      -29.4271957466       20.1949553365  WZ4       378             0.0000000000
     23051      7684  TIP3      H1             -3.3056803985      -29.0061057466       20.3221153365  WZ4       378             0.0000000000
     23052      7684  TIP3      H2             -4.1503103985      -30.1671857466       20.8020953365  WZ4       378             0.0000000000
     23053      7685  TIP3      OH2            -3.7612603985      -31.3734557466       22.0185253365  WZ4       379             0.0000000000
     23054      7685  TIP3      H1             -4.4878003985      -31.8531957466       22.4162853365  WZ4       379             0.0000000000
     23055      7685  TIP3      H2             -3.1799303985      -31.1679857466       22.7506853365  WZ4       379             0.0000000000
     23056      7686  TIP3      OH2            -4.0021403985      -28.5887057466       26.9662853365  WZ4       380             0.0000000000
     23057      7686  TIP3      H1             -3.1687203985      -28.9667057466       26.6856453365  WZ4       380             0.0000000000
     23058      7686  TIP3      H2             -3.8901103985      -27.6455857466       26.8471953365  WZ4       380             0.0000000000
     23059      7687  TIP3      OH2            -5.5159103985      -25.7109557466       29.2731253365  WZ4       381             0.0000000000
     23060      7687  TIP3      H1             -6.1633803985      -25.3858057466       29.8986453365  WZ4       381             0.0000000000
     23061      7687  TIP3      H2             -6.0335103985      -26.1511857466       28.5989553365  WZ4       381             0.0000000000
     23062      7688  TIP3      OH2            -3.4929503985      -31.4726057466       18.4096553365  WZ4       382             0.0000000000
     23063      7688  TIP3      H1             -4.0148403985      -31.1161957466       17.6907453365  WZ4       382             0.0000000000
     23064      7688  TIP3      H2             -3.5260303985      -30.7978257466       19.0877453365  WZ4       382             0.0000000000
     23065      7689  TIP3      OH2            -5.1440503985      -34.2330457466       16.9603653365  WZ4       383             0.0000000000
     23066      7689  TIP3      H1             -5.0476103985      -33.5663457466       16.2803353365  WZ4       383             0.0000000000
     23067      7689  TIP3      H2             -5.2840903985      -35.0484157466       16.4789153365  WZ4       383             0.0000000000
     23068      7690  TIP3      OH2            -5.9745803985      -32.8528057466       22.5813953365  WZ4       384             0.0000000000
     23069      7690  TIP3      H1             -6.1247003985      -33.7979457466       22.5611753365  WZ4       384             0.0000000000
     23070      7690  TIP3      H2             -6.3281303985      -32.5716657466       23.4253053365  WZ4       384             0.0000000000
     23071      7691  TIP3      OH2            -6.2641003985      -35.2702257466       21.0439053365  WZ4       389             0.0000000000
     23072      7691  TIP3      H1             -5.9843903985      -36.1771857466       21.1680753365  WZ4       389             0.0000000000
     23073      7691  TIP3      H2             -5.5049303985      -34.8360757466       20.6548253365  WZ4       389             0.0000000000
     23074      7692  TIP3      OH2            -5.6522703985      -34.6884857466       26.4797953365  WZ4       390             0.0000000000
     23075      7692  TIP3      H1             -4.7194703985      -34.4764957466       26.4453953365  WZ4       390             0.0000000000
     23076      7692  TIP3      H2             -5.8875203985      -34.5872757466       27.4020953365  WZ4       390             0.0000000000
     23077      7693  TIP3      OH2            -6.7322103985      -22.9505457466       22.6929453365  WZ4       400             0.0000000000
     23078      7693  TIP3      H1             -6.0799203985      -23.2983357466       22.0848553365  WZ4       400             0.0000000000
     23079      7693  TIP3      H2             -6.2218303985      -22.4622257466       23.3389153365  WZ4       400             0.0000000000
     23080      7694  TIP3      OH2           -11.8136803985      -22.3026157466       27.7472853365  WZ4       409             0.0000000000
     23081      7694  TIP3      H1            -12.2702803985      -21.7736457466       27.0931253365  WZ4       409             0.0000000000
     23082      7694  TIP3      H2            -11.6508803985      -21.6994757466       28.4725153365  WZ4       409             0.0000000000
     23083      7695  TIP3      OH2            -9.4860503985      -23.4246557466       28.6923153365  WZ4       410             0.0000000000
     23084      7695  TIP3      H1            -10.3906803985      -23.2596357466       28.4265253365  WZ4       410             0.0000000000
     23085      7695  TIP3      H2             -9.0571903985      -22.5714357466       28.6266553365  WZ4       410             0.0000000000
     23086      7696  TIP3      OH2            -6.8818603985      -21.8547457466       28.9870953365  WZ4       411             0.0000000000
     23087      7696  TIP3      H1             -7.0636603985      -20.9388557466       28.7765853365  WZ4       411             0.0000000000
     23088      7696  TIP3      H2             -6.7050803985      -22.2650357466       28.1405553365  WZ4       411             0.0000000000
     23089      7697  TIP3      OH2           -14.8981303985      -23.9878457466       25.9559353365  WZ4       414             0.0000000000
     23090      7697  TIP3      H1            -14.6855603985      -24.8759457466       25.6690253365  WZ4       414             0.0000000000
     23091      7697  TIP3      H2            -14.8336203985      -24.0220757466       26.9103353365  WZ4       414             0.0000000000
     23092      7698  TIP3      OH2           -20.3257203985      -23.9437257466       19.6233753365  WZ4       423             0.0000000000
     23093      7698  TIP3      H1            -21.0107303985      -23.9818357466       18.9558853365  WZ4       423             0.0000000000
     23094      7698  TIP3      H2            -20.3220003985      -23.0309657466       19.9115853365  WZ4       423             0.0000000000
     23095      7699  TIP3      OH2           -11.4613703985      -22.7342357466       18.0209953365  WZ4       426             0.0000000000
     23096      7699  TIP3      H1            -10.5953503985      -22.3674957466       17.8428153365  WZ4       426             0.0000000000
     23097      7699  TIP3      H2            -11.7080903985      -23.1734357466       17.2070753365  WZ4       426             0.0000000000
     23098      7700  TIP3      OH2            -4.7524103985      -23.1712057466       20.7001053365  WZ4       427             0.0000000000
     23099      7700  TIP3      H1             -4.9467003985      -23.9189957466       20.1350653365  WZ4       427             0.0000000000
     23100      7700  TIP3      H2             -4.7914003985      -22.4131957466       20.1168953365  WZ4       427             0.0000000000
     23101      7701  TIP3      OH2           -18.5076003985      -23.0236457466       16.6485853365  WZ4       430             0.0000000000
     23102      7701  TIP3      H1            -18.7751403985      -22.7373557466       17.5218953365  WZ4       430             0.0000000000
     23103      7701  TIP3      H2            -17.7363403985      -23.5697257466       16.8008353365  WZ4       430             0.0000000000
     23104      7702  TIP3      OH2             8.8712496015      -30.5335257466       22.8810053365  WZ4       433             0.0000000000
     23105      7702  TIP3      H1              8.9603596015      -29.5897057466       22.7487153365  WZ4       433             0.0000000000
     23106      7702  TIP3      H2              8.2330096015      -30.8088857466       22.2229453365  WZ4       433             0.0000000000
     23107      7703  TIP3      OH2             7.8043796015      -31.2784557466       26.2998253365  WZ4       434             0.0000000000
     23108      7703  TIP3      H1              7.7661296015      -31.9248257466       27.0047853365  WZ4       434             0.0000000000
     23109      7703  TIP3      H2              7.4820296015      -31.7450157466       25.5286953365  WZ4       434             0.0000000000
     23110      7704  TIP3      OH2             0.1728796015      -31.6642457466       27.8928153365  WZ4       435             0.0000000000
     23111      7704  TIP3      H1              0.2140896015      -32.2899157466       28.6160553365  WZ4       435             0.0000000000
     23112      7704  TIP3      H2              0.8756496015      -31.0403857466       28.0748553365  WZ4       435             0.0000000000
     23113      7705  TIP3      OH2            11.5103996015      -28.3394157466       24.6013353365  WZ4       436             0.0000000000
     23114      7705  TIP3      H1             11.0696696015      -29.0598157466       25.0518953365  WZ4       436             0.0000000000
     23115      7705  TIP3      H2             11.4973696015      -27.6186957466       25.2311053365  WZ4       436             0.0000000000
     23116      7706  TIP3      OH2             1.0961896015      -27.2143557466       26.4277253365  WZ4       437             0.0000000000
     23117      7706  TIP3      H1              0.7267096015      -28.0163057466       26.0581553365  WZ4       437             0.0000000000
     23118      7706  TIP3      H2              2.0372996015      -27.3828657466       26.4740653365  WZ4       437             0.0000000000
     23119      7707  TIP3      OH2            -2.2937603985      -33.5540957466       21.8206053365  WZ4       438             0.0000000000
     23120      7707  TIP3      H1             -2.7414203985      -32.7082257466       21.8022553365  WZ4       438             0.0000000000
     23121      7707  TIP3      H2             -2.8546403985      -34.1336757466       21.3051153365  WZ4       438             0.0000000000
     23122      7708  TIP3      OH2            -1.5831503985      -31.3921357466       23.9464053365  WZ4       439             0.0000000000
     23123      7708  TIP3      H1             -1.3698003985      -32.1619757466       24.4737053365  WZ4       439             0.0000000000
     23124      7708  TIP3      H2             -0.8453903985      -31.3024657466       23.3431653365  WZ4       439             0.0000000000
     23125      7709  TIP3      OH2             8.6219496015      -23.2352457466       24.8133753365  WZ4       440             0.0000000000
     23126      7709  TIP3      H1              9.2415896015      -23.9117757466       24.5402953365  WZ4       440             0.0000000000
     23127      7709  TIP3      H2              8.4136896015      -23.4531657466       25.7218653365  WZ4       440             0.0000000000
     23128      7710  TIP3      OH2             6.1938196015      -28.8463157466       26.7059253365  WZ4       441             0.0000000000
     23129      7710  TIP3      H1              6.4976096015      -29.5321757466       26.1113353365  WZ4       441             0.0000000000
     23130      7710  TIP3      H2              6.9152196015      -28.7274457466       27.3237253365  WZ4       441             0.0000000000
     23131      7711  TIP3      OH2             9.3345196015      -34.4520757466       27.0334053365  WZ4       443             0.0000000000
     23132      7711  TIP3      H1              9.4771096015      -35.3983757466       27.0535653365  WZ4       443             0.0000000000
     23133      7711  TIP3      H2              9.2284196015      -34.2450957466       26.1048953365  WZ4       443             0.0000000000
     23134      7712  TIP3      OH2             2.4893496015      -36.3504357466       24.3058853365  WZ4       444             0.0000000000
     23135      7712  TIP3      H1              2.5324596015      -35.4905857466       23.8875153365  WZ4       444             0.0000000000
     23136      7712  TIP3      H2              2.0317596015      -36.9029657466       23.6722053365  WZ4       444             0.0000000000
     23137      7713  TIP3      OH2            10.2116196015      -36.2198757466       22.7067153365  WZ4       445             0.0000000000
     23138      7713  TIP3      H1             10.8580496015      -36.5485557466       23.3314753365  WZ4       445             0.0000000000
     23139      7713  TIP3      H2             10.7215596015      -35.7019757466       22.0838553365  WZ4       445             0.0000000000
     23140      7714  TIP3      OH2            -0.8905003985      -33.9538557466       25.0680253365  WZ4       446             0.0000000000
     23141      7714  TIP3      H1             -0.2368403985      -34.5036857466       25.5000353365  WZ4       446             0.0000000000
     23142      7714  TIP3      H2             -0.8665703985      -34.2279557466       24.1512253365  WZ4       446             0.0000000000
     23143      7715  TIP3      OH2             4.2659496015      -32.4037257466       24.2831753365  WZ4       447             0.0000000000
     23144      7715  TIP3      H1              4.8820496015      -32.9301857466       24.7925753365  WZ4       447             0.0000000000
     23145      7715  TIP3      H2              3.6798296015      -33.0438557466       23.8795353365  WZ4       447             0.0000000000
     23146      7716  TIP3      OH2             8.6685196015      -27.9324857466       21.9238753365  WZ4       450             0.0000000000
     23147      7716  TIP3      H1              8.3730296015      -28.2552557466       21.0725653365  WZ4       450             0.0000000000
     23148      7716  TIP3      H2              8.3442996015      -27.0328157466       21.9651353365  WZ4       450             0.0000000000
     23149      7717  TIP3      OH2             3.8686796015      -29.7570257466       28.6673353365  WZ4       451             0.0000000000
     23150      7717  TIP3      H1              3.1285896015      -29.1588757466       28.7708553365  WZ4       451             0.0000000000
     23151      7717  TIP3      H2              4.5826296015      -29.2030657466       28.3516953365  WZ4       451             0.0000000000
     23152      7718  TIP3      OH2             0.8932696015      -35.5404157466       26.3321853365  WZ4       453             0.0000000000
     23153      7718  TIP3      H1              1.5068996015      -34.9076557466       26.7054253365  WZ4       453             0.0000000000
     23154      7718  TIP3      H2              1.4053396015      -36.0129157466       25.6758753365  WZ4       453             0.0000000000
     23155      7719  TIP3      OH2             2.2761096015      -27.7927257466       29.4544853365  WZ4       454             0.0000000000
     23156      7719  TIP3      H1              2.2708696015      -26.9133757466       29.0764153365  WZ4       454             0.0000000000
     23157      7719  TIP3      H2              1.4225196015      -27.8763157466       29.8794753365  WZ4       454             0.0000000000
     23158      7720  TIP3      OH2            -1.6028003985      -28.1219357466       20.2364153365  WZ4       455             0.0000000000
     23159      7720  TIP3      H1             -1.8747103985      -27.8928357466       19.3477053365  WZ4       455             0.0000000000
     23160      7720  TIP3      H2             -1.5572303985      -27.2840557466       20.6969453365  WZ4       455             0.0000000000
     23161      7721  TIP3      OH2            12.0221696015      -26.5003457466       26.9492653365  WZ4       456             0.0000000000
     23162      7721  TIP3      H1             11.0805396015      -26.4419557466       27.1109553365  WZ4       456             0.0000000000
     23163      7721  TIP3      H2             12.2987796015      -25.5942957466       26.8122353365  WZ4       456             0.0000000000
     23164      7722  TIP3      OH2            10.2742896015      -24.7189957466       23.5744253365  WZ4       459             0.0000000000
     23165      7722  TIP3      H1             10.6995196015      -25.4262057466       23.0893853365  WZ4       459             0.0000000000
     23166      7722  TIP3      H2             10.5912896015      -23.9177257466       23.1576453365  WZ4       459             0.0000000000
     23167      7723  TIP3      OH2            11.4339396015      -26.8181457466       22.0830853365  WZ4       460             0.0000000000
     23168      7723  TIP3      H1             11.1764196015      -27.5081357466       21.4716753365  WZ4       460             0.0000000000
     23169      7723  TIP3      H2             11.5050196015      -27.2610257466       22.9286753365  WZ4       460             0.0000000000
     23170      7724  TIP3      OH2             7.5924996015      -31.2895257466       20.3330353365  WZ4       462             0.0000000000
     23171      7724  TIP3      H1              6.8810496015      -30.7545557466       19.9810853365  WZ4       462             0.0000000000
     23172      7724  TIP3      H2              8.2834596015      -31.2343157466       19.6729253365  WZ4       462             0.0000000000
     23173      7725  TIP3      OH2             7.6464196015      -32.8320957466       17.3715353365  WZ4       463             0.0000000000
     23174      7725  TIP3      H1              8.3474096015      -32.8094057466       18.0229353365  WZ4       463             0.0000000000
     23175      7725  TIP3      H2              7.9487096015      -33.4601257466       16.7154653365  WZ4       463             0.0000000000
     23176      7726  TIP3      OH2            10.9982696015      -31.0801957466       21.2846253365  WZ4       465             0.0000000000
     23177      7726  TIP3      H1             10.2663696015      -30.8518257466       21.8576853365  WZ4       465             0.0000000000
     23178      7726  TIP3      H2             11.4454896015      -31.7939257466       21.7393753365  WZ4       465             0.0000000000
     23179      7727  TIP3      OH2             2.6436396015      -30.4495757466       23.1671253365  WZ4       467             0.0000000000
     23180      7727  TIP3      H1              2.3131596015      -30.8202357466       22.3488253365  WZ4       467             0.0000000000
     23181      7727  TIP3      H2              3.2320496015      -31.1201757466       23.5139553365  WZ4       467             0.0000000000
     23182      7728  TIP3      OH2             4.0103896015      -27.0215157466       25.8483453365  WZ4       468             0.0000000000
     23183      7728  TIP3      H1              3.9155196015      -27.6002057466       25.0918053365  WZ4       468             0.0000000000
     23184      7728  TIP3      H2              4.7397496015      -27.3929457466       26.3446253365  WZ4       468             0.0000000000
     23185      7729  TIP3      OH2             3.0101896015      -31.6810157466       26.8006253365  WZ4       469             0.0000000000
     23186      7729  TIP3      H1              3.5754396015      -31.5595957466       26.0377453365  WZ4       469             0.0000000000
     23187      7729  TIP3      H2              3.3290796015      -31.0435157466       27.4394753365  WZ4       469             0.0000000000
     23188      7730  TIP3      OH2             9.3194096015      -26.1778257466       27.5346753365  WZ4       470             0.0000000000
     23189      7730  TIP3      H1              9.0790696015      -25.5155157466       28.1825953365  WZ4       470             0.0000000000
     23190      7730  TIP3      H2              9.1212296015      -27.0123057466       27.9596353365  WZ4       470             0.0000000000
     23191      7731  TIP3      OH2             3.8902596015      -27.2817457466       31.5178153365  WZ4       471             0.0000000000
     23192      7731  TIP3      H1              3.5790096015      -26.4994257466       31.9731353365  WZ4       471             0.0000000000
     23193      7731  TIP3      H2              3.2402796015      -27.4348357466       30.8320153365  WZ4       471             0.0000000000
     23194      7732  TIP3      OH2             9.8692196015      -31.9179057466       18.9697453365  WZ4       472             0.0000000000
     23195      7732  TIP3      H1             10.4487696015      -31.7678757466       19.7166353365  WZ4       472             0.0000000000
     23196      7732  TIP3      H2             10.2832196015      -31.4471657466       18.2463853365  WZ4       472             0.0000000000
     23197      7733  TIP3      OH2             0.8102496015      -31.0836357466       30.7463853365  WZ4       473             0.0000000000
     23198      7733  TIP3      H1              0.8805696015      -30.4329557466       31.4448853365  WZ4       473             0.0000000000
     23199      7733  TIP3      H2             -0.0805303985      -30.9808857466       30.4114753365  WZ4       473             0.0000000000
     23200      7734  TIP3      OH2             7.5957096015      -25.1810557466       22.4050553365  WZ4       474             0.0000000000
     23201      7734  TIP3      H1              8.0694696015      -24.8854257466       23.1824753365  WZ4       474             0.0000000000
     23202      7734  TIP3      H2              7.0326396015      -24.4428957466       22.1720153365  WZ4       474             0.0000000000
     23203      7735  TIP3      OH2             2.1298496015      -25.2102457466       32.2811953365  WZ4       475             0.0000000000
     23204      7735  TIP3      H1              2.1373796015      -25.3462757466       31.3337453365  WZ4       475             0.0000000000
     23205      7735  TIP3      H2              1.2138896015      -25.3274357466       32.5331953365  WZ4       475             0.0000000000
     23206      7736  TIP3      OH2             1.6339096015      -31.3801457466       20.7564053365  WZ4       477             0.0000000000
     23207      7736  TIP3      H1              1.3420396015      -30.6119757466       20.2655353365  WZ4       477             0.0000000000
     23208      7736  TIP3      H2              0.9594296015      -32.0395257466       20.5935453365  WZ4       477             0.0000000000
     23209      7737  TIP3      OH2            14.7571996015      -25.8016257466       17.1591053365  WZ4       478             0.0000000000
     23210      7737  TIP3      H1             14.8305496015      -24.8626057466       17.3296353365  WZ4       478             0.0000000000
     23211      7737  TIP3      H2             15.6627096015      -26.1067657466       17.1028353365  WZ4       478             0.0000000000
     23212      7738  TIP3      OH2            -2.2730803985      -29.0172257466       29.5713853365  WZ4       479             0.0000000000
     23213      7738  TIP3      H1             -2.7742403985      -29.0452857466       28.7563553365  WZ4       479             0.0000000000
     23214      7738  TIP3      H2             -2.2677103985      -29.9229057466       29.8811153365  WZ4       479             0.0000000000
     23215      7739  TIP3      OH2            -2.5228103985      -26.2368457466       26.4554053365  WZ4       480             0.0000000000
     23216      7739  TIP3      H1             -1.5767503985      -26.3811457466       26.4363553365  WZ4       480             0.0000000000
     23217      7739  TIP3      H2             -2.6351803985      -25.4525657466       26.9925253365  WZ4       480             0.0000000000
     23218      7740  TIP3      OH2             6.6534396015      -25.9969557466       31.0139153365  WZ4       482             0.0000000000
     23219      7740  TIP3      H1              6.7408996015      -25.1704957466       31.4888253365  WZ4       482             0.0000000000
     23220      7740  TIP3      H2              5.7899496015      -26.3265757466       31.2628453365  WZ4       482             0.0000000000
     23221      7741  TIP3      OH2             7.0680196015      -22.2245857466       20.8199753365  WZ4       483             0.0000000000
     23222      7741  TIP3      H1              6.9926196015      -22.3458657466       19.8734953365  WZ4       483             0.0000000000
     23223      7741  TIP3      H2              7.1008896015      -21.2753157466       20.9384353365  WZ4       483             0.0000000000
     23224      7742  TIP3      OH2             0.7213996015      -23.4358857466       22.6008753365  WZ4       484             0.0000000000
     23225      7742  TIP3      H1              0.8734396015      -23.7838457466       23.4795253365  WZ4       484             0.0000000000
     23226      7742  TIP3      H2             -0.1295603985      -23.7921557466       22.3455953365  WZ4       484             0.0000000000
     23227      7743  TIP3      OH2            10.1696196015      -23.0705657466       17.8222153365  WZ4       485             0.0000000000
     23228      7743  TIP3      H1             10.5444596015      -23.8149557466       17.3514753365  WZ4       485             0.0000000000
     23229      7743  TIP3      H2             10.1739896015      -23.3405057466       18.7405453365  WZ4       485             0.0000000000
     23230      7744  TIP3      OH2             9.8384296015      -23.1448557466       20.5714353365  WZ4       486             0.0000000000
     23231      7744  TIP3      H1              8.9034096015      -23.0446657466       20.7501353365  WZ4       486             0.0000000000
     23232      7744  TIP3      H2             10.1186196015      -23.8542557466       21.1497553365  WZ4       486             0.0000000000
     23233      7745  TIP3      OH2            -0.0240303985      -27.6936857466       30.6146653365  WZ4       488             0.0000000000
     23234      7745  TIP3      H1              0.1920996015      -28.0551257466       31.4742453365  WZ4       488             0.0000000000
     23235      7745  TIP3      H2             -0.8795603985      -28.0683057466       30.4050153365  WZ4       488             0.0000000000
     23236      7746  TIP3      OH2            11.3465296015      -30.8850757466       16.5995353365  WZ4       492             0.0000000000
     23237      7746  TIP3      H1             11.3886096015      -31.1076857466       15.6695353365  WZ4       492             0.0000000000
     23238      7746  TIP3      H2             12.1957396015      -30.4863657466       16.7895253365  WZ4       492             0.0000000000
     23239      7747  TIP3      OH2             2.6857796015      -34.2581857466       27.7051053365  WZ4       494             0.0000000000
     23240      7747  TIP3      H1              2.0439896015      -34.2984557466       28.4141153365  WZ4       494             0.0000000000
     23241      7747  TIP3      H2              2.7229796015      -33.3317157466       27.4674053365  WZ4       494             0.0000000000
     23242      7748  TIP3      OH2             2.6826896015      -34.0371757466       22.6171053365  WZ4       495             0.0000000000
     23243      7748  TIP3      H1              1.7899796015      -34.3775657466       22.5584853365  WZ4       495             0.0000000000
     23244      7748  TIP3      H2              3.1333496015      -34.4140857466       21.8614253365  WZ4       495             0.0000000000
     23245      7749  TIP3      OH2             8.2182396015      -33.6211457466       21.4341853365  WZ4       496             0.0000000000
     23246      7749  TIP3      H1              7.8092696015      -32.8062857466       21.1426653365  WZ4       496             0.0000000000
     23247      7749  TIP3      H2              8.9388596015      -33.7611357466       20.8198953365  WZ4       496             0.0000000000
     23248      7750  TIP3      OH2             9.2230096015      -34.1751057466       24.2481553365  WZ4       498             0.0000000000
     23249      7750  TIP3      H1              9.0274596015      -33.5694257466       23.5332153365  WZ4       498             0.0000000000
     23250      7750  TIP3      H2              9.4042696015      -35.0085857466       23.8137853365  WZ4       498             0.0000000000
     23251      7751  TIP3      OH2             0.4358296015      -33.9378357466       29.5723053365  WZ4       499             0.0000000000
     23252      7751  TIP3      H1              0.3977696015      -33.5376757466       30.4410153365  WZ4       499             0.0000000000
     23253      7751  TIP3      H2             -0.0550603985      -34.7545957466       29.6625953365  WZ4       499             0.0000000000
     23254      7752  TIP3      OH2             3.8015696015      -36.5636057466       16.3709053365  WZ4       500             0.0000000000
     23255      7752  TIP3      H1              3.3706396015      -37.0085957466       17.1006453365  WZ4       500             0.0000000000
     23256      7752  TIP3      H2              3.0834396015      -36.1919757466       15.8586553365  WZ4       500             0.0000000000
     23257      7753  TIP3      OH2            -1.6818803985      -36.0754557466       18.8468153365  WZ4       502             0.0000000000
     23258      7753  TIP3      H1             -1.2077103985      -35.4844657466       18.2619053365  WZ4       502             0.0000000000
     23259      7753  TIP3      H2             -2.3992403985      -35.5451657466       19.1938253365  WZ4       502             0.0000000000
     23260      7754  TIP3      OH2             5.2642196015      -36.6094257466       23.7035153365  WZ4       504             0.0000000000
     23261      7754  TIP3      H1              4.3533296015      -36.5527457466       23.9921153365  WZ4       504             0.0000000000
     23262      7754  TIP3      H2              5.7695096015      -36.6698757466       24.5142353365  WZ4       504             0.0000000000
     23263      7755  TIP3      OH2             0.0925596015      -34.9807957466       22.5302753365  WZ4       505             0.0000000000
     23264      7755  TIP3      H1             -0.7966403985      -34.8812457466       22.1902353365  WZ4       505             0.0000000000
     23265      7755  TIP3      H2              0.3890496015      -35.8224957466       22.1840653365  WZ4       505             0.0000000000
     23266      7756  TIP3      OH2             3.7457396015      -34.9805357466       20.1867353365  WZ4       506             0.0000000000
     23267      7756  TIP3      H1              4.6772896015      -34.8515357466       20.3650453365  WZ4       506             0.0000000000
     23268      7756  TIP3      H2              3.5307696015      -34.3111057466       19.5372053365  WZ4       506             0.0000000000
     23269      7757  TIP3      OH2             2.4197596015      -33.7863157466       17.7533453365  WZ4       508             0.0000000000
     23270      7757  TIP3      H1              1.8772696015      -34.1659357466       17.0621053365  WZ4       508             0.0000000000
     23271      7757  TIP3      H2              3.2532496015      -33.5918457466       17.3247553365  WZ4       508             0.0000000000
     23272      7758  TIP3      OH2            12.9569196015      -21.7032557466       33.2444553365  WZ4       509             0.0000000000
     23273      7758  TIP3      H1             13.1567896015      -21.2790657466       32.4099853365  WZ4       509             0.0000000000
     23274      7758  TIP3      H2             13.6122896015      -21.3594357466       33.8514953365  WZ4       509             0.0000000000
     23275      7759  TIP3      OH2             0.5548996015      -29.2291257466       32.8525053365  WZ4       510             0.0000000000
     23276      7759  TIP3      H1              1.2871396015      -28.9745357466       33.4139553365  WZ4       510             0.0000000000
     23277      7759  TIP3      H2             -0.2252303985      -29.0245857466       33.3680453365  WZ4       510             0.0000000000
     23278      7760  TIP3      OH2             6.5841896015      -33.8221257466       25.5904753365  WZ4       511             0.0000000000
     23279      7760  TIP3      H1              7.1485296015      -34.3684657466       25.0434353365  WZ4       511             0.0000000000
     23280      7760  TIP3      H2              6.4365296015      -34.3439357466       26.3792353365  WZ4       511             0.0000000000
     23281      7761  TIP3      OH2             5.2107796015      -35.4335157466       28.0045153365  WZ4       513             0.0000000000
     23282      7761  TIP3      H1              4.3753096015      -34.9795657466       28.1147553365  WZ4       513             0.0000000000
     23283      7761  TIP3      H2              5.7348396015      -35.1576657466       28.7565053365  WZ4       513             0.0000000000
     23284      7762  TIP3      OH2             5.7550396015      -29.2207457466       19.6891553365  WZ4       514             0.0000000000
     23285      7762  TIP3      H1              5.0101396015      -29.7282157466       19.3669453365  WZ4       514             0.0000000000
     23286      7762  TIP3      H2              5.6207596015      -29.1719457466       20.6356353365  WZ4       514             0.0000000000
     23287      7763  TIP3      OH2            12.9049296015      -30.0879257466       28.4759153365  WZ4       515             0.0000000000
     23288      7763  TIP3      H1             13.5468096015      -29.6312957466       27.9321353365  WZ4       515             0.0000000000
     23289      7763  TIP3      H2             12.0746196015      -29.9746857466       28.0133253365  WZ4       515             0.0000000000
     23290      7764  TIP3      OH2             9.6527196015      -36.4067557466       17.8884153365  WZ4       516             0.0000000000
     23291      7764  TIP3      H1              8.7141396015      -36.2951957466       17.7372953365  WZ4       516             0.0000000000
     23292      7764  TIP3      H2              9.9499296015      -35.5500657466       18.1949853365  WZ4       516             0.0000000000
     23293      7765  TIP3      OH2             7.2742496015      -29.0364157466       30.9260653365  WZ4       517             0.0000000000
     23294      7765  TIP3      H1              6.9288596015      -29.4181757466       31.7330253365  WZ4       517             0.0000000000
     23295      7765  TIP3      H2              7.0742596015      -28.1030557466       30.9973553365  WZ4       517             0.0000000000
     23296      7766  TIP3      OH2            10.3710696015      -34.5394857466       19.5491553365  WZ4       518             0.0000000000
     23297      7766  TIP3      H1             11.2629696015      -34.6769857466       19.8682753365  WZ4       518             0.0000000000
     23298      7766  TIP3      H2             10.4274296015      -33.7488757466       19.0125053365  WZ4       518             0.0000000000
     23299      7767  TIP3      OH2             0.8798696015      -29.9257457466       25.4589453365  WZ4       519             0.0000000000
     23300      7767  TIP3      H1              1.6245896015      -29.9281757466       24.8575953365  WZ4       519             0.0000000000
     23301      7767  TIP3      H2              0.9575296015      -30.7493657466       25.9404553365  WZ4       519             0.0000000000
     23302      7768  TIP3      OH2             7.8804496015      -27.7623157466       18.7146153365  WZ4       520             0.0000000000
     23303      7768  TIP3      H1              7.5852896015      -26.9355257466       19.0960953365  WZ4       520             0.0000000000
     23304      7768  TIP3      H2              7.1774496015      -28.3816257466       18.9107553365  WZ4       520             0.0000000000
     23305      7769  TIP3      OH2             9.5246096015      -26.5748657466       30.8765653365  WZ4       523             0.0000000000
     23306      7769  TIP3      H1              8.6240396015      -26.3916057466       30.6089553365  WZ4       523             0.0000000000
     23307      7769  TIP3      H2              9.5587196015      -26.3159357466       31.7974453365  WZ4       523             0.0000000000
     23308      7770  TIP3      OH2            15.2559396015      -34.3300757466       19.2438253365  WZ4       524             0.0000000000
     23309      7770  TIP3      H1             14.7015696015      -34.7262757466       18.5715753365  WZ4       524             0.0000000000
     23310      7770  TIP3      H2             15.3562996015      -33.4195557466       18.9661553365  WZ4       524             0.0000000000
     23311      7771  TIP3      OH2            13.5511096015      -25.5440357466       19.7090353365  WZ4       526             0.0000000000
     23312      7771  TIP3      H1             13.1782196015      -26.3696557466       20.0180953365  WZ4       526             0.0000000000
     23313      7771  TIP3      H2             13.8284596015      -25.7270957466       18.8113753365  WZ4       526             0.0000000000
     23314      7772  TIP3      OH2            10.7114996015      -30.7360857466       26.7302253365  WZ4       527             0.0000000000
     23315      7772  TIP3      H1              9.7831896015      -30.9678957466       26.7031553365  WZ4       527             0.0000000000
     23316      7772  TIP3      H2             11.1626096015      -31.5131057466       26.4001053365  WZ4       527             0.0000000000
     23317      7773  TIP3      OH2             3.2548096015      -26.4079257466       22.8630953365  WZ4       528             0.0000000000
     23318      7773  TIP3      H1              3.7820296015      -25.6344857466       22.6629753365  WZ4       528             0.0000000000
     23319      7773  TIP3      H2              2.3746596015      -26.1830057466       22.5614953365  WZ4       528             0.0000000000
     23320      7774  TIP3      OH2            -0.9904203985      -31.5455157466       17.4503353365  WZ4       529             0.0000000000
     23321      7774  TIP3      H1             -0.3744303985      -30.9187957466       17.8298153365  WZ4       529             0.0000000000
     23322      7774  TIP3      H2             -1.8521603985      -31.2295357466       17.7219853365  WZ4       529             0.0000000000
     23323      7775  TIP3      OH2             4.6820396015      -28.7449357466       22.4395253365  WZ4       530             0.0000000000
     23324      7775  TIP3      H1              4.4410396015      -27.8194957466       22.4810553365  WZ4       530             0.0000000000
     23325      7775  TIP3      H2              3.9413996015      -29.2038057466       22.8359153365  WZ4       530             0.0000000000
     23326      7776  TIP3      OH2             5.1966996015      -24.5955757466       28.7546353365  WZ4       531             0.0000000000
     23327      7776  TIP3      H1              5.5591696015      -23.7410157466       28.5210753365  WZ4       531             0.0000000000
     23328      7776  TIP3      H2              5.7282196015      -24.8874157466       29.4952653365  WZ4       531             0.0000000000
     23329      7777  TIP3      OH2             3.3651196015      -23.7231757466       21.9847453365  WZ4       532             0.0000000000
     23330      7777  TIP3      H1              2.4151696015      -23.6174357466       22.0360753365  WZ4       532             0.0000000000
     23331      7777  TIP3      H2              3.7169296015      -22.9024357466       22.3294953365  WZ4       532             0.0000000000
     23332      7778  TIP3      OH2             8.7407796015      -28.4965057466       28.4551953365  WZ4       533             0.0000000000
     23333      7778  TIP3      H1              8.3149096015      -28.7243357466       29.2815953365  WZ4       533             0.0000000000
     23334      7778  TIP3      H2              9.3213596015      -29.2353257466       28.2727253365  WZ4       533             0.0000000000
     23335      7779  TIP3      OH2            10.9436696015      -27.5674557466       17.5290953365  WZ4       534             0.0000000000
     23336      7779  TIP3      H1             11.2969796015      -27.9474757466       18.3334453365  WZ4       534             0.0000000000
     23337      7779  TIP3      H2              9.9950196015      -27.6609757466       17.6160253365  WZ4       534             0.0000000000
     23338      7780  TIP3      OH2            11.3991996015      -23.9445557466       30.9246753365  WZ4       535             0.0000000000
     23339      7780  TIP3      H1             10.7975196015      -24.5002657466       30.4293053365  WZ4       535             0.0000000000
     23340      7780  TIP3      H2             11.6805696015      -23.2775757466       30.2984153365  WZ4       535             0.0000000000
     23341      7781  TIP3      OH2            15.4471096015      -23.0882057466       17.7301153365  WZ4       536             0.0000000000
     23342      7781  TIP3      H1             16.1908996015      -22.5021557466       17.5902753365  WZ4       536             0.0000000000
     23343      7781  TIP3      H2             14.7529196015      -22.5196257466       18.0633553365  WZ4       536             0.0000000000
     23344      7782  TIP3      OH2            11.8095996015      -28.8952557466       19.7558853365  WZ4       538             0.0000000000
     23345      7782  TIP3      H1             11.5323596015      -29.6233257466       20.3119953365  WZ4       538             0.0000000000
     23346      7782  TIP3      H2             12.7368996015      -28.7760557466       19.9611453365  WZ4       538             0.0000000000
     23347      7783  TIP3      OH2            -0.8270103985      -24.9073457466       28.7668753365  WZ4       539             0.0000000000
     23348      7783  TIP3      H1             -0.6099803985      -25.8391057466       28.7358453365  WZ4       539             0.0000000000
     23349      7783  TIP3      H2             -0.5806603985      -24.6328457466       29.6501553365  WZ4       539             0.0000000000
     23350      7784  TIP3      OH2             5.0344496015      -26.4558457466       15.9760953365  WZ4       540             0.0000000000
     23351      7784  TIP3      H1              5.2734296015      -27.2040357466       15.4289853365  WZ4       540             0.0000000000
     23352      7784  TIP3      H2              4.7655796015      -26.8436757466       16.8088753365  WZ4       540             0.0000000000
     23353      7785  TIP3      OH2             3.9715096015      -26.8854657466       18.4323553365  WZ4       541             0.0000000000
     23354      7785  TIP3      H1              4.1183096015      -27.4054857466       19.2224453365  WZ4       541             0.0000000000
     23355      7785  TIP3      H2              3.9686796015      -25.9787057466       18.7389453365  WZ4       541             0.0000000000
     23356      7786  TIP3      OH2             0.4246196015      -29.6331357466       18.9428953365  WZ4       542             0.0000000000
     23357      7786  TIP3      H1             -0.2614503985      -29.2808857466       19.5098653365  WZ4       542             0.0000000000
     23358      7786  TIP3      H2              0.9474096015      -28.8701757466       18.6963253365  WZ4       542             0.0000000000
     23359      7787  TIP3      OH2             6.7092296015      -25.1881057466       19.1817753365  WZ4       545             0.0000000000
     23360      7787  TIP3      H1              5.8928396015      -24.6911357466       19.2342053365  WZ4       545             0.0000000000
     23361      7787  TIP3      H2              7.2388596015      -24.7127557466       18.5416553365  WZ4       545             0.0000000000
     23362      7788  TIP3      OH2             6.2406096015      -35.5907057466       21.1538653365  WZ4       546             0.0000000000
     23363      7788  TIP3      H1              7.0528696015      -35.0863857466       21.2000353365  WZ4       546             0.0000000000
     23364      7788  TIP3      H2              5.9959096015      -35.7357357466       22.0678253365  WZ4       546             0.0000000000
     23365      7789  TIP3      OH2             4.0475396015      -24.1443857466       19.1634653365  WZ4       549             0.0000000000
     23366      7789  TIP3      H1              4.2084096015      -23.3446357466       18.6627253365  WZ4       549             0.0000000000
     23367      7789  TIP3      H2              3.8503196015      -23.8377857466       20.0485253365  WZ4       549             0.0000000000
     23368      7790  TIP3      OH2            11.5829296015      -32.9473057466       25.2692253365  WZ4       552             0.0000000000
     23369      7790  TIP3      H1             10.7853696015      -33.3622857466       24.9407253365  WZ4       552             0.0000000000
     23370      7790  TIP3      H2             12.0280396015      -33.6379357466       25.7602753365  WZ4       552             0.0000000000
     23371      7791  TIP3      OH2             1.0405096015      -27.0192457466       17.8396753365  WZ4       553             0.0000000000
     23372      7791  TIP3      H1              1.6326596015      -26.3197657466       18.1159153365  WZ4       553             0.0000000000
     23373      7791  TIP3      H2              1.4998096015      -27.4522957466       17.1201353365  WZ4       553             0.0000000000
     23374      7792  TIP3      OH2            -0.6435703985      -34.3549457466       16.9556153365  WZ4       554             0.0000000000
     23375      7792  TIP3      H1             -0.6883103985      -33.4156357466       17.1343153365  WZ4       554             0.0000000000
     23376      7792  TIP3      H2             -1.5312503985      -34.5904557466       16.6858253365  WZ4       554             0.0000000000
     23377      7793  TIP3      OH2            12.6693896015      -23.6910557466       26.8915753365  WZ4       555             0.0000000000
     23378      7793  TIP3      H1             12.5138196015      -23.0126157466       26.2345053365  WZ4       555             0.0000000000
     23379      7793  TIP3      H2             13.6020296015      -23.6191257466       27.0946353365  WZ4       555             0.0000000000
     23380      7794  TIP3      OH2            -0.9050403985      -25.6325757466       21.7892953365  WZ4       557             0.0000000000
     23381      7794  TIP3      H1             -1.7371803985      -25.1603057466       21.8164353365  WZ4       557             0.0000000000
     23382      7794  TIP3      H2             -0.3592103985      -25.1228157466       21.1906053365  WZ4       557             0.0000000000
     23383      7795  TIP3      OH2            -1.6166703985      -23.0202057466       33.1190953365  WZ4       558             0.0000000000
     23384      7795  TIP3      H1             -1.0764503985      -23.2368057466       33.8790153365  WZ4       558             0.0000000000
     23385      7795  TIP3      H2             -2.0978703985      -23.8256057466       32.9293453365  WZ4       558             0.0000000000
     23386      7796  TIP3      OH2             2.9806696015      -24.1007657466       34.7395153365  WZ4       559             0.0000000000
     23387      7796  TIP3      H1              3.7483896015      -24.5596857466       35.0804353365  WZ4       559             0.0000000000
     23388      7796  TIP3      H2              2.9592896015      -24.3267857466       33.8096353365  WZ4       559             0.0000000000
     23389      7797  TIP3      OH2             7.0726296015      -24.5927057466       16.1146953365  WZ4       560             0.0000000000
     23390      7797  TIP3      H1              6.4287296015      -25.2238457466       16.4360653365  WZ4       560             0.0000000000
     23391      7797  TIP3      H2              7.8344596015      -25.1239057466       15.8830453365  WZ4       560             0.0000000000
     23392      7798  TIP3      OH2            11.6769196015      -24.7757157466       16.3484953365  WZ4       562             0.0000000000
     23393      7798  TIP3      H1             11.9599596015      -25.5701957466       16.8011853365  WZ4       562             0.0000000000
     23394      7798  TIP3      H2             12.4167096015      -24.5426157466       15.7876053365  WZ4       562             0.0000000000
     23395      7799  TIP3      OH2             2.6316496015      -28.8662257466       16.2059853365  WZ4       564             0.0000000000
     23396      7799  TIP3      H1              2.6960596015      -29.6602657466       16.7366253365  WZ4       564             0.0000000000
     23397      7799  TIP3      H2              3.2845696015      -28.9849457466       15.5161853365  WZ4       564             0.0000000000
     23398      7800  TIP3      OH2             4.9458896015      -29.2399857466       33.5061653365  WZ4       565             0.0000000000
     23399      7800  TIP3      H1              4.6172696015      -28.9691757466       32.6489053365  WZ4       565             0.0000000000
     23400      7800  TIP3      H2              5.0977096015      -30.1810057466       33.4186653365  WZ4       565             0.0000000000
     23401      7801  TIP3      OH2             7.9839896015      -27.8190557466       15.9417853365  WZ4       566             0.0000000000
     23402      7801  TIP3      H1              7.7153996015      -27.6388457466       16.8426753365  WZ4       566             0.0000000000
     23403      7801  TIP3      H2              7.7775496015      -28.7444357466       15.8103653365  WZ4       566             0.0000000000
     23404      7802  TIP3      OH2             3.7810296015      -30.8936057466       18.5117853365  WZ4       569             0.0000000000
     23405      7802  TIP3      H1              3.3212296015      -31.3777757466       19.1976353365  WZ4       569             0.0000000000
     23406      7802  TIP3      H2              4.0358996015      -31.5620657466       17.8758353365  WZ4       569             0.0000000000
     23407      7803  TIP3      OH2             3.0699596015      -33.0008957466       30.8677453365  WZ4       570             0.0000000000
     23408      7803  TIP3      H1              2.4515696015      -32.3262357466       31.1482153365  WZ4       570             0.0000000000
     23409      7803  TIP3      H2              3.4140796015      -32.6795057466       30.0343653365  WZ4       570             0.0000000000
     23410      7804  TIP3      OH2             4.8520696015      -32.6504257466       16.7741053365  WZ4       571             0.0000000000
     23411      7804  TIP3      H1              4.6715696015      -32.8053057466       15.8469353365  WZ4       571             0.0000000000
     23412      7804  TIP3      H2              5.8021196015      -32.5425557466       16.8188953365  WZ4       571             0.0000000000
     23413      7805  TIP3      OH2            14.2418996015      -30.2960057466       16.2199153365  WZ4       573             0.0000000000
     23414      7805  TIP3      H1             13.9683796015      -30.7204557466       15.4067453365  WZ4       573             0.0000000000
     23415      7805  TIP3      H2             14.2813096015      -29.3645557466       16.0029553365  WZ4       573             0.0000000000
     23416      7806  TIP3      OH2             5.4037396015      -31.8366157466       29.6823153365  WZ4       576             0.0000000000
     23417      7806  TIP3      H1              6.1542196015      -31.9928657466       29.1090953365  WZ4       576             0.0000000000
     23418      7806  TIP3      H2              5.0645696015      -30.9849557466       29.4068653365  WZ4       576             0.0000000000
     23419      7807  TIP3      OH2             4.7492396015      -21.9600557466       17.7754653365  WZ4       587             0.0000000000
     23420      7807  TIP3      H1              5.6823096015      -21.8021857466       17.9193053365  WZ4       587             0.0000000000
     23421      7807  TIP3      H2              4.4851196015      -21.2847557466       17.1506153365  WZ4       587             0.0000000000
     23422      7808  TIP3      OH2            -1.6822703985      -27.3236757466       17.2582753365  WZ4       588             0.0000000000
     23423      7808  TIP3      H1             -0.7683503985      -27.2447857466       17.5316653365  WZ4       588             0.0000000000
     23424      7808  TIP3      H2             -1.6749603985      -28.0107157466       16.5918353365  WZ4       588             0.0000000000
     23425      7809  TIP3      OH2            -3.0332103985      -21.9308257466       22.3356653365  WZ4       589             0.0000000000
     23426      7809  TIP3      H1             -3.6805003985      -22.3926557466       21.8027853365  WZ4       589             0.0000000000
     23427      7809  TIP3      H2             -2.6787503985      -22.6024957466       22.9182853365  WZ4       589             0.0000000000
     23428      7810  TIP3      OH2            -2.1632903985      -23.8501257466       24.1402853365  WZ4       590             0.0000000000
     23429      7810  TIP3      H1             -2.4976103985      -24.7303957466       24.3123053365  WZ4       590             0.0000000000
     23430      7810  TIP3      H2             -1.9410503985      -23.5046257466       25.0048453365  WZ4       590             0.0000000000
     23431      7811  TIP3      OH2            15.3851896015      -23.0404857466       27.1207653365  WZ4       591             0.0000000000
     23432      7811  TIP3      H1             15.3638596015      -22.8556457466       28.0597053365  WZ4       591             0.0000000000
     23433      7811  TIP3      H2             16.0758096015      -22.4720857466       26.7799053365  WZ4       591             0.0000000000
     23434      7812  TIP3      OH2            14.9484796015      -23.4733757466       30.0426753365  WZ4       592             0.0000000000
     23435      7812  TIP3      H1             14.4613496015      -24.2089657466       29.6714153365  WZ4       592             0.0000000000
     23436      7812  TIP3      H2             15.4977496015      -23.8669857466       30.7206153365  WZ4       592             0.0000000000
     23437      7813  TIP3      OH2            14.7001796015      -29.4271957466       20.1949553365  WZ4       594             0.0000000000
     23438      7813  TIP3      H1             15.5503196015      -29.0061057466       20.3221153365  WZ4       594             0.0000000000
     23439      7813  TIP3      H2             14.7056896015      -30.1671857466       20.8020953365  WZ4       594             0.0000000000
     23440      7814  TIP3      OH2            15.0947396015      -31.3734557466       22.0185253365  WZ4       595             0.0000000000
     23441      7814  TIP3      H1             14.3681996015      -31.8531957466       22.4162853365  WZ4       595             0.0000000000
     23442      7814  TIP3      H2             15.6760696015      -31.1679857466       22.7506853365  WZ4       595             0.0000000000
     23443      7815  TIP3      OH2            14.8538596015      -28.5887057466       26.9662853365  WZ4       596             0.0000000000
     23444      7815  TIP3      H1             15.6872796015      -28.9667057466       26.6856453365  WZ4       596             0.0000000000
     23445      7815  TIP3      H2             14.9658896015      -27.6455857466       26.8471953365  WZ4       596             0.0000000000
     23446      7816  TIP3      OH2            13.3400896015      -25.7109557466       29.2731253365  WZ4       597             0.0000000000
     23447      7816  TIP3      H1             12.6926196015      -25.3858057466       29.8986453365  WZ4       597             0.0000000000
     23448      7816  TIP3      H2             12.8224896015      -26.1511857466       28.5989553365  WZ4       597             0.0000000000
     23449      7817  TIP3      OH2            15.3630496015      -31.4726057466       18.4096553365  WZ4       598             0.0000000000
     23450      7817  TIP3      H1             14.8411596015      -31.1161957466       17.6907453365  WZ4       598             0.0000000000
     23451      7817  TIP3      H2             15.3299696015      -30.7978257466       19.0877453365  WZ4       598             0.0000000000
     23452      7818  TIP3      OH2            13.7119496015      -34.2330457466       16.9603653365  WZ4       599             0.0000000000
     23453      7818  TIP3      H1             13.8083896015      -33.5663457466       16.2803353365  WZ4       599             0.0000000000
     23454      7818  TIP3      H2             13.5719096015      -35.0484157466       16.4789153365  WZ4       599             0.0000000000
     23455      7819  TIP3      OH2            12.8814196015      -32.8528057466       22.5813953365  WZ4       600             0.0000000000
     23456      7819  TIP3      H1             12.7312996015      -33.7979457466       22.5611753365  WZ4       600             0.0000000000
     23457      7819  TIP3      H2             12.5278696015      -32.5716657466       23.4253053365  WZ4       600             0.0000000000
     23458      7820  TIP3      OH2            -2.0833403985      -30.7745857466       26.5917753365  WZ4       601             0.0000000000
     23459      7820  TIP3      H1             -1.8990503985      -30.8564157466       25.6560653365  WZ4       601             0.0000000000
     23460      7820  TIP3      H2             -1.2340503985      -30.8988857466       27.0154153365  WZ4       601             0.0000000000
     23461      7821  TIP3      OH2            12.5918996015      -35.2702257466       21.0439053365  WZ4       605             0.0000000000
     23462      7821  TIP3      H1             12.8716096015      -36.1771857466       21.1680753365  WZ4       605             0.0000000000
     23463      7821  TIP3      H2             13.3510696015      -34.8360757466       20.6548253365  WZ4       605             0.0000000000
     23464      7822  TIP3      OH2            -2.9605803985      -34.1926257466       26.6929653365  WZ4       612             0.0000000000
     23465      7822  TIP3      H1             -2.4686003985      -34.4135757466       25.9021653365  WZ4       612             0.0000000000
     23466      7822  TIP3      H2             -2.5984903985      -33.3522857466       26.9739153365  WZ4       612             0.0000000000
     23467      7823  TIP3      OH2            12.1237896015      -22.9505457466       22.6929453365  WZ4       616             0.0000000000
     23468      7823  TIP3      H1             12.7760796015      -23.2983357466       22.0848553365  WZ4       616             0.0000000000
     23469      7823  TIP3      H2             12.6341696015      -22.4622257466       23.3389153365  WZ4       616             0.0000000000
     23470      7824  TIP3      OH2            -0.4914603985      -26.0214057466       33.2360353365  WZ4       618             0.0000000000
     23471      7824  TIP3      H1             -1.3122103985      -25.8467557466       32.7755053365  WZ4       618             0.0000000000
     23472      7824  TIP3      H2             -0.7436803985      -26.0949357466       34.1564753365  WZ4       618             0.0000000000
     23473      7825  TIP3      OH2             2.4628296015      -25.0472857466       29.4944353365  WZ4       619             0.0000000000
     23474      7825  TIP3      H1              2.0379396015      -24.2374357466       29.2118953365  WZ4       619             0.0000000000
     23475      7825  TIP3      H2              3.3671096015      -24.9618757466       29.1924153365  WZ4       619             0.0000000000
     23476      7826  TIP3      OH2             6.7739696015      -23.6482857466       32.4538053365  WZ4       620             0.0000000000
     23477      7826  TIP3      H1              6.9587196015      -23.9816757466       33.3318353365  WZ4       620             0.0000000000
     23478      7826  TIP3      H2              7.6204196015      -23.3384257466       32.1317253365  WZ4       620             0.0000000000
     23479      7827  TIP3      OH2             9.1190096015      -22.3623957466       31.6979453365  WZ4       621             0.0000000000
     23480      7827  TIP3      H1              9.7958996015      -22.9951657466       31.4578653365  WZ4       621             0.0000000000
     23481      7827  TIP3      H2              9.4408896015      -21.9613457466       32.5052753365  WZ4       621             0.0000000000
     23482      7828  TIP3      OH2            -0.1355003985      -21.7908957466       29.5419653365  WZ4       623             0.0000000000
     23483      7828  TIP3      H1             -0.8558603985      -21.3507957466       29.0907353365  WZ4       623             0.0000000000
     23484      7828  TIP3      H2             -0.5011003985      -22.0414257466       30.3903653365  WZ4       623             0.0000000000
     23485      7829  TIP3      OH2             2.3317596015      -22.1905057466       28.5716853365  WZ4       624             0.0000000000
     23486      7829  TIP3      H1              1.4669796015      -22.1186557466       28.9756953365  WZ4       624             0.0000000000
     23487      7829  TIP3      H2              2.2766596015      -21.6437757466       27.7879353365  WZ4       624             0.0000000000
     23488      7830  TIP3      OH2             7.0423196015      -22.3026157466       27.7472853365  WZ4       625             0.0000000000
     23489      7830  TIP3      H1              6.5857196015      -21.7736457466       27.0931253365  WZ4       625             0.0000000000
     23490      7830  TIP3      H2              7.2051196015      -21.6994757466       28.4725153365  WZ4       625             0.0000000000
     23491      7831  TIP3      OH2             9.3699496015      -23.4246557466       28.6923153365  WZ4       626             0.0000000000
     23492      7831  TIP3      H1              8.4653196015      -23.2596357466       28.4265253365  WZ4       626             0.0000000000
     23493      7831  TIP3      H2              9.7988096015      -22.5714357466       28.6266553365  WZ4       626             0.0000000000
     23494      7832  TIP3      OH2            11.9741396015      -21.8547457466       28.9870953365  WZ4       627             0.0000000000
     23495      7832  TIP3      H1             11.7923396015      -20.9388557466       28.7765853365  WZ4       627             0.0000000000
     23496      7832  TIP3      H2             12.1509196015      -22.2650357466       28.1405553365  WZ4       627             0.0000000000
     23497      7833  TIP3      OH2            -0.7206903985      -23.1676457466       26.4521453365  WZ4       628             0.0000000000
     23498      7833  TIP3      H1             -0.7390903985      -23.5931357466       27.3093753365  WZ4       628             0.0000000000
     23499      7833  TIP3      H2              0.0840996015      -23.4861457466       26.0433653365  WZ4       628             0.0000000000
     23500      7834  TIP3      OH2             1.4206196015      -24.4577757466       25.1071353365  WZ4       629             0.0000000000
     23501      7834  TIP3      H1              1.2016896015      -25.3740357466       25.2767353365  WZ4       629             0.0000000000
     23502      7834  TIP3      H2              2.2448396015      -24.3177357466       25.5732753365  WZ4       629             0.0000000000
     23503      7835  TIP3      OH2             3.9578696015      -23.9878457466       25.9559353365  WZ4       630             0.0000000000
     23504      7835  TIP3      H1              4.1704396015      -24.8759457466       25.6690253365  WZ4       630             0.0000000000
     23505      7835  TIP3      H2              4.0223796015      -24.0220757466       26.9103353365  WZ4       630             0.0000000000
     23506      7836  TIP3      OH2            -1.4697203985      -23.9437257466       19.6233753365  WZ4       639             0.0000000000
     23507      7836  TIP3      H1             -2.1547303985      -23.9818357466       18.9558853365  WZ4       639             0.0000000000
     23508      7836  TIP3      H2             -1.4660003985      -23.0309657466       19.9115853365  WZ4       639             0.0000000000
     23509      7837  TIP3      OH2             7.3946296015      -22.7342357466       18.0209953365  WZ4       642             0.0000000000
     23510      7837  TIP3      H1              8.2606496015      -22.3674957466       17.8428153365  WZ4       642             0.0000000000
     23511      7837  TIP3      H2              7.1479096015      -23.1734357466       17.2070753365  WZ4       642             0.0000000000
     23512      7838  TIP3      OH2            14.1035896015      -23.1712057466       20.7001053365  WZ4       643             0.0000000000
     23513      7838  TIP3      H1             13.9092996015      -23.9189957466       20.1350653365  WZ4       643             0.0000000000
     23514      7838  TIP3      H2             14.0645996015      -22.4131957466       20.1168953365  WZ4       643             0.0000000000
     23515      7839  TIP3      OH2             0.3483996015      -23.0236457466       16.6485853365  WZ4       646             0.0000000000
     23516      7839  TIP3      H1              0.0808596015      -22.7373557466       17.5218953365  WZ4       646             0.0000000000
     23517      7839  TIP3      H2              1.1196596015      -23.5697257466       16.8008353365  WZ4       646             0.0000000000
     23518      7840  TIP3      OH2            13.3212096015      -24.4199657466       32.8502853365  WZ4       648             0.0000000000
     23519      7840  TIP3      H1             12.5393996015      -24.6061657466       32.3303453365  WZ4       648             0.0000000000
     23520      7840  TIP3      H2             13.2491996015      -23.4905357466       33.0675353365  WZ4       648             0.0000000000
     23521      7841  TIP3      OH2            16.5622396015      -33.5540957466       21.8206053365  WZ4       654             0.0000000000
     23522      7841  TIP3      H1             16.1145796015      -32.7082257466       21.8022553365  WZ4       654             0.0000000000
     23523      7841  TIP3      H2             16.0013596015      -34.1336757466       21.3051153365  WZ4       654             0.0000000000
     23524      7842  TIP3      OH2            17.2728496015      -31.3921357466       23.9464053365  WZ4       655             0.0000000000
     23525      7842  TIP3      H1             17.4861996015      -32.1619757466       24.4737053365  WZ4       655             0.0000000000
     23526      7842  TIP3      H2             18.0106096015      -31.3024657466       23.3431653365  WZ4       655             0.0000000000
     23527      7843  TIP3      OH2            27.4779496015      -23.2352457466       24.8133753365  WZ4       656             0.0000000000
     23528      7843  TIP3      H1             28.0975896015      -23.9117757466       24.5402953365  WZ4       656             0.0000000000
     23529      7843  TIP3      H2             27.2696896015      -23.4531657466       25.7218653365  WZ4       656             0.0000000000
     23530      7844  TIP3      OH2            27.5245196015      -27.9324857466       21.9238753365  WZ4       666             0.0000000000
     23531      7844  TIP3      H1             27.2290296015      -28.2552557466       21.0725653365  WZ4       666             0.0000000000
     23532      7844  TIP3      H2             27.2002996015      -27.0328157466       21.9651353365  WZ4       666             0.0000000000
     23533      7845  TIP3      OH2            17.2531996015      -28.1219357466       20.2364153365  WZ4       671             0.0000000000
     23534      7845  TIP3      H1             16.9812896015      -27.8928357466       19.3477053365  WZ4       671             0.0000000000
     23535      7845  TIP3      H2             17.2987696015      -27.2840557466       20.6969453365  WZ4       671             0.0000000000
     23536      7846  TIP3      OH2            26.5024196015      -32.8320957466       17.3715353365  WZ4       679             0.0000000000
     23537      7846  TIP3      H1             27.2034096015      -32.8094057466       18.0229353365  WZ4       679             0.0000000000
     23538      7846  TIP3      H2             26.8047096015      -33.4601257466       16.7154653365  WZ4       679             0.0000000000
     23539      7847  TIP3      OH2            26.4517096015      -25.1810557466       22.4050553365  WZ4       690             0.0000000000
     23540      7847  TIP3      H1             26.9254696015      -24.8854257466       23.1824753365  WZ4       690             0.0000000000
     23541      7847  TIP3      H2             25.8886396015      -24.4428957466       22.1720153365  WZ4       690             0.0000000000
     23542      7848  TIP3      OH2            20.4899096015      -31.3801457466       20.7564053365  WZ4       693             0.0000000000
     23543      7848  TIP3      H1             20.1980396015      -30.6119757466       20.2655353365  WZ4       693             0.0000000000
     23544      7848  TIP3      H2             19.8154296015      -32.0395257466       20.5935453365  WZ4       693             0.0000000000
     23545      7849  TIP3      OH2            16.3331896015      -26.2368457466       26.4554053365  WZ4       696             0.0000000000
     23546      7849  TIP3      H1             17.2792496015      -26.3811457466       26.4363553365  WZ4       696             0.0000000000
     23547      7849  TIP3      H2             16.2208196015      -25.4525657466       26.9925253365  WZ4       696             0.0000000000
     23548      7850  TIP3      OH2            25.9240196015      -22.2245857466       20.8199753365  WZ4       699             0.0000000000
     23549      7850  TIP3      H1             25.8486196015      -22.3458657466       19.8734953365  WZ4       699             0.0000000000
     23550      7850  TIP3      H2             25.9568896015      -21.2753157466       20.9384353365  WZ4       699             0.0000000000
     23551      7851  TIP3      OH2            19.5773996015      -23.4358857466       22.6008753365  WZ4       700             0.0000000000
     23552      7851  TIP3      H1             19.7294396015      -23.7838457466       23.4795253365  WZ4       700             0.0000000000
     23553      7851  TIP3      H2             18.7264396015      -23.7921557466       22.3455953365  WZ4       700             0.0000000000
     23554      7852  TIP3      OH2            29.0256196015      -23.0705657466       17.8222153365  WZ4       701             0.0000000000
     23555      7852  TIP3      H1             29.4004596015      -23.8149557466       17.3514753365  WZ4       701             0.0000000000
     23556      7852  TIP3      H2             29.0299896015      -23.3405057466       18.7405453365  WZ4       701             0.0000000000
     23557      7853  TIP3      OH2            28.6944296015      -23.1448557466       20.5714353365  WZ4       702             0.0000000000
     23558      7853  TIP3      H1             27.7594096015      -23.0446657466       20.7501353365  WZ4       702             0.0000000000
     23559      7853  TIP3      H2             28.9746196015      -23.8542557466       21.1497553365  WZ4       702             0.0000000000
     23560      7854  TIP3      OH2            22.6575696015      -36.5636057466       16.3709053365  WZ4       716             0.0000000000
     23561      7854  TIP3      H1             22.2266396015      -37.0085957466       17.1006453365  WZ4       716             0.0000000000
     23562      7854  TIP3      H2             21.9394396015      -36.1919757466       15.8586553365  WZ4       716             0.0000000000
     23563      7855  TIP3      OH2            17.1741196015      -36.0754557466       18.8468153365  WZ4       718             0.0000000000
     23564      7855  TIP3      H1             17.6482896015      -35.4844657466       18.2619053365  WZ4       718             0.0000000000
     23565      7855  TIP3      H2             16.4567596015      -35.5451657466       19.1938253365  WZ4       718             0.0000000000
     23566      7856  TIP3      OH2            21.2757596015      -33.7863157466       17.7533453365  WZ4       724             0.0000000000
     23567      7856  TIP3      H1             20.7332696015      -34.1659357466       17.0621053365  WZ4       724             0.0000000000
     23568      7856  TIP3      H2             22.1092496015      -33.5918457466       17.3247553365  WZ4       724             0.0000000000
     23569      7857  TIP3      OH2            24.6110396015      -29.2207457466       19.6891553365  WZ4       730             0.0000000000
     23570      7857  TIP3      H1             23.8661396015      -29.7282157466       19.3669453365  WZ4       730             0.0000000000
     23571      7857  TIP3      H2             24.4767596015      -29.1719457466       20.6356353365  WZ4       730             0.0000000000
     23572      7858  TIP3      OH2            26.7364496015      -27.7623157466       18.7146153365  WZ4       736             0.0000000000
     23573      7858  TIP3      H1             26.4412896015      -26.9355257466       19.0960953365  WZ4       736             0.0000000000
     23574      7858  TIP3      H2             26.0334496015      -28.3816257466       18.9107553365  WZ4       736             0.0000000000
     23575      7859  TIP3      OH2            22.1108096015      -26.4079257466       22.8630953365  WZ4       744             0.0000000000
     23576      7859  TIP3      H1             22.6380296015      -25.6344857466       22.6629753365  WZ4       744             0.0000000000
     23577      7859  TIP3      H2             21.2306596015      -26.1830057466       22.5614953365  WZ4       744             0.0000000000
     23578      7860  TIP3      OH2            17.8655796015      -31.5455157466       17.4503353365  WZ4       745             0.0000000000
     23579      7860  TIP3      H1             18.4815696015      -30.9187957466       17.8298153365  WZ4       745             0.0000000000
     23580      7860  TIP3      H2             17.0038396015      -31.2295357466       17.7219853365  WZ4       745             0.0000000000
     23581      7861  TIP3      OH2            23.5380396015      -28.7449357466       22.4395253365  WZ4       746             0.0000000000
     23582      7861  TIP3      H1             23.2970396015      -27.8194957466       22.4810553365  WZ4       746             0.0000000000
     23583      7861  TIP3      H2             22.7973996015      -29.2038057466       22.8359153365  WZ4       746             0.0000000000
     23584      7862  TIP3      OH2            22.2211196015      -23.7231757466       21.9847453365  WZ4       748             0.0000000000
     23585      7862  TIP3      H1             21.2711696015      -23.6174357466       22.0360753365  WZ4       748             0.0000000000
     23586      7862  TIP3      H2             22.5729296015      -22.9024357466       22.3294953365  WZ4       748             0.0000000000
     23587      7863  TIP3      OH2            18.0289896015      -24.9073457466       28.7668753365  WZ4       755             0.0000000000
     23588      7863  TIP3      H1             18.2460196015      -25.8391057466       28.7358453365  WZ4       755             0.0000000000
     23589      7863  TIP3      H2             18.2753396015      -24.6328457466       29.6501553365  WZ4       755             0.0000000000
     23590      7864  TIP3      OH2            23.8904496015      -26.4558457466       15.9760953365  WZ4       756             0.0000000000
     23591      7864  TIP3      H1             24.1294296015      -27.2040357466       15.4289853365  WZ4       756             0.0000000000
     23592      7864  TIP3      H2             23.6215796015      -26.8436757466       16.8088753365  WZ4       756             0.0000000000
     23593      7865  TIP3      OH2            22.8275096015      -26.8854657466       18.4323553365  WZ4       757             0.0000000000
     23594      7865  TIP3      H1             22.9743096015      -27.4054857466       19.2224453365  WZ4       757             0.0000000000
     23595      7865  TIP3      H2             22.8246796015      -25.9787057466       18.7389453365  WZ4       757             0.0000000000
     23596      7866  TIP3      OH2            19.2806196015      -29.6331357466       18.9428953365  WZ4       758             0.0000000000
     23597      7866  TIP3      H1             18.5945496015      -29.2808857466       19.5098653365  WZ4       758             0.0000000000
     23598      7866  TIP3      H2             19.8034096015      -28.8701757466       18.6963253365  WZ4       758             0.0000000000
     23599      7867  TIP3      OH2            25.5652296015      -25.1881057466       19.1817753365  WZ4       761             0.0000000000
     23600      7867  TIP3      H1             24.7488396015      -24.6911357466       19.2342053365  WZ4       761             0.0000000000
     23601      7867  TIP3      H2             26.0948596015      -24.7127557466       18.5416553365  WZ4       761             0.0000000000
     23602      7868  TIP3      OH2            22.9035396015      -24.1443857466       19.1634653365  WZ4       765             0.0000000000
     23603      7868  TIP3      H1             23.0644096015      -23.3446357466       18.6627253365  WZ4       765             0.0000000000
     23604      7868  TIP3      H2             22.7063196015      -23.8377857466       20.0485253365  WZ4       765             0.0000000000
     23605      7869  TIP3      OH2            19.8965096015      -27.0192457466       17.8396753365  WZ4       769             0.0000000000
     23606      7869  TIP3      H1             20.4886596015      -26.3197657466       18.1159153365  WZ4       769             0.0000000000
     23607      7869  TIP3      H2             20.3558096015      -27.4522957466       17.1201353365  WZ4       769             0.0000000000
     23608      7870  TIP3      OH2            18.2124296015      -34.3549457466       16.9556153365  WZ4       770             0.0000000000
     23609      7870  TIP3      H1             18.1676896015      -33.4156357466       17.1343153365  WZ4       770             0.0000000000
     23610      7870  TIP3      H2             17.3247496015      -34.5904557466       16.6858253365  WZ4       770             0.0000000000
     23611      7871  TIP3      OH2            17.9509596015      -25.6325757466       21.7892953365  WZ4       773             0.0000000000
     23612      7871  TIP3      H1             17.1188196015      -25.1603057466       21.8164353365  WZ4       773             0.0000000000
     23613      7871  TIP3      H2             18.4967896015      -25.1228157466       21.1906053365  WZ4       773             0.0000000000
     23614      7872  TIP3      OH2            25.9286296015      -24.5927057466       16.1146953365  WZ4       776             0.0000000000
     23615      7872  TIP3      H1             25.2847296015      -25.2238457466       16.4360653365  WZ4       776             0.0000000000
     23616      7872  TIP3      H2             26.6904596015      -25.1239057466       15.8830453365  WZ4       776             0.0000000000
     23617      7873  TIP3      OH2            21.4876496015      -28.8662257466       16.2059853365  WZ4       780             0.0000000000
     23618      7873  TIP3      H1             21.5520596015      -29.6602657466       16.7366253365  WZ4       780             0.0000000000
     23619      7873  TIP3      H2             22.1405696015      -28.9849457466       15.5161853365  WZ4       780             0.0000000000
     23620      7874  TIP3      OH2            26.8399896015      -27.8190557466       15.9417853365  WZ4       782             0.0000000000
     23621      7874  TIP3      H1             26.5713996015      -27.6388457466       16.8426753365  WZ4       782             0.0000000000
     23622      7874  TIP3      H2             26.6335496015      -28.7444357466       15.8103653365  WZ4       782             0.0000000000
     23623      7875  TIP3      OH2            22.6370296015      -30.8936057466       18.5117853365  WZ4       785             0.0000000000
     23624      7875  TIP3      H1             22.1772296015      -31.3777757466       19.1976353365  WZ4       785             0.0000000000
     23625      7875  TIP3      H2             22.8918996015      -31.5620657466       17.8758353365  WZ4       785             0.0000000000
     23626      7876  TIP3      OH2            23.7080696015      -32.6504257466       16.7741053365  WZ4       787             0.0000000000
     23627      7876  TIP3      H1             23.5275696015      -32.8053057466       15.8469353365  WZ4       787             0.0000000000
     23628      7876  TIP3      H2             24.6581196015      -32.5425557466       16.8188953365  WZ4       787             0.0000000000
     23629      7877  TIP3      OH2            23.6052396015      -21.9600557466       17.7754653365  WZ4       803             0.0000000000
     23630      7877  TIP3      H1             24.5383096015      -21.8021857466       17.9193053365  WZ4       803             0.0000000000
     23631      7877  TIP3      H2             23.3411196015      -21.2847557466       17.1506153365  WZ4       803             0.0000000000
     23632      7878  TIP3      OH2            17.1737296015      -27.3236757466       17.2582753365  WZ4       804             0.0000000000
     23633      7878  TIP3      H1             18.0876496015      -27.2447857466       17.5316653365  WZ4       804             0.0000000000
     23634      7878  TIP3      H2             17.1810396015      -28.0107157466       16.5918353365  WZ4       804             0.0000000000
     23635      7879  TIP3      OH2            15.8227896015      -21.9308257466       22.3356653365  WZ4       805             0.0000000000
     23636      7879  TIP3      H1             15.1754996015      -22.3926557466       21.8027853365  WZ4       805             0.0000000000
     23637      7879  TIP3      H2             16.1772496015      -22.6024957466       22.9182853365  WZ4       805             0.0000000000
     23638      7880  TIP3      OH2            16.6927096015      -23.8501257466       24.1402853365  WZ4       806             0.0000000000
     23639      7880  TIP3      H1             16.3583896015      -24.7303957466       24.3123053365  WZ4       806             0.0000000000
     23640      7880  TIP3      H2             16.9149496015      -23.5046257466       25.0048453365  WZ4       806             0.0000000000
     23641      7881  TIP3      OH2            18.7204996015      -21.7908957466       29.5419653365  WZ4       839             0.0000000000
     23642      7881  TIP3      H1             18.0001396015      -21.3507957466       29.0907353365  WZ4       839             0.0000000000
     23643      7881  TIP3      H2             18.3548996015      -22.0414257466       30.3903653365  WZ4       839             0.0000000000
     23644      7882  TIP3      OH2            21.1877596015      -22.1905057466       28.5716853365  WZ4       840             0.0000000000
     23645      7882  TIP3      H1             20.3229796015      -22.1186557466       28.9756953365  WZ4       840             0.0000000000
     23646      7882  TIP3      H2             21.1326596015      -21.6437757466       27.7879353365  WZ4       840             0.0000000000
     23647      7883  TIP3      OH2            18.1353096015      -23.1676457466       26.4521453365  WZ4       844             0.0000000000
     23648      7883  TIP3      H1             18.1169096015      -23.5931357466       27.3093753365  WZ4       844             0.0000000000
     23649      7883  TIP3      H2             18.9400996015      -23.4861457466       26.0433653365  WZ4       844             0.0000000000
     23650      7884  TIP3      OH2            20.2766196015      -24.4577757466       25.1071353365  WZ4       845             0.0000000000
     23651      7884  TIP3      H1             20.0576896015      -25.3740357466       25.2767353365  WZ4       845             0.0000000000
     23652      7884  TIP3      H2             21.1008396015      -24.3177357466       25.5732753365  WZ4       845             0.0000000000
     23653      7885  TIP3      OH2            22.8138696015      -23.9878457466       25.9559353365  WZ4       846             0.0000000000
     23654      7885  TIP3      H1             23.0264396015      -24.8759457466       25.6690253365  WZ4       846             0.0000000000
     23655      7885  TIP3      H2             22.8783796015      -24.0220757466       26.9103353365  WZ4       846             0.0000000000
     23656      7886  TIP3      OH2            17.3862796015      -23.9437257466       19.6233753365  WZ4       855             0.0000000000
     23657      7886  TIP3      H1             16.7012696015      -23.9818357466       18.9558853365  WZ4       855             0.0000000000
     23658      7886  TIP3      H2             17.3899996015      -23.0309657466       19.9115853365  WZ4       855             0.0000000000
     23659      7887  TIP3      OH2            26.2506296015      -22.7342357466       18.0209953365  WZ4       858             0.0000000000
     23660      7887  TIP3      H1             27.1166496015      -22.3674957466       17.8428153365  WZ4       858             0.0000000000
     23661      7887  TIP3      H2             26.0039096015      -23.1734357466       17.2070753365  WZ4       858             0.0000000000
     23662      7888  TIP3      OH2            19.2043996015      -23.0236457466       16.6485853365  WZ4       862             0.0000000000
     23663      7888  TIP3      H1             18.9368596015      -22.7373557466       17.5218953365  WZ4       862             0.0000000000
     23664      7888  TIP3      H2             19.9756596015      -23.5697257466       16.8008353365  WZ4       862             0.0000000000
     23665      7889  TIP3      OH2           -28.8407503985      -11.6775257466       22.8810053365  WZ4       932             0.0000000000
     23666      7889  TIP3      H1            -28.7516403985      -10.7337057466       22.7487153365  WZ4       932             0.0000000000
     23667      7889  TIP3      H2            -29.4789903985      -11.9528857466       22.2229453365  WZ4       932             0.0000000000
     23668      7890  TIP3      OH2           -26.2016003985       -9.4834157466       24.6013353365  WZ4       935             0.0000000000
     23669      7890  TIP3      H1            -26.6423303985      -10.2038157466       25.0518953365  WZ4       935             0.0000000000
     23670      7890  TIP3      H2            -26.2146303985       -8.7626957466       25.2311053365  WZ4       935             0.0000000000
     23671      7891  TIP3      OH2           -29.0900503985       -4.3792457466       24.8133753365  WZ4       939             0.0000000000
     23672      7891  TIP3      H1            -28.4704103985       -5.0557757466       24.5402953365  WZ4       939             0.0000000000
     23673      7891  TIP3      H2            -29.2983103985       -4.5971657466       25.7218653365  WZ4       939             0.0000000000
     23674      7892  TIP3      OH2           -29.0434803985       -9.0764857466       21.9238753365  WZ4       949             0.0000000000
     23675      7892  TIP3      H1            -29.3389703985       -9.3992557466       21.0725653365  WZ4       949             0.0000000000
     23676      7892  TIP3      H2            -29.3677003985       -8.1768157466       21.9651353365  WZ4       949             0.0000000000
     23677      7893  TIP3      OH2           -25.6898303985       -7.6443457466       26.9492653365  WZ4       955             0.0000000000
     23678      7893  TIP3      H1            -26.6314603985       -7.5859557466       27.1109553365  WZ4       955             0.0000000000
     23679      7893  TIP3      H2            -25.4132203985       -6.7382957466       26.8122353365  WZ4       955             0.0000000000
     23680      7894  TIP3      OH2           -27.4377103985       -5.8629957466       23.5744253365  WZ4       958             0.0000000000
     23681      7894  TIP3      H1            -27.0124803985       -6.5702057466       23.0893853365  WZ4       958             0.0000000000
     23682      7894  TIP3      H2            -27.1207103985       -5.0617257466       23.1576453365  WZ4       958             0.0000000000
     23683      7895  TIP3      OH2           -26.2780603985       -7.9621457466       22.0830853365  WZ4       959             0.0000000000
     23684      7895  TIP3      H1            -26.5355803985       -8.6521357466       21.4716753365  WZ4       959             0.0000000000
     23685      7895  TIP3      H2            -26.2069803985       -8.4050257466       22.9286753365  WZ4       959             0.0000000000
     23686      7896  TIP3      OH2           -30.1195003985      -12.4335257466       20.3330353365  WZ4       961             0.0000000000
     23687      7896  TIP3      H1            -30.8309503985      -11.8985557466       19.9810853365  WZ4       961             0.0000000000
     23688      7896  TIP3      H2            -29.4285403985      -12.3783157466       19.6729253365  WZ4       961             0.0000000000
     23689      7897  TIP3      OH2           -30.0655803985      -13.9760957466       17.3715353365  WZ4       962             0.0000000000
     23690      7897  TIP3      H1            -29.3645903985      -13.9534057466       18.0229353365  WZ4       962             0.0000000000
     23691      7897  TIP3      H2            -29.7632903985      -14.6041257466       16.7154653365  WZ4       962             0.0000000000
     23692      7898  TIP3      OH2           -26.7137303985      -12.2241957466       21.2846253365  WZ4       964             0.0000000000
     23693      7898  TIP3      H1            -27.4456303985      -11.9958257466       21.8576853365  WZ4       964             0.0000000000
     23694      7898  TIP3      H2            -26.2665103985      -12.9379257466       21.7393753365  WZ4       964             0.0000000000
     23695      7899  TIP3      OH2           -27.8427803985      -13.0619057466       18.9697453365  WZ4       971             0.0000000000
     23696      7899  TIP3      H1            -27.2632303985      -12.9118757466       19.7166353365  WZ4       971             0.0000000000
     23697      7899  TIP3      H2            -27.4287803985      -12.5911657466       18.2463853365  WZ4       971             0.0000000000
     23698      7900  TIP3      OH2           -30.1162903985       -6.3250557466       22.4050553365  WZ4       973             0.0000000000
     23699      7900  TIP3      H1            -29.6425303985       -6.0294257466       23.1824753365  WZ4       973             0.0000000000
     23700      7900  TIP3      H2            -30.6793603985       -5.5868957466       22.1720153365  WZ4       973             0.0000000000
     23701      7901  TIP3      OH2           -24.1439403985      -21.3118657466       18.7827153365  WZ4       975             0.0000000000
     23702      7901  TIP3      H1            -25.0438703985      -21.1729657466       19.0777753365  WZ4       975             0.0000000000
     23703      7901  TIP3      H2            -23.8921003985      -20.4804057466       18.3808853365  WZ4       975             0.0000000000
     23704      7902  TIP3      OH2           -22.9548003985       -6.9456257466       17.1591053365  WZ4       977             0.0000000000
     23705      7902  TIP3      H1            -22.8814503985       -6.0066057466       17.3296353365  WZ4       977             0.0000000000
     23706      7902  TIP3      H2            -22.0492903985       -7.2507657466       17.1028353365  WZ4       977             0.0000000000
     23707      7903  TIP3      OH2           -30.6439803985       -3.3685857466       20.8199753365  WZ4       982             0.0000000000
     23708      7903  TIP3      H1            -30.7193803985       -3.4898657466       19.8734953365  WZ4       982             0.0000000000
     23709      7903  TIP3      H2            -30.6111103985       -2.4193157466       20.9384353365  WZ4       982             0.0000000000
     23710      7904  TIP3      OH2           -27.5423803985       -4.2145657466       17.8222153365  WZ4       984             0.0000000000
     23711      7904  TIP3      H1            -27.1675403985       -4.9589557466       17.3514753365  WZ4       984             0.0000000000
     23712      7904  TIP3      H2            -27.5380103985       -4.4845057466       18.7405453365  WZ4       984             0.0000000000
     23713      7905  TIP3      OH2           -27.8735703985       -4.2888557466       20.5714353365  WZ4       985             0.0000000000
     23714      7905  TIP3      H1            -28.8085903985       -4.1886657466       20.7501353365  WZ4       985             0.0000000000
     23715      7905  TIP3      H2            -27.5933803985       -4.9982557466       21.1497553365  WZ4       985             0.0000000000
     23716      7906  TIP3      OH2           -26.3654703985      -12.0290757466       16.5995353365  WZ4       991             0.0000000000
     23717      7906  TIP3      H1            -26.3233903985      -12.2516857466       15.6695353365  WZ4       991             0.0000000000
     23718      7906  TIP3      H2            -25.5162603985      -11.6303657466       16.7895253365  WZ4       991             0.0000000000
     23719      7907  TIP3      OH2           -30.7927203985      -18.1532557466       17.2698653365  WZ4       992             0.0000000000
     23720      7907  TIP3      H1            -31.0462403985      -18.1340957466       18.1926753365  WZ4       992             0.0000000000
     23721      7907  TIP3      H2            -31.0495103985      -19.0247157466       16.9684853365  WZ4       992             0.0000000000
     23722      7908  TIP3      OH2           -29.4937603985      -14.7651457466       21.4341853365  WZ4       995             0.0000000000
     23723      7908  TIP3      H1            -29.9027303985      -13.9502857466       21.1426653365  WZ4       995             0.0000000000
     23724      7908  TIP3      H2            -28.7731403985      -14.9051357466       20.8198953365  WZ4       995             0.0000000000
     23725      7909  TIP3      OH2           -33.9104303985      -17.7076057466       16.3709053365  WZ4       999             0.0000000000
     23726      7909  TIP3      H1            -34.3413603985      -18.1525957466       17.1006453365  WZ4       999             0.0000000000
     23727      7909  TIP3      H2            -34.6285603985      -17.3359757466       15.8586553365  WZ4       999             0.0000000000
     23728      7910  TIP3      OH2           -35.2922403985      -14.9303157466       17.7533453365  WZ4       1007            0.0000000000
     23729      7910  TIP3      H1            -35.8347303985      -15.3099357466       17.0621053365  WZ4       1007            0.0000000000
     23730      7910  TIP3      H2            -34.4587503985      -14.7358457466       17.3247553365  WZ4       1007            0.0000000000
     23731      7911  TIP3      OH2           -31.9569603985      -10.3647457466       19.6891553365  WZ4       1013            0.0000000000
     23732      7911  TIP3      H1            -32.7018603985      -10.8722157466       19.3669453365  WZ4       1013            0.0000000000
     23733      7911  TIP3      H2            -32.0912403985      -10.3159457466       20.6356353365  WZ4       1013            0.0000000000
     23734      7912  TIP3      OH2           -28.0592803985      -17.5507557466       17.8884153365  WZ4       1015            0.0000000000
     23735      7912  TIP3      H1            -28.9978603985      -17.4391957466       17.7372953365  WZ4       1015            0.0000000000
     23736      7912  TIP3      H2            -27.7620703985      -16.6940657466       18.1949853365  WZ4       1015            0.0000000000
     23737      7913  TIP3      OH2           -27.3409303985      -15.6834857466       19.5491553365  WZ4       1017            0.0000000000
     23738      7913  TIP3      H1            -26.4490303985      -15.8209857466       19.8682753365  WZ4       1017            0.0000000000
     23739      7913  TIP3      H2            -27.2845703985      -14.8928757466       19.0125053365  WZ4       1017            0.0000000000
     23740      7914  TIP3      OH2           -29.8315503985       -8.9063157466       18.7146153365  WZ4       1019            0.0000000000
     23741      7914  TIP3      H1            -30.1267103985       -8.0795257466       19.0960953365  WZ4       1019            0.0000000000
     23742      7914  TIP3      H2            -30.5345503985       -9.5256257466       18.9107553365  WZ4       1019            0.0000000000
     23743      7915  TIP3      OH2           -22.4560603985      -15.4740757466       19.2438253365  WZ4       1023            0.0000000000
     23744      7915  TIP3      H1            -23.0104303985      -15.8702757466       18.5715753365  WZ4       1023            0.0000000000
     23745      7915  TIP3      H2            -22.3557003985      -14.5635557466       18.9661553365  WZ4       1023            0.0000000000
     23746      7916  TIP3      OH2           -24.1608903985       -6.6880357466       19.7090353365  WZ4       1025            0.0000000000
     23747      7916  TIP3      H1            -24.5337803985       -7.5136557466       20.0180953365  WZ4       1025            0.0000000000
     23748      7916  TIP3      H2            -23.8835403985       -6.8710957466       18.8113753365  WZ4       1025            0.0000000000
     23749      7917  TIP3      OH2           -38.7024203985      -12.6895157466       17.4503353365  WZ4       1028            0.0000000000
     23750      7917  TIP3      H1            -38.0864303985      -12.0627957466       17.8298153365  WZ4       1028            0.0000000000
     23751      7917  TIP3      H2            -39.5641603985      -12.3735357466       17.7219853365  WZ4       1028            0.0000000000
     23752      7918  TIP3      OH2           -34.3468803985       -4.8671757466       21.9847453365  WZ4       1031            0.0000000000
     23753      7918  TIP3      H1            -35.2968303985       -4.7614357466       22.0360753365  WZ4       1031            0.0000000000
     23754      7918  TIP3      H2            -33.9950703985       -4.0464357466       22.3294953365  WZ4       1031            0.0000000000
     23755      7919  TIP3      OH2           -26.7683303985       -8.7114557466       17.5290953365  WZ4       1033            0.0000000000
     23756      7919  TIP3      H1            -26.4150203985       -9.0914757466       18.3334453365  WZ4       1033            0.0000000000
     23757      7919  TIP3      H2            -27.7169803985       -8.8049757466       17.6160253365  WZ4       1033            0.0000000000
     23758      7920  TIP3      OH2           -22.2648903985       -4.2322057466       17.7301153365  WZ4       1035            0.0000000000
     23759      7920  TIP3      H1            -21.5211003985       -3.6461557466       17.5902753365  WZ4       1035            0.0000000000
     23760      7920  TIP3      H2            -22.9590803985       -3.6636257466       18.0633553365  WZ4       1035            0.0000000000
     23761      7921  TIP3      OH2           -25.9024003985      -10.0392557466       19.7558853365  WZ4       1037            0.0000000000
     23762      7921  TIP3      H1            -26.1796403985      -10.7673257466       20.3119953365  WZ4       1037            0.0000000000
     23763      7921  TIP3      H2            -24.9751003985       -9.9200557466       19.9611453365  WZ4       1037            0.0000000000
     23764      7922  TIP3      OH2           -32.6775503985       -7.5998457466       15.9760953365  WZ4       1039            0.0000000000
     23765      7922  TIP3      H1            -32.4385703985       -8.3480357466       15.4289853365  WZ4       1039            0.0000000000
     23766      7922  TIP3      H2            -32.9464203985       -7.9876757466       16.8088753365  WZ4       1039            0.0000000000
     23767      7923  TIP3      OH2           -33.7404903985       -8.0294657466       18.4323553365  WZ4       1040            0.0000000000
     23768      7923  TIP3      H1            -33.5936903985       -8.5494857466       19.2224453365  WZ4       1040            0.0000000000
     23769      7923  TIP3      H2            -33.7433203985       -7.1227057466       18.7389453365  WZ4       1040            0.0000000000
     23770      7924  TIP3      OH2           -37.2873803985      -10.7771357466       18.9428953365  WZ4       1041            0.0000000000
     23771      7924  TIP3      H1            -37.9734503985      -10.4248857466       19.5098653365  WZ4       1041            0.0000000000
     23772      7924  TIP3      H2            -36.7645903985      -10.0141757466       18.6963253365  WZ4       1041            0.0000000000
     23773      7925  TIP3      OH2           -28.6713803985      -18.4625857466       20.3190253365  WZ4       1043            0.0000000000
     23774      7925  TIP3      H1            -28.4515503985      -17.9910457466       19.5155653365  WZ4       1043            0.0000000000
     23775      7925  TIP3      H2            -28.1129803985      -18.0683257466       20.9890853365  WZ4       1043            0.0000000000
     23776      7926  TIP3      OH2           -31.0027703985       -6.3321057466       19.1817753365  WZ4       1044            0.0000000000
     23777      7926  TIP3      H1            -31.8191603985       -5.8351357466       19.2342053365  WZ4       1044            0.0000000000
     23778      7926  TIP3      H2            -30.4731403985       -5.8567557466       18.5416553365  WZ4       1044            0.0000000000
     23779      7927  TIP3      OH2           -33.6644603985       -5.2883857466       19.1634653365  WZ4       1048            0.0000000000
     23780      7927  TIP3      H1            -33.5035903985       -4.4886357466       18.6627253365  WZ4       1048            0.0000000000
     23781      7927  TIP3      H2            -33.8616803985       -4.9817857466       20.0485253365  WZ4       1048            0.0000000000
     23782      7928  TIP3      OH2           -36.6714903985       -8.1632457466       17.8396753365  WZ4       1052            0.0000000000
     23783      7928  TIP3      H1            -36.0793403985       -7.4637657466       18.1159153365  WZ4       1052            0.0000000000
     23784      7928  TIP3      H2            -36.2121903985       -8.5962957466       17.1201353365  WZ4       1052            0.0000000000
     23785      7929  TIP3      OH2           -25.0426103985       -4.8350557466       26.8915753365  WZ4       1054            0.0000000000
     23786      7929  TIP3      H1            -25.1981803985       -4.1566157466       26.2345053365  WZ4       1054            0.0000000000
     23787      7929  TIP3      H2            -24.1099703985       -4.7631257466       27.0946353365  WZ4       1054            0.0000000000
     23788      7930  TIP3      OH2           -30.6393703985       -5.7367057466       16.1146953365  WZ4       1059            0.0000000000
     23789      7930  TIP3      H1            -31.2832703985       -6.3678457466       16.4360653365  WZ4       1059            0.0000000000
     23790      7930  TIP3      H2            -29.8775403985       -6.2679057466       15.8830453365  WZ4       1059            0.0000000000
     23791      7931  TIP3      OH2           -26.0350803985       -5.9197157466       16.3484953365  WZ4       1061            0.0000000000
     23792      7931  TIP3      H1            -25.7520403985       -6.7141957466       16.8011853365  WZ4       1061            0.0000000000
     23793      7931  TIP3      H2            -25.2952903985       -5.6866157466       15.7876053365  WZ4       1061            0.0000000000
     23794      7932  TIP3      OH2           -35.0803503985      -10.0102257466       16.2059853365  WZ4       1063            0.0000000000
     23795      7932  TIP3      H1            -35.0159403985      -10.8042657466       16.7366253365  WZ4       1063            0.0000000000
     23796      7932  TIP3      H2            -34.4274303985      -10.1289457466       15.5161853365  WZ4       1063            0.0000000000
     23797      7933  TIP3      OH2           -29.7280103985       -8.9630557466       15.9417853365  WZ4       1065            0.0000000000
     23798      7933  TIP3      H1            -29.9966003985       -8.7828457466       16.8426753365  WZ4       1065            0.0000000000
     23799      7933  TIP3      H2            -29.9344503985       -9.8884357466       15.8103653365  WZ4       1065            0.0000000000
     23800      7934  TIP3      OH2           -33.9309703985      -12.0376057466       18.5117853365  WZ4       1068            0.0000000000
     23801      7934  TIP3      H1            -34.3907703985      -12.5217757466       19.1976353365  WZ4       1068            0.0000000000
     23802      7934  TIP3      H2            -33.6761003985      -12.7060657466       17.8758353365  WZ4       1068            0.0000000000
     23803      7935  TIP3      OH2           -32.8599303985      -13.7944257466       16.7741053365  WZ4       1070            0.0000000000
     23804      7935  TIP3      H1            -33.0404303985      -13.9493057466       15.8469353365  WZ4       1070            0.0000000000
     23805      7935  TIP3      H2            -31.9098803985      -13.6865557466       16.8188953365  WZ4       1070            0.0000000000
     23806      7936  TIP3      OH2           -23.4701003985      -11.4400057466       16.2199153365  WZ4       1072            0.0000000000
     23807      7936  TIP3      H1            -23.7436203985      -11.8644557466       15.4067453365  WZ4       1072            0.0000000000
     23808      7936  TIP3      H2            -23.4306903985      -10.5085557466       16.0029553365  WZ4       1072            0.0000000000
     23809      7937  TIP3      OH2           -32.9627603985       -3.1040557466       17.7754653365  WZ4       1086            0.0000000000
     23810      7937  TIP3      H1            -32.0296903985       -2.9461857466       17.9193053365  WZ4       1086            0.0000000000
     23811      7937  TIP3      H2            -33.2268803985       -2.4287557466       17.1506153365  WZ4       1086            0.0000000000
     23812      7938  TIP3      OH2           -39.3942703985       -8.4676757466       17.2582753365  WZ4       1087            0.0000000000
     23813      7938  TIP3      H1            -38.4803503985       -8.3887857466       17.5316653365  WZ4       1087            0.0000000000
     23814      7938  TIP3      H2            -39.3869603985       -9.1547157466       16.5918353365  WZ4       1087            0.0000000000
     23815      7939  TIP3      OH2           -22.3268103985       -4.1844857466       27.1207653365  WZ4       1090            0.0000000000
     23816      7939  TIP3      H1            -22.3481403985       -3.9996457466       28.0597053365  WZ4       1090            0.0000000000
     23817      7939  TIP3      H2            -21.6361903985       -3.6160857466       26.7799053365  WZ4       1090            0.0000000000
     23818      7940  TIP3      OH2           -23.0118203985      -10.5711957466       20.1949553365  WZ4       1093            0.0000000000
     23819      7940  TIP3      H1            -22.1616803985      -10.1501057466       20.3221153365  WZ4       1093            0.0000000000
     23820      7940  TIP3      H2            -23.0063103985      -11.3111857466       20.8020953365  WZ4       1093            0.0000000000
     23821      7941  TIP3      OH2           -22.6172603985      -12.5174557466       22.0185253365  WZ4       1094            0.0000000000
     23822      7941  TIP3      H1            -23.3438003985      -12.9971957466       22.4162853365  WZ4       1094            0.0000000000
     23823      7941  TIP3      H2            -22.0359303985      -12.3119857466       22.7506853365  WZ4       1094            0.0000000000
     23824      7942  TIP3      OH2           -22.8581403985       -9.7327057466       26.9662853365  WZ4       1095            0.0000000000
     23825      7942  TIP3      H1            -22.0247203985      -10.1107057466       26.6856453365  WZ4       1095            0.0000000000
     23826      7942  TIP3      H2            -22.7461103985       -8.7895857466       26.8471953365  WZ4       1095            0.0000000000
     23827      7943  TIP3      OH2           -22.3489503985      -12.6166057466       18.4096553365  WZ4       1097            0.0000000000
     23828      7943  TIP3      H1            -22.8708403985      -12.2601957466       17.6907453365  WZ4       1097            0.0000000000
     23829      7943  TIP3      H2            -22.3820303985      -11.9418257466       19.0877453365  WZ4       1097            0.0000000000
     23830      7944  TIP3      OH2           -24.0000503985      -15.3770457466       16.9603653365  WZ4       1098            0.0000000000
     23831      7944  TIP3      H1            -23.9036103985      -14.7103457466       16.2803353365  WZ4       1098            0.0000000000
     23832      7944  TIP3      H2            -24.1400903985      -16.1924157466       16.4789153365  WZ4       1098            0.0000000000
     23833      7945  TIP3      OH2           -24.8305803985      -13.9968057466       22.5813953365  WZ4       1099            0.0000000000
     23834      7945  TIP3      H1            -24.9807003985      -14.9419457466       22.5611753365  WZ4       1099            0.0000000000
     23835      7945  TIP3      H2            -25.1841303985      -13.7156657466       23.4253053365  WZ4       1099            0.0000000000
     23836      7946  TIP3      OH2           -24.7526703985      -17.9690657466       16.0779153365  WZ4       1103            0.0000000000
     23837      7946  TIP3      H1            -24.1420903985      -18.3403857466       16.7147353365  WZ4       1103            0.0000000000
     23838      7946  TIP3      H2            -25.5895203985      -18.3903757466       16.2739153365  WZ4       1103            0.0000000000
     23839      7947  TIP3      OH2           -25.1201003985      -16.4142257466       21.0439053365  WZ4       1104            0.0000000000
     23840      7947  TIP3      H1            -24.8403903985      -17.3211857466       21.1680753365  WZ4       1104            0.0000000000
     23841      7947  TIP3      H2            -24.3609303985      -15.9800757466       20.6548253365  WZ4       1104            0.0000000000
     23842      7948  TIP3      OH2           -24.5066203985      -19.1512957466       21.0921053365  WZ4       1109            0.0000000000
     23843      7948  TIP3      H1            -24.3241203985      -19.6001457466       21.9176053365  WZ4       1109            0.0000000000
     23844      7948  TIP3      H2            -25.1063303985      -19.7358557466       20.6285653365  WZ4       1109            0.0000000000
     23845      7949  TIP3      OH2           -22.6400003985      -19.0834857466       17.6201353365  WZ4       1113            0.0000000000
     23846      7949  TIP3      H1            -22.2277403985      -19.8049157466       17.1449353365  WZ4       1113            0.0000000000
     23847      7949  TIP3      H2            -21.9583503985      -18.4140257466       17.6785653365  WZ4       1113            0.0000000000
     23848      7950  TIP3      OH2           -25.5882103985       -4.0945457466       22.6929453365  WZ4       1115            0.0000000000
     23849      7950  TIP3      H1            -24.9359203985       -4.4423357466       22.0848553365  WZ4       1115            0.0000000000
     23850      7950  TIP3      H2            -25.0778303985       -3.6062257466       23.3389153365  WZ4       1115            0.0000000000
     23851      7951  TIP3      OH2           -25.7378603985       -2.9987457466       28.9870953365  WZ4       1126            0.0000000000
     23852      7951  TIP3      H1            -25.9196603985       -2.0828557466       28.7765853365  WZ4       1126            0.0000000000
     23853      7951  TIP3      H2            -25.5610803985       -3.4090357466       28.1405553365  WZ4       1126            0.0000000000
     23854      7952  TIP3      OH2           -23.3760003985      -20.2215157466       23.5460653365  WZ4       1132            0.0000000000
     23855      7952  TIP3      H1            -22.7642503985      -20.7359457466       23.0194253365  WZ4       1132            0.0000000000
     23856      7952  TIP3      H2            -22.9936603985      -19.3443057466       23.5695053365  WZ4       1132            0.0000000000
     23857      7953  TIP3      OH2           -26.4296503985      -20.8512857466       20.0772353365  WZ4       1137            0.0000000000
     23858      7953  TIP3      H1            -27.1325403985      -20.2363657466       19.8673753365  WZ4       1137            0.0000000000
     23859      7953  TIP3      H2            -26.8745103985      -21.6886157466       20.2083253365  WZ4       1137            0.0000000000
     23860      7954  TIP3      OH2           -39.1817203985       -5.0877257466       19.6233753365  WZ4       1138            0.0000000000
     23861      7954  TIP3      H1            -39.8667303985       -5.1258357466       18.9558853365  WZ4       1138            0.0000000000
     23862      7954  TIP3      H2            -39.1780003985       -4.1749657466       19.9115853365  WZ4       1138            0.0000000000
     23863      7955  TIP3      OH2           -30.3173703985       -3.8782357466       18.0209953365  WZ4       1141            0.0000000000
     23864      7955  TIP3      H1            -29.4513503985       -3.5114957466       17.8428153365  WZ4       1141            0.0000000000
     23865      7955  TIP3      H2            -30.5640903985       -4.3174357466       17.2070753365  WZ4       1141            0.0000000000
     23866      7956  TIP3      OH2           -23.6084103985       -4.3152057466       20.7001053365  WZ4       1142            0.0000000000
     23867      7956  TIP3      H1            -23.8027003985       -5.0629957466       20.1350653365  WZ4       1142            0.0000000000
     23868      7956  TIP3      H2            -23.6474003985       -3.5571957466       20.1168953365  WZ4       1142            0.0000000000
     23869      7957  TIP3      OH2           -37.3636003985       -4.1676457466       16.6485853365  WZ4       1145            0.0000000000
     23870      7957  TIP3      H1            -37.6311403985       -3.8813557466       17.5218953365  WZ4       1145            0.0000000000
     23871      7957  TIP3      H2            -36.5923403985       -4.7137257466       16.8008353365  WZ4       1145            0.0000000000
     23872      7958  TIP3      OH2            -9.9847503985      -11.6775257466       22.8810053365  WZ4       1148            0.0000000000
     23873      7958  TIP3      H1             -9.8956403985      -10.7337057466       22.7487153365  WZ4       1148            0.0000000000
     23874      7958  TIP3      H2            -10.6229903985      -11.9528857466       22.2229453365  WZ4       1148            0.0000000000
     23875      7959  TIP3      OH2           -11.0516203985      -12.4224557466       26.2998253365  WZ4       1149            0.0000000000
     23876      7959  TIP3      H1            -11.0898703985      -13.0688257466       27.0047853365  WZ4       1149            0.0000000000
     23877      7959  TIP3      H2            -11.3739703985      -12.8890157466       25.5286953365  WZ4       1149            0.0000000000
     23878      7960  TIP3      OH2           -18.6831203985      -12.8082457466       27.8928153365  WZ4       1150            0.0000000000
     23879      7960  TIP3      H1            -18.6419103985      -13.4339157466       28.6160553365  WZ4       1150            0.0000000000
     23880      7960  TIP3      H2            -17.9803503985      -12.1843857466       28.0748553365  WZ4       1150            0.0000000000
     23881      7961  TIP3      OH2            -7.3456003985       -9.4834157466       24.6013353365  WZ4       1151            0.0000000000
     23882      7961  TIP3      H1             -7.7863303985      -10.2038157466       25.0518953365  WZ4       1151            0.0000000000
     23883      7961  TIP3      H2             -7.3586303985       -8.7626957466       25.2311053365  WZ4       1151            0.0000000000
     23884      7962  TIP3      OH2           -17.7598103985       -8.3583557466       26.4277253365  WZ4       1152            0.0000000000
     23885      7962  TIP3      H1            -18.1292903985       -9.1603057466       26.0581553365  WZ4       1152            0.0000000000
     23886      7962  TIP3      H2            -16.8187003985       -8.5268657466       26.4740653365  WZ4       1152            0.0000000000
     23887      7963  TIP3      OH2           -21.1497603985      -14.6980957466       21.8206053365  WZ4       1153            0.0000000000
     23888      7963  TIP3      H1            -21.5974203985      -13.8522257466       21.8022553365  WZ4       1153            0.0000000000
     23889      7963  TIP3      H2            -21.7106403985      -15.2776757466       21.3051153365  WZ4       1153            0.0000000000
     23890      7964  TIP3      OH2           -20.4391503985      -12.5361357466       23.9464053365  WZ4       1154            0.0000000000
     23891      7964  TIP3      H1            -20.2258003985      -13.3059757466       24.4737053365  WZ4       1154            0.0000000000
     23892      7964  TIP3      H2            -19.7013903985      -12.4464657466       23.3431653365  WZ4       1154            0.0000000000
     23893      7965  TIP3      OH2           -10.2340503985       -4.3792457466       24.8133753365  WZ4       1155            0.0000000000
     23894      7965  TIP3      H1             -9.6144103985       -5.0557757466       24.5402953365  WZ4       1155            0.0000000000
     23895      7965  TIP3      H2            -10.4423103985       -4.5971657466       25.7218653365  WZ4       1155            0.0000000000
     23896      7966  TIP3      OH2           -12.6621803985       -9.9903157466       26.7059253365  WZ4       1156            0.0000000000
     23897      7966  TIP3      H1            -12.3583903985      -10.6761757466       26.1113353365  WZ4       1156            0.0000000000
     23898      7966  TIP3      H2            -11.9407803985       -9.8714457466       27.3237253365  WZ4       1156            0.0000000000
     23899      7967  TIP3      OH2            -3.9992003985      -18.3887857466       27.5665453365  WZ4       1157            0.0000000000
     23900      7967  TIP3      H1             -3.9499803985      -17.7786657466       28.3024553365  WZ4       1157            0.0000000000
     23901      7967  TIP3      H2             -3.5736903985      -17.9276957466       26.8436553365  WZ4       1157            0.0000000000
     23902      7968  TIP3      OH2            -9.5214803985      -15.5960757466       27.0334053365  WZ4       1158            0.0000000000
     23903      7968  TIP3      H1             -9.3788903985      -16.5423757466       27.0535653365  WZ4       1158            0.0000000000
     23904      7968  TIP3      H2             -9.6275803985      -15.3890957466       26.1048953365  WZ4       1158            0.0000000000
     23905      7969  TIP3      OH2           -16.3666503985      -17.4944357466       24.3058853365  WZ4       1159            0.0000000000
     23906      7969  TIP3      H1            -16.3235403985      -16.6345857466       23.8875153365  WZ4       1159            0.0000000000
     23907      7969  TIP3      H2            -16.8242403985      -18.0469657466       23.6722053365  WZ4       1159            0.0000000000
     23908      7970  TIP3      OH2            -8.6443803985      -17.3638757466       22.7067153365  WZ4       1160            0.0000000000
     23909      7970  TIP3      H1             -7.9979503985      -17.6925557466       23.3314753365  WZ4       1160            0.0000000000
     23910      7970  TIP3      H2             -8.1344403985      -16.8459757466       22.0838553365  WZ4       1160            0.0000000000
     23911      7971  TIP3      OH2           -19.7465003985      -15.0978557466       25.0680253365  WZ4       1161            0.0000000000
     23912      7971  TIP3      H1            -19.0928403985      -15.6476857466       25.5000353365  WZ4       1161            0.0000000000
     23913      7971  TIP3      H2            -19.7225703985      -15.3719557466       24.1512253365  WZ4       1161            0.0000000000
     23914      7972  TIP3      OH2           -14.5900503985      -13.5477257466       24.2831753365  WZ4       1162            0.0000000000
     23915      7972  TIP3      H1            -13.9739503985      -14.0741857466       24.7925753365  WZ4       1162            0.0000000000
     23916      7972  TIP3      H2            -15.1761703985      -14.1878557466       23.8795353365  WZ4       1162            0.0000000000
     23917      7973  TIP3      OH2            -3.6077403985      -16.9108657466       29.8025253365  WZ4       1163            0.0000000000
     23918      7973  TIP3      H1             -4.2962803985      -16.2527957466       29.7071853365  WZ4       1163            0.0000000000
     23919      7973  TIP3      H2             -3.5922803985      -17.1080757466       30.7390653365  WZ4       1163            0.0000000000
     23920      7974  TIP3      OH2           -10.1874803985       -9.0764857466       21.9238753365  WZ4       1165            0.0000000000
     23921      7974  TIP3      H1            -10.4829703985       -9.3992557466       21.0725653365  WZ4       1165            0.0000000000
     23922      7974  TIP3      H2            -10.5117003985       -8.1768157466       21.9651353365  WZ4       1165            0.0000000000
     23923      7975  TIP3      OH2           -14.9873203985      -10.9010257466       28.6673353365  WZ4       1166            0.0000000000
     23924      7975  TIP3      H1            -15.7274103985      -10.3028757466       28.7708553365  WZ4       1166            0.0000000000
     23925      7975  TIP3      H2            -14.2733703985      -10.3470657466       28.3516953365  WZ4       1166            0.0000000000
     23926      7976  TIP3      OH2            -6.8805403985      -18.0729457466       24.6873053365  WZ4       1167            0.0000000000
     23927      7976  TIP3      H1             -7.0957403985      -18.8386057466       25.2199053365  WZ4       1167            0.0000000000
     23928      7976  TIP3      H2             -6.2248003985      -17.6004857466       25.2001553365  WZ4       1167            0.0000000000
     23929      7977  TIP3      OH2           -17.9627303985      -16.6844157466       26.3321853365  WZ4       1168            0.0000000000
     23930      7977  TIP3      H1            -17.3491003985      -16.0516557466       26.7054253365  WZ4       1168            0.0000000000
     23931      7977  TIP3      H2            -17.4506603985      -17.1569157466       25.6758753365  WZ4       1168            0.0000000000
     23932      7978  TIP3      OH2           -16.5798903985       -8.9367257466       29.4544853365  WZ4       1169            0.0000000000
     23933      7978  TIP3      H1            -16.5851303985       -8.0573757466       29.0764153365  WZ4       1169            0.0000000000
     23934      7978  TIP3      H2            -17.4334803985       -9.0203157466       29.8794753365  WZ4       1169            0.0000000000
     23935      7979  TIP3      OH2           -20.4588003985       -9.2659357466       20.2364153365  WZ4       1170            0.0000000000
     23936      7979  TIP3      H1            -20.7307103985       -9.0368357466       19.3477053365  WZ4       1170            0.0000000000
     23937      7979  TIP3      H2            -20.4132303985       -8.4280557466       20.6969453365  WZ4       1170            0.0000000000
     23938      7980  TIP3      OH2            -6.8338303985       -7.6443457466       26.9492653365  WZ4       1171            0.0000000000
     23939      7980  TIP3      H1             -7.7754603985       -7.5859557466       27.1109553365  WZ4       1171            0.0000000000
     23940      7980  TIP3      H2             -6.5572203985       -6.7382957466       26.8122353365  WZ4       1171            0.0000000000
     23941      7981  TIP3      OH2            -6.5331303985      -19.3578157466       28.3666553365  WZ4       1172            0.0000000000
     23942      7981  TIP3      H1             -7.2692103985      -18.7471057466       28.3287853365  WZ4       1172            0.0000000000
     23943      7981  TIP3      H2             -5.8497303985      -18.9429157466       27.8402953365  WZ4       1172            0.0000000000
     23944      7982  TIP3      OH2           -13.5299903985      -21.2710857466       25.8324553365  WZ4       1173            0.0000000000
     23945      7982  TIP3      H1            -13.6475703985      -22.2194857466       25.7782853365  WZ4       1173            0.0000000000
     23946      7982  TIP3      H2            -14.3849803985      -20.9384757466       26.1055653365  WZ4       1173            0.0000000000
     23947      7983  TIP3      OH2            -8.5817103985       -5.8629957466       23.5744253365  WZ4       1174            0.0000000000
     23948      7983  TIP3      H1             -8.1564803985       -6.5702057466       23.0893853365  WZ4       1174            0.0000000000
     23949      7983  TIP3      H2             -8.2647103985       -5.0617257466       23.1576453365  WZ4       1174            0.0000000000
     23950      7984  TIP3      OH2            -7.4220603985       -7.9621457466       22.0830853365  WZ4       1175            0.0000000000
     23951      7984  TIP3      H1             -7.6795803985       -8.6521357466       21.4716753365  WZ4       1175            0.0000000000
     23952      7984  TIP3      H2             -7.3509803985       -8.4050257466       22.9286753365  WZ4       1175            0.0000000000
     23953      7985  TIP3      OH2            -5.7360403985       -9.3954757466       30.5604353365  WZ4       1176            0.0000000000
     23954      7985  TIP3      H1             -5.5964103985       -9.9872257466       29.8211353365  WZ4       1176            0.0000000000
     23955      7985  TIP3      H2             -5.5687603985       -8.5228857466       30.2043153365  WZ4       1176            0.0000000000
     23956      7986  TIP3      OH2           -11.2635003985      -12.4335257466       20.3330353365  WZ4       1177            0.0000000000
     23957      7986  TIP3      H1            -11.9749503985      -11.8985557466       19.9810853365  WZ4       1177            0.0000000000
     23958      7986  TIP3      H2            -10.5725403985      -12.3783157466       19.6729253365  WZ4       1177            0.0000000000
     23959      7987  TIP3      OH2           -11.2095803985      -13.9760957466       17.3715353365  WZ4       1178            0.0000000000
     23960      7987  TIP3      H1            -10.5085903985      -13.9534057466       18.0229353365  WZ4       1178            0.0000000000
     23961      7987  TIP3      H2            -10.9072903985      -14.6041257466       16.7154653365  WZ4       1178            0.0000000000
     23962      7988  TIP3      OH2            -3.8941103985      -13.0556757466       28.6264753365  WZ4       1179            0.0000000000
     23963      7988  TIP3      H1             -4.5467003985      -12.3611157466       28.7155653365  WZ4       1179            0.0000000000
     23964      7988  TIP3      H2             -3.4290803985      -12.8455857466       27.8166353365  WZ4       1179            0.0000000000
     23965      7989  TIP3      OH2            -7.8577303985      -12.2241957466       21.2846253365  WZ4       1180            0.0000000000
     23966      7989  TIP3      H1             -8.5896303985      -11.9958257466       21.8576853365  WZ4       1180            0.0000000000
     23967      7989  TIP3      H2             -7.4105103985      -12.9379257466       21.7393753365  WZ4       1180            0.0000000000
     23968      7990  TIP3      OH2            -7.9603803985      -14.0499357466       30.3523253365  WZ4       1181            0.0000000000
     23969      7990  TIP3      H1             -7.8804703985      -13.2864957466       30.9241753365  WZ4       1181            0.0000000000
     23970      7990  TIP3      H2             -8.5616103985      -13.7706957466       29.6618353365  WZ4       1181            0.0000000000
     23971      7991  TIP3      OH2           -16.2123603985      -11.5935757466       23.1671253365  WZ4       1182            0.0000000000
     23972      7991  TIP3      H1            -16.5428403985      -11.9642357466       22.3488253365  WZ4       1182            0.0000000000
     23973      7991  TIP3      H2            -15.6239503985      -12.2641757466       23.5139553365  WZ4       1182            0.0000000000
     23974      7992  TIP3      OH2           -14.8456103985       -8.1655157466       25.8483453365  WZ4       1183            0.0000000000
     23975      7992  TIP3      H1            -14.9404803985       -8.7442057466       25.0918053365  WZ4       1183            0.0000000000
     23976      7992  TIP3      H2            -14.1162503985       -8.5369457466       26.3446253365  WZ4       1183            0.0000000000
     23977      7993  TIP3      OH2           -15.8458103985      -12.8250157466       26.8006253365  WZ4       1184            0.0000000000
     23978      7993  TIP3      H1            -15.2805603985      -12.7035957466       26.0377453365  WZ4       1184            0.0000000000
     23979      7993  TIP3      H2            -15.5269203985      -12.1875157466       27.4394753365  WZ4       1184            0.0000000000
     23980      7994  TIP3      OH2            -9.5365903985       -7.3218257466       27.5346753365  WZ4       1185            0.0000000000
     23981      7994  TIP3      H1             -9.7769303985       -6.6595157466       28.1825953365  WZ4       1185            0.0000000000
     23982      7994  TIP3      H2             -9.7347703985       -8.1563057466       27.9596353365  WZ4       1185            0.0000000000
     23983      7995  TIP3      OH2           -14.9657403985       -8.4257457466       31.5178153365  WZ4       1186            0.0000000000
     23984      7995  TIP3      H1            -15.2769903985       -7.6434257466       31.9731353365  WZ4       1186            0.0000000000
     23985      7995  TIP3      H2            -15.6157203985       -8.5788357466       30.8320153365  WZ4       1186            0.0000000000
     23986      7996  TIP3      OH2            -8.9867803985      -13.0619057466       18.9697453365  WZ4       1187            0.0000000000
     23987      7996  TIP3      H1             -8.4072303985      -12.9118757466       19.7166353365  WZ4       1187            0.0000000000
     23988      7996  TIP3      H2             -8.5727803985      -12.5911657466       18.2463853365  WZ4       1187            0.0000000000
     23989      7997  TIP3      OH2           -11.2602903985       -6.3250557466       22.4050553365  WZ4       1189            0.0000000000
     23990      7997  TIP3      H1            -10.7865303985       -6.0294257466       23.1824753365  WZ4       1189            0.0000000000
     23991      7997  TIP3      H2            -11.8233603985       -5.5868957466       22.1720153365  WZ4       1189            0.0000000000
     23992      7998  TIP3      OH2           -16.7261503985       -6.3542457466       32.2811953365  WZ4       1190            0.0000000000
     23993      7998  TIP3      H1            -16.7186203985       -6.4902757466       31.3337453365  WZ4       1190            0.0000000000
     23994      7998  TIP3      H2            -17.6421103985       -6.4714357466       32.5331953365  WZ4       1190            0.0000000000
     23995      7999  TIP3      OH2            -5.2879403985      -21.3118657466       18.7827153365  WZ4       1191            0.0000000000
     23996      7999  TIP3      H1             -6.1878703985      -21.1729657466       19.0777753365  WZ4       1191            0.0000000000
     23997      7999  TIP3      H2             -5.0361003985      -20.4804057466       18.3808853365  WZ4       1191            0.0000000000
     23998      8000  TIP3      OH2           -17.2220903985      -12.5241457466       20.7564053365  WZ4       1192            0.0000000000
     23999      8000  TIP3      H1            -17.5139603985      -11.7559757466       20.2655353365  WZ4       1192            0.0000000000
     24000      8000  TIP3      H2            -17.8965703985      -13.1835257466       20.5935453365  WZ4       1192            0.0000000000
     24001      8001  TIP3      OH2            -4.0988003985       -6.9456257466       17.1591053365  WZ4       1193            0.0000000000
     24002      8001  TIP3      H1             -4.0254503985       -6.0066057466       17.3296353365  WZ4       1193            0.0000000000
     24003      8001  TIP3      H2             -3.1932903985       -7.2507657466       17.1028353365  WZ4       1193            0.0000000000
     24004      8002  TIP3      OH2           -21.3788103985       -7.3808457466       26.4554053365  WZ4       1195            0.0000000000
     24005      8002  TIP3      H1            -20.4327503985       -7.5251457466       26.4363553365  WZ4       1195            0.0000000000
     24006      8002  TIP3      H2            -21.4911803985       -6.5965657466       26.9925253365  WZ4       1195            0.0000000000
     24007      8003  TIP3      OH2            -3.1809603985       -6.7148757466       32.1377753365  WZ4       1196            0.0000000000
     24008      8003  TIP3      H1             -3.2302803985       -7.6700657466       32.1005353365  WZ4       1196            0.0000000000
     24009      8003  TIP3      H2             -4.0077303985       -6.4473457466       32.5391553365  WZ4       1196            0.0000000000
     24010      8004  TIP3      OH2           -12.2025603985       -7.1409557466       31.0139153365  WZ4       1197            0.0000000000
     24011      8004  TIP3      H1            -12.1151003985       -6.3144957466       31.4888253365  WZ4       1197            0.0000000000
     24012      8004  TIP3      H2            -13.0660503985       -7.4705757466       31.2628453365  WZ4       1197            0.0000000000
     24013      8005  TIP3      OH2           -11.7879803985       -3.3685857466       20.8199753365  WZ4       1198            0.0000000000
     24014      8005  TIP3      H1            -11.8633803985       -3.4898657466       19.8734953365  WZ4       1198            0.0000000000
     24015      8005  TIP3      H2            -11.7551103985       -2.4193157466       20.9384353365  WZ4       1198            0.0000000000
     24016      8006  TIP3      OH2           -18.1346003985       -4.5798857466       22.6008753365  WZ4       1199            0.0000000000
     24017      8006  TIP3      H1            -17.9825603985       -4.9278457466       23.4795253365  WZ4       1199            0.0000000000
     24018      8006  TIP3      H2            -18.9855603985       -4.9361557466       22.3455953365  WZ4       1199            0.0000000000
     24019      8007  TIP3      OH2            -8.6863803985       -4.2145657466       17.8222153365  WZ4       1200            0.0000000000
     24020      8007  TIP3      H1             -8.3115403985       -4.9589557466       17.3514753365  WZ4       1200            0.0000000000
     24021      8007  TIP3      H2             -8.6820103985       -4.4845057466       18.7405453365  WZ4       1200            0.0000000000
     24022      8008  TIP3      OH2            -9.0175703985       -4.2888557466       20.5714353365  WZ4       1201            0.0000000000
     24023      8008  TIP3      H1             -9.9525903985       -4.1886657466       20.7501353365  WZ4       1201            0.0000000000
     24024      8008  TIP3      H2             -8.7373803985       -4.9982557466       21.1497553365  WZ4       1201            0.0000000000
     24025      8009  TIP3      OH2            -6.0289803985      -15.2216257466       32.6179953365  WZ4       1202            0.0000000000
     24026      8009  TIP3      H1             -6.4363003985      -14.7410657466       31.8973253365  WZ4       1202            0.0000000000
     24027      8009  TIP3      H2             -5.9884103985      -16.1270257466       32.3100753365  WZ4       1202            0.0000000000
     24028      8010  TIP3      OH2           -16.2612303985      -20.3676357466       26.6100853365  WZ4       1204            0.0000000000
     24029      8010  TIP3      H1            -17.1228603985      -20.4548157466       26.2023753365  WZ4       1204            0.0000000000
     24030      8010  TIP3      H2            -16.2836603985      -19.5116257466       27.0378453365  WZ4       1204            0.0000000000
     24031      8011  TIP3      OH2            -8.2719603985      -16.8900757466       30.8382353365  WZ4       1206            0.0000000000
     24032      8011  TIP3      H1             -8.7860103985      -17.0158557466       31.6358353365  WZ4       1206            0.0000000000
     24033      8011  TIP3      H2             -8.4274903985      -15.9777657466       30.5938553365  WZ4       1206            0.0000000000
     24034      8012  TIP3      OH2            -7.5094703985      -12.0290757466       16.5995353365  WZ4       1207            0.0000000000
     24035      8012  TIP3      H1             -7.4673903985      -12.2516857466       15.6695353365  WZ4       1207            0.0000000000
     24036      8012  TIP3      H2             -6.6602603985      -11.6303657466       16.7895253365  WZ4       1207            0.0000000000
     24037      8013  TIP3      OH2           -11.9367203985      -18.1532557466       17.2698653365  WZ4       1208            0.0000000000
     24038      8013  TIP3      H1            -12.1902403985      -18.1340957466       18.1926753365  WZ4       1208            0.0000000000
     24039      8013  TIP3      H2            -12.1935103985      -19.0247157466       16.9684853365  WZ4       1208            0.0000000000
     24040      8014  TIP3      OH2           -16.1702203985      -15.4021857466       27.7051053365  WZ4       1209            0.0000000000
     24041      8014  TIP3      H1            -16.8120103985      -15.4424557466       28.4141153365  WZ4       1209            0.0000000000
     24042      8014  TIP3      H2            -16.1330203985      -14.4757157466       27.4674053365  WZ4       1209            0.0000000000
     24043      8015  TIP3      OH2           -16.1733103985      -15.1811757466       22.6171053365  WZ4       1210            0.0000000000
     24044      8015  TIP3      H1            -17.0660203985      -15.5215657466       22.5584853365  WZ4       1210            0.0000000000
     24045      8015  TIP3      H2            -15.7226503985      -15.5580857466       21.8614253365  WZ4       1210            0.0000000000
     24046      8016  TIP3      OH2           -10.6377603985      -14.7651457466       21.4341853365  WZ4       1211            0.0000000000
     24047      8016  TIP3      H1            -11.0467303985      -13.9502857466       21.1426653365  WZ4       1211            0.0000000000
     24048      8016  TIP3      H2             -9.9171403985      -14.9051357466       20.8198953365  WZ4       1211            0.0000000000
     24049      8017  TIP3      OH2            -9.6329903985      -15.3191057466       24.2481553365  WZ4       1213            0.0000000000
     24050      8017  TIP3      H1             -9.8285403985      -14.7134257466       23.5332153365  WZ4       1213            0.0000000000
     24051      8017  TIP3      H2             -9.4517303985      -16.1525857466       23.8137853365  WZ4       1213            0.0000000000
     24052      8018  TIP3      OH2           -15.0544303985      -17.7076057466       16.3709053365  WZ4       1215            0.0000000000
     24053      8018  TIP3      H1            -15.4853603985      -18.1525957466       17.1006453365  WZ4       1215            0.0000000000
     24054      8018  TIP3      H2            -15.7725603985      -17.3359757466       15.8586553365  WZ4       1215            0.0000000000
     24055      8019  TIP3      OH2           -21.8120903985      -17.9656557466       23.4227753365  WZ4       1216            0.0000000000
     24056      8019  TIP3      H1            -21.1813203985      -17.9944457466       24.1421653365  WZ4       1216            0.0000000000
     24057      8019  TIP3      H2            -21.3626603985      -18.3907857466       22.6923653365  WZ4       1216            0.0000000000
     24058      8020  TIP3      OH2           -20.5378803985      -17.2194557466       18.8468153365  WZ4       1217            0.0000000000
     24059      8020  TIP3      H1            -20.0637103985      -16.6284657466       18.2619053365  WZ4       1217            0.0000000000
     24060      8020  TIP3      H2            -21.2552403985      -16.6891657466       19.1938253365  WZ4       1217            0.0000000000
     24061      8021  TIP3      OH2           -10.3690703985      -13.6809757466       28.9193953365  WZ4       1218            0.0000000000
     24062      8021  TIP3      H1            -10.0455903985      -14.3120057466       28.2764453365  WZ4       1218            0.0000000000
     24063      8021  TIP3      H2            -10.8091403985      -14.2157557466       29.5801353365  WZ4       1218            0.0000000000
     24064      8022  TIP3      OH2           -13.5917803985      -17.7534257466       23.7035153365  WZ4       1219            0.0000000000
     24065      8022  TIP3      H1            -14.5026703985      -17.6967457466       23.9921153365  WZ4       1219            0.0000000000
     24066      8022  TIP3      H2            -13.0864903985      -17.8138757466       24.5142353365  WZ4       1219            0.0000000000
     24067      8023  TIP3      OH2           -18.7634403985      -16.1247957466       22.5302753365  WZ4       1220            0.0000000000
     24068      8023  TIP3      H1            -19.6526403985      -16.0252457466       22.1902353365  WZ4       1220            0.0000000000
     24069      8023  TIP3      H2            -18.4669503985      -16.9664957466       22.1840653365  WZ4       1220            0.0000000000
     24070      8024  TIP3      OH2           -15.1102603985      -16.1245357466       20.1867353365  WZ4       1221            0.0000000000
     24071      8024  TIP3      H1            -14.1787103985      -15.9955357466       20.3650453365  WZ4       1221            0.0000000000
     24072      8024  TIP3      H2            -15.3252303985      -15.4551057466       19.5372053365  WZ4       1221            0.0000000000
     24073      8025  TIP3      OH2            -9.1865903985      -18.5187957466       26.9676953365  WZ4       1222            0.0000000000
     24074      8025  TIP3      H1             -9.8634303985      -18.3874857466       27.6316653365  WZ4       1222            0.0000000000
     24075      8025  TIP3      H2             -9.6721003985      -18.6738457466       26.1574653365  WZ4       1222            0.0000000000
     24076      8026  TIP3      OH2           -16.4362403985      -14.9303157466       17.7533453365  WZ4       1223            0.0000000000
     24077      8026  TIP3      H1            -16.9787303985      -15.3099357466       17.0621053365  WZ4       1223            0.0000000000
     24078      8026  TIP3      H2            -15.6027503985      -14.7358457466       17.3247553365  WZ4       1223            0.0000000000
     24079      8027  TIP3      OH2            -5.8990803985       -2.8472557466       33.2444553365  WZ4       1224            0.0000000000
     24080      8027  TIP3      H1             -5.6992103985       -2.4230657466       32.4099853365  WZ4       1224            0.0000000000
     24081      8027  TIP3      H2             -5.2437103985       -2.5034357466       33.8514953365  WZ4       1224            0.0000000000
     24082      8028  TIP3      OH2           -12.2718103985      -14.9661257466       25.5904753365  WZ4       1226            0.0000000000
     24083      8028  TIP3      H1            -11.7074703985      -15.5124657466       25.0434353365  WZ4       1226            0.0000000000
     24084      8028  TIP3      H2            -12.4194703985      -15.4879357466       26.3792353365  WZ4       1226            0.0000000000
     24085      8029  TIP3      OH2           -17.2698403985      -18.8295157466       22.0089553365  WZ4       1227            0.0000000000
     24086      8029  TIP3      H1            -17.5868903985      -19.7319857466       21.9734953365  WZ4       1227            0.0000000000
     24087      8029  TIP3      H2            -16.4884303985      -18.8277757466       21.4561153365  WZ4       1227            0.0000000000
     24088      8030  TIP3      OH2           -13.6452203985      -16.5775157466       28.0045153365  WZ4       1228            0.0000000000
     24089      8030  TIP3      H1            -14.4806903985      -16.1235657466       28.1147553365  WZ4       1228            0.0000000000
     24090      8030  TIP3      H2            -13.1211603985      -16.3016657466       28.7565053365  WZ4       1228            0.0000000000
     24091      8031  TIP3      OH2           -13.1009603985      -10.3647457466       19.6891553365  WZ4       1229            0.0000000000
     24092      8031  TIP3      H1            -13.8458603985      -10.8722157466       19.3669453365  WZ4       1229            0.0000000000
     24093      8031  TIP3      H2            -13.2352403985      -10.3159457466       20.6356353365  WZ4       1229            0.0000000000
     24094      8032  TIP3      OH2            -5.9510703985      -11.2319257466       28.4759153365  WZ4       1230            0.0000000000
     24095      8032  TIP3      H1             -5.3091903985      -10.7752957466       27.9321353365  WZ4       1230            0.0000000000
     24096      8032  TIP3      H2             -6.7813803985      -11.1186857466       28.0133253365  WZ4       1230            0.0000000000
     24097      8033  TIP3      OH2            -9.2032803985      -17.5507557466       17.8884153365  WZ4       1231            0.0000000000
     24098      8033  TIP3      H1            -10.1418603985      -17.4391957466       17.7372953365  WZ4       1231            0.0000000000
     24099      8033  TIP3      H2             -8.9060703985      -16.6940657466       18.1949853365  WZ4       1231            0.0000000000
     24100      8034  TIP3      OH2           -11.5817503985      -10.1804157466       30.9260653365  WZ4       1232            0.0000000000
     24101      8034  TIP3      H1            -11.9271403985      -10.5621757466       31.7330253365  WZ4       1232            0.0000000000
     24102      8034  TIP3      H2            -11.7817403985       -9.2470557466       30.9973553365  WZ4       1232            0.0000000000
     24103      8035  TIP3      OH2            -8.4849303985      -15.6834857466       19.5491553365  WZ4       1233            0.0000000000
     24104      8035  TIP3      H1             -7.5930303985      -15.8209857466       19.8682753365  WZ4       1233            0.0000000000
     24105      8035  TIP3      H2             -8.4285703985      -14.8928757466       19.0125053365  WZ4       1233            0.0000000000
     24106      8036  TIP3      OH2           -17.9761303985      -11.0697457466       25.4589453365  WZ4       1234            0.0000000000
     24107      8036  TIP3      H1            -17.2314103985      -11.0721757466       24.8575953365  WZ4       1234            0.0000000000
     24108      8036  TIP3      H2            -17.8984703985      -11.8933657466       25.9404553365  WZ4       1234            0.0000000000
     24109      8037  TIP3      OH2           -10.9755503985       -8.9063157466       18.7146153365  WZ4       1235            0.0000000000
     24110      8037  TIP3      H1            -11.2707103985       -8.0795257466       19.0960953365  WZ4       1235            0.0000000000
     24111      8037  TIP3      H2            -11.6785503985       -9.5256257466       18.9107553365  WZ4       1235            0.0000000000
     24112      8038  TIP3      OH2            -9.3313903985       -7.7188657466       30.8765653365  WZ4       1238            0.0000000000
     24113      8038  TIP3      H1            -10.2319603985       -7.5356057466       30.6089553365  WZ4       1238            0.0000000000
     24114      8038  TIP3      H2             -9.2972803985       -7.4599357466       31.7974453365  WZ4       1238            0.0000000000
     24115      8039  TIP3      OH2            -3.6000603985      -15.4740757466       19.2438253365  WZ4       1239            0.0000000000
     24116      8039  TIP3      H1             -4.1544303985      -15.8702757466       18.5715753365  WZ4       1239            0.0000000000
     24117      8039  TIP3      H2             -3.4997003985      -14.5635557466       18.9661553365  WZ4       1239            0.0000000000
     24118      8040  TIP3      OH2            -3.6368603985       -9.6739057466       32.0809753365  WZ4       1240            0.0000000000
     24119      8040  TIP3      H1             -4.4880103985       -9.4355257466       31.7136153365  WZ4       1240            0.0000000000
     24120      8040  TIP3      H2             -3.0465203985       -9.6905857466       31.3276853365  WZ4       1240            0.0000000000
     24121      8041  TIP3      OH2            -5.3048903985       -6.6880357466       19.7090353365  WZ4       1241            0.0000000000
     24122      8041  TIP3      H1             -5.6777803985       -7.5136557466       20.0180953365  WZ4       1241            0.0000000000
     24123      8041  TIP3      H2             -5.0275403985       -6.8710957466       18.8113753365  WZ4       1241            0.0000000000
     24124      8042  TIP3      OH2            -8.1445003985      -11.8800857466       26.7302253365  WZ4       1242            0.0000000000
     24125      8042  TIP3      H1             -9.0728103985      -12.1118957466       26.7031553365  WZ4       1242            0.0000000000
     24126      8042  TIP3      H2             -7.6933903985      -12.6571057466       26.4001053365  WZ4       1242            0.0000000000
     24127      8043  TIP3      OH2           -15.6011903985       -7.5519257466       22.8630953365  WZ4       1243            0.0000000000
     24128      8043  TIP3      H1            -15.0739703985       -6.7784857466       22.6629753365  WZ4       1243            0.0000000000
     24129      8043  TIP3      H2            -16.4813403985       -7.3270057466       22.5614953365  WZ4       1243            0.0000000000
     24130      8044  TIP3      OH2           -19.8464203985      -12.6895157466       17.4503353365  WZ4       1244            0.0000000000
     24131      8044  TIP3      H1            -19.2304303985      -12.0627957466       17.8298153365  WZ4       1244            0.0000000000
     24132      8044  TIP3      H2            -20.7081603985      -12.3735357466       17.7219853365  WZ4       1244            0.0000000000
     24133      8045  TIP3      OH2           -14.1739603985       -9.8889357466       22.4395253365  WZ4       1245            0.0000000000
     24134      8045  TIP3      H1            -14.4149603985       -8.9634957466       22.4810553365  WZ4       1245            0.0000000000
     24135      8045  TIP3      H2            -14.9146003985      -10.3478057466       22.8359153365  WZ4       1245            0.0000000000
     24136      8046  TIP3      OH2           -13.6593003985       -5.7395757466       28.7546353365  WZ4       1246            0.0000000000
     24137      8046  TIP3      H1            -13.2968303985       -4.8850157466       28.5210753365  WZ4       1246            0.0000000000
     24138      8046  TIP3      H2            -13.1277803985       -6.0314157466       29.4952653365  WZ4       1246            0.0000000000
     24139      8047  TIP3      OH2           -15.4908803985       -4.8671757466       21.9847453365  WZ4       1247            0.0000000000
     24140      8047  TIP3      H1            -16.4408303985       -4.7614357466       22.0360753365  WZ4       1247            0.0000000000
     24141      8047  TIP3      H2            -15.1390703985       -4.0464357466       22.3294953365  WZ4       1247            0.0000000000
     24142      8048  TIP3      OH2           -10.1152203985       -9.6405057466       28.4551953365  WZ4       1248            0.0000000000
     24143      8048  TIP3      H1            -10.5410903985       -9.8683357466       29.2815953365  WZ4       1248            0.0000000000
     24144      8048  TIP3      H2             -9.5346403985      -10.3793257466       28.2727253365  WZ4       1248            0.0000000000
     24145      8049  TIP3      OH2            -7.9123303985       -8.7114557466       17.5290953365  WZ4       1249            0.0000000000
     24146      8049  TIP3      H1             -7.5590203985       -9.0914757466       18.3334453365  WZ4       1249            0.0000000000
     24147      8049  TIP3      H2             -8.8609803985       -8.8049757466       17.6160253365  WZ4       1249            0.0000000000
     24148      8050  TIP3      OH2            -7.4568003985       -5.0885557466       30.9246753365  WZ4       1250            0.0000000000
     24149      8050  TIP3      H1             -8.0584803985       -5.6442657466       30.4293053365  WZ4       1250            0.0000000000
     24150      8050  TIP3      H2             -7.1754303985       -4.4215757466       30.2984153365  WZ4       1250            0.0000000000
     24151      8051  TIP3      OH2            -3.4088903985       -4.2322057466       17.7301153365  WZ4       1251            0.0000000000
     24152      8051  TIP3      H1             -2.6651003985       -3.6461557466       17.5902753365  WZ4       1251            0.0000000000
     24153      8051  TIP3      H2             -4.1030803985       -3.6636257466       18.0633553365  WZ4       1251            0.0000000000
     24154      8052  TIP3      OH2            -7.0464003985      -10.0392557466       19.7558853365  WZ4       1253            0.0000000000
     24155      8052  TIP3      H1             -7.3236403985      -10.7673257466       20.3119953365  WZ4       1253            0.0000000000
     24156      8052  TIP3      H2             -6.1191003985       -9.9200557466       19.9611453365  WZ4       1253            0.0000000000
     24157      8053  TIP3      OH2           -19.6830103985       -6.0513457466       28.7668753365  WZ4       1254            0.0000000000
     24158      8053  TIP3      H1            -19.4659803985       -6.9831057466       28.7358453365  WZ4       1254            0.0000000000
     24159      8053  TIP3      H2            -19.4366603985       -5.7768457466       29.6501553365  WZ4       1254            0.0000000000
     24160      8054  TIP3      OH2           -13.8215503985       -7.5998457466       15.9760953365  WZ4       1255            0.0000000000
     24161      8054  TIP3      H1            -13.5825703985       -8.3480357466       15.4289853365  WZ4       1255            0.0000000000
     24162      8054  TIP3      H2            -14.0904203985       -7.9876757466       16.8088753365  WZ4       1255            0.0000000000
     24163      8055  TIP3      OH2           -14.8844903985       -8.0294657466       18.4323553365  WZ4       1256            0.0000000000
     24164      8055  TIP3      H1            -14.7376903985       -8.5494857466       19.2224453365  WZ4       1256            0.0000000000
     24165      8055  TIP3      H2            -14.8873203985       -7.1227057466       18.7389453365  WZ4       1256            0.0000000000
     24166      8056  TIP3      OH2           -18.4313803985      -10.7771357466       18.9428953365  WZ4       1257            0.0000000000
     24167      8056  TIP3      H1            -19.1174503985      -10.4248857466       19.5098653365  WZ4       1257            0.0000000000
     24168      8056  TIP3      H2            -17.9085903985      -10.0141757466       18.6963253365  WZ4       1257            0.0000000000
     24169      8057  TIP3      OH2           -10.5998703985      -18.1147557466       29.2217953365  WZ4       1258            0.0000000000
     24170      8057  TIP3      H1             -9.9010803985      -18.0408857466       29.8717653365  WZ4       1258            0.0000000000
     24171      8057  TIP3      H2            -10.9807303985      -18.9792557466       29.3760853365  WZ4       1258            0.0000000000
     24172      8058  TIP3      OH2            -9.8153803985      -18.4625857466       20.3190253365  WZ4       1259            0.0000000000
     24173      8058  TIP3      H1             -9.5955503985      -17.9910457466       19.5155653365  WZ4       1259            0.0000000000
     24174      8058  TIP3      H2             -9.2569803985      -18.0683257466       20.9890853365  WZ4       1259            0.0000000000
     24175      8059  TIP3      OH2           -12.1467703985       -6.3321057466       19.1817753365  WZ4       1260            0.0000000000
     24176      8059  TIP3      H1            -12.9631603985       -5.8351357466       19.2342053365  WZ4       1260            0.0000000000
     24177      8059  TIP3      H2            -11.6171403985       -5.8567557466       18.5416553365  WZ4       1260            0.0000000000
     24178      8060  TIP3      OH2           -12.6153903985      -16.7347057466       21.1538653365  WZ4       1261            0.0000000000
     24179      8060  TIP3      H1            -11.8031303985      -16.2303857466       21.2000353365  WZ4       1261            0.0000000000
     24180      8060  TIP3      H2            -12.8600903985      -16.8797357466       22.0678253365  WZ4       1261            0.0000000000
     24181      8061  TIP3      OH2           -12.0797503985      -15.7484357466       30.3385253365  WZ4       1262            0.0000000000
     24182      8061  TIP3      H1            -11.9607203985      -15.1748957466       31.0955653365  WZ4       1262            0.0000000000
     24183      8061  TIP3      H2            -11.4242903985      -16.4364957466       30.4533053365  WZ4       1262            0.0000000000
     24184      8062  TIP3      OH2           -11.7317203985      -19.6534057466       22.0919753365  WZ4       1263            0.0000000000
     24185      8062  TIP3      H1            -12.0783703985      -19.0363457466       22.7364053365  WZ4       1263            0.0000000000
     24186      8062  TIP3      H2            -11.0730303985      -19.1528357466       21.6105253365  WZ4       1263            0.0000000000
     24187      8063  TIP3      OH2           -14.8084603985       -5.2883857466       19.1634653365  WZ4       1264            0.0000000000
     24188      8063  TIP3      H1            -14.6475903985       -4.4886357466       18.6627253365  WZ4       1264            0.0000000000
     24189      8063  TIP3      H2            -15.0056803985       -4.9817857466       20.0485253365  WZ4       1264            0.0000000000
     24190      8064  TIP3      OH2           -16.0740203985      -18.5904657466       18.7792253365  WZ4       1265            0.0000000000
     24191      8064  TIP3      H1            -16.1575403985      -17.7021557466       19.1258653365  WZ4       1265            0.0000000000
     24192      8064  TIP3      H2            -15.1839903985      -18.8557957466       19.0109053365  WZ4       1265            0.0000000000
     24193      8065  TIP3      OH2            -5.8751703985      -17.8414057466       31.1734953365  WZ4       1266            0.0000000000
     24194      8065  TIP3      H1             -6.7915903985      -17.5792357466       31.0858653365  WZ4       1266            0.0000000000
     24195      8065  TIP3      H2             -5.5396703985      -17.8445057466       30.2770253365  WZ4       1266            0.0000000000
     24196      8066  TIP3      OH2            -7.2730703985      -14.0913057466       25.2692253365  WZ4       1267            0.0000000000
     24197      8066  TIP3      H1             -8.0706303985      -14.5062857466       24.9407253365  WZ4       1267            0.0000000000
     24198      8066  TIP3      H2             -6.8279603985      -14.7819357466       25.7602753365  WZ4       1267            0.0000000000
     24199      8067  TIP3      OH2           -17.8154903985       -8.1632457466       17.8396753365  WZ4       1268            0.0000000000
     24200      8067  TIP3      H1            -17.2233403985       -7.4637657466       18.1159153365  WZ4       1268            0.0000000000
     24201      8067  TIP3      H2            -17.3561903985       -8.5962957466       17.1201353365  WZ4       1268            0.0000000000
     24202      8068  TIP3      OH2           -19.4995703985      -15.4989457466       16.9556153365  WZ4       1269            0.0000000000
     24203      8068  TIP3      H1            -19.5443103985      -14.5596357466       17.1343153365  WZ4       1269            0.0000000000
     24204      8068  TIP3      H2            -20.3872503985      -15.7344557466       16.6858253365  WZ4       1269            0.0000000000
     24205      8069  TIP3      OH2            -6.1866103985       -4.8350557466       26.8915753365  WZ4       1270            0.0000000000
     24206      8069  TIP3      H1             -6.3421803985       -4.1566157466       26.2345053365  WZ4       1270            0.0000000000
     24207      8069  TIP3      H2             -5.2539703985       -4.7631257466       27.0946353365  WZ4       1270            0.0000000000
     24208      8070  TIP3      OH2           -18.6913703985      -20.7172857466       25.6287153365  WZ4       1271            0.0000000000
     24209      8070  TIP3      H1            -18.9203903985      -20.6580357466       24.7012153365  WZ4       1271            0.0000000000
     24210      8070  TIP3      H2            -19.1340303985      -21.5087357466       25.9351253365  WZ4       1271            0.0000000000
     24211      8071  TIP3      OH2           -19.7610403985       -6.7765757466       21.7892953365  WZ4       1272            0.0000000000
     24212      8071  TIP3      H1            -20.5931803985       -6.3043057466       21.8164353365  WZ4       1272            0.0000000000
     24213      8071  TIP3      H2            -19.2152103985       -6.2668157466       21.1906053365  WZ4       1272            0.0000000000
     24214      8072  TIP3      OH2           -11.7833703985       -5.7367057466       16.1146953365  WZ4       1275            0.0000000000
     24215      8072  TIP3      H1            -12.4272703985       -6.3678457466       16.4360653365  WZ4       1275            0.0000000000
     24216      8072  TIP3      H2            -11.0215403985       -6.2679057466       15.8830453365  WZ4       1275            0.0000000000
     24217      8073  TIP3      OH2            -9.2984603985       -6.8646557466       33.4686653365  WZ4       1276            0.0000000000
     24218      8073  TIP3      H1             -9.6495103985       -7.7213557466       33.7117053365  WZ4       1276            0.0000000000
     24219      8073  TIP3      H2             -8.5721403985       -6.7219857466       34.0755653365  WZ4       1276            0.0000000000
     24220      8074  TIP3      OH2            -7.1790803985       -5.9197157466       16.3484953365  WZ4       1277            0.0000000000
     24221      8074  TIP3      H1             -6.8960403985       -6.7141957466       16.8011853365  WZ4       1277            0.0000000000
     24222      8074  TIP3      H2             -6.4392903985       -5.6866157466       15.7876053365  WZ4       1277            0.0000000000
     24223      8075  TIP3      OH2           -16.2243503985      -10.0102257466       16.2059853365  WZ4       1279            0.0000000000
     24224      8075  TIP3      H1            -16.1599403985      -10.8042657466       16.7366253365  WZ4       1279            0.0000000000
     24225      8075  TIP3      H2            -15.5714303985      -10.1289457466       15.5161853365  WZ4       1279            0.0000000000
     24226      8076  TIP3      OH2           -10.8720103985       -8.9630557466       15.9417853365  WZ4       1281            0.0000000000
     24227      8076  TIP3      H1            -11.1406003985       -8.7828457466       16.8426753365  WZ4       1281            0.0000000000
     24228      8076  TIP3      H2            -11.0784503985       -9.8884357466       15.8103653365  WZ4       1281            0.0000000000
     24229      8077  TIP3      OH2            -8.1755903985      -10.4682557466       30.8893953365  WZ4       1282            0.0000000000
     24230      8077  TIP3      H1             -7.4301103985       -9.8798857466       30.7697953365  WZ4       1282            0.0000000000
     24231      8077  TIP3      H2             -8.9329103985       -9.8862857466       30.9527053365  WZ4       1282            0.0000000000
     24232      8078  TIP3      OH2           -15.0749703985      -12.0376057466       18.5117853365  WZ4       1284            0.0000000000
     24233      8078  TIP3      H1            -15.5347703985      -12.5217757466       19.1976353365  WZ4       1284            0.0000000000
     24234      8078  TIP3      H2            -14.8201003985      -12.7060657466       17.8758353365  WZ4       1284            0.0000000000
     24235      8079  TIP3      OH2           -14.0039303985      -13.7944257466       16.7741053365  WZ4       1286            0.0000000000
     24236      8079  TIP3      H1            -14.1844303985      -13.9493057466       15.8469353365  WZ4       1286            0.0000000000
     24237      8079  TIP3      H2            -13.0538803985      -13.6865557466       16.8188953365  WZ4       1286            0.0000000000
     24238      8080  TIP3      OH2            -4.6141003985      -11.4400057466       16.2199153365  WZ4       1288            0.0000000000
     24239      8080  TIP3      H1             -4.8876203985      -11.8644557466       15.4067453365  WZ4       1288            0.0000000000
     24240      8080  TIP3      H2             -4.5746903985      -10.5085557466       16.0029553365  WZ4       1288            0.0000000000
     24241      8081  TIP3      OH2           -15.0341003985      -18.4202357466       29.4427953365  WZ4       1290            0.0000000000
     24242      8081  TIP3      H1            -14.4983503985      -17.9685657466       28.7907253365  WZ4       1290            0.0000000000
     24243      8081  TIP3      H2            -15.8861403985      -18.5282557466       29.0202053365  WZ4       1290            0.0000000000
     24244      8082  TIP3      OH2           -13.4522603985      -12.9806157466       29.6823153365  WZ4       1291            0.0000000000
     24245      8082  TIP3      H1            -12.7017803985      -13.1368657466       29.1090953365  WZ4       1291            0.0000000000
     24246      8082  TIP3      H2            -13.7914303985      -12.1289557466       29.4068653365  WZ4       1291            0.0000000000
     24247      8083  TIP3      OH2            -7.7199203985      -12.3769157466       32.7881153365  WZ4       1293            0.0000000000
     24248      8083  TIP3      H1             -8.0014203985      -11.6674557466       32.2104953365  WZ4       1293            0.0000000000
     24249      8083  TIP3      H2             -6.7774903985      -12.4496157466       32.6372353365  WZ4       1293            0.0000000000
     24250      8084  TIP3      OH2           -14.1067603985       -3.1040557466       17.7754653365  WZ4       1302            0.0000000000
     24251      8084  TIP3      H1            -13.1736903985       -2.9461857466       17.9193053365  WZ4       1302            0.0000000000
     24252      8084  TIP3      H2            -14.3708803985       -2.4287557466       17.1506153365  WZ4       1302            0.0000000000
     24253      8085  TIP3      OH2           -20.5382703985       -8.4676757466       17.2582753365  WZ4       1303            0.0000000000
     24254      8085  TIP3      H1            -19.6243503985       -8.3887857466       17.5316653365  WZ4       1303            0.0000000000
     24255      8085  TIP3      H2            -20.5309603985       -9.1547157466       16.5918353365  WZ4       1303            0.0000000000
     24256      8086  TIP3      OH2           -21.8892103985       -3.0748257466       22.3356653365  WZ4       1304            0.0000000000
     24257      8086  TIP3      H1            -22.5365003985       -3.5366557466       21.8027853365  WZ4       1304            0.0000000000
     24258      8086  TIP3      H2            -21.5347503985       -3.7464957466       22.9182853365  WZ4       1304            0.0000000000
     24259      8087  TIP3      OH2           -21.0192903985       -4.9941257466       24.1402853365  WZ4       1305            0.0000000000
     24260      8087  TIP3      H1            -21.3536103985       -5.8743957466       24.3123053365  WZ4       1305            0.0000000000
     24261      8087  TIP3      H2            -20.7970503985       -4.6486257466       25.0048453365  WZ4       1305            0.0000000000
     24262      8088  TIP3      OH2            -3.4708103985       -4.1844857466       27.1207653365  WZ4       1306            0.0000000000
     24263      8088  TIP3      H1             -3.4921403985       -3.9996457466       28.0597053365  WZ4       1306            0.0000000000
     24264      8088  TIP3      H2             -2.7801903985       -3.6160857466       26.7799053365  WZ4       1306            0.0000000000
     24265      8089  TIP3      OH2            -3.9075203985       -4.6173757466       30.0426753365  WZ4       1307            0.0000000000
     24266      8089  TIP3      H1             -4.3946503985       -5.3529657466       29.6714153365  WZ4       1307            0.0000000000
     24267      8089  TIP3      H2             -3.3582503985       -5.0109857466       30.7206153365  WZ4       1307            0.0000000000
     24268      8090  TIP3      OH2            -5.4567903985       -8.8275657466       34.6807053365  WZ4       1308            0.0000000000
     24269      8090  TIP3      H1             -6.3226803985       -8.9325957466       35.0749353365  WZ4       1308            0.0000000000
     24270      8090  TIP3      H2             -5.0802003985       -8.0692357466       35.1271753365  WZ4       1308            0.0000000000
     24271      8091  TIP3      OH2            -4.1558203985      -10.5711957466       20.1949553365  WZ4       1309            0.0000000000
     24272      8091  TIP3      H1             -3.3056803985      -10.1501057466       20.3221153365  WZ4       1309            0.0000000000
     24273      8091  TIP3      H2             -4.1503103985      -11.3111857466       20.8020953365  WZ4       1309            0.0000000000
     24274      8092  TIP3      OH2            -3.7612603985      -12.5174557466       22.0185253365  WZ4       1310            0.0000000000
     24275      8092  TIP3      H1             -4.4878003985      -12.9971957466       22.4162853365  WZ4       1310            0.0000000000
     24276      8092  TIP3      H2             -3.1799303985      -12.3119857466       22.7506853365  WZ4       1310            0.0000000000
     24277      8093  TIP3      OH2            -4.0021403985       -9.7327057466       26.9662853365  WZ4       1311            0.0000000000
     24278      8093  TIP3      H1             -3.1687203985      -10.1107057466       26.6856453365  WZ4       1311            0.0000000000
     24279      8093  TIP3      H2             -3.8901103985       -8.7895857466       26.8471953365  WZ4       1311            0.0000000000
     24280      8094  TIP3      OH2            -5.5159103985       -6.8549557466       29.2731253365  WZ4       1312            0.0000000000
     24281      8094  TIP3      H1             -6.1633803985       -6.5298057466       29.8986453365  WZ4       1312            0.0000000000
     24282      8094  TIP3      H2             -6.0335103985       -7.2951857466       28.5989553365  WZ4       1312            0.0000000000
     24283      8095  TIP3      OH2            -3.4929503985      -12.6166057466       18.4096553365  WZ4       1313            0.0000000000
     24284      8095  TIP3      H1             -4.0148403985      -12.2601957466       17.6907453365  WZ4       1313            0.0000000000
     24285      8095  TIP3      H2             -3.5260303985      -11.9418257466       19.0877453365  WZ4       1313            0.0000000000
     24286      8096  TIP3      OH2            -5.1440503985      -15.3770457466       16.9603653365  WZ4       1314            0.0000000000
     24287      8096  TIP3      H1             -5.0476103985      -14.7103457466       16.2803353365  WZ4       1314            0.0000000000
     24288      8096  TIP3      H2             -5.2840903985      -16.1924157466       16.4789153365  WZ4       1314            0.0000000000
     24289      8097  TIP3      OH2            -5.9745803985      -13.9968057466       22.5813953365  WZ4       1315            0.0000000000
     24290      8097  TIP3      H1             -6.1247003985      -14.9419457466       22.5611753365  WZ4       1315            0.0000000000
     24291      8097  TIP3      H2             -6.3281303985      -13.7156657466       23.4253053365  WZ4       1315            0.0000000000
     24292      8098  TIP3      OH2           -20.9393403985      -11.9185857466       26.5917753365  WZ4       1316            0.0000000000
     24293      8098  TIP3      H1            -20.7550503985      -12.0004157466       25.6560653365  WZ4       1316            0.0000000000
     24294      8098  TIP3      H2            -20.0900503985      -12.0428857466       27.0154153365  WZ4       1316            0.0000000000
     24295      8099  TIP3      OH2            -5.1182903985      -12.0264757466       32.2202253365  WZ4       1317            0.0000000000
     24296      8099  TIP3      H1             -4.5355603985      -12.7612457466       32.4119453365  WZ4       1317            0.0000000000
     24297      8099  TIP3      H2             -4.5543603985      -11.2544457466       32.2668053365  WZ4       1317            0.0000000000
     24298      8100  TIP3      OH2            -3.6215803985      -14.1238957466       32.9047653365  WZ4       1318            0.0000000000
     24299      8100  TIP3      H1             -4.4849103985      -14.5026857466       32.7392353365  WZ4       1318            0.0000000000
     24300      8100  TIP3      H2             -3.0172103985      -14.8624157466       32.8303453365  WZ4       1318            0.0000000000
     24301      8101  TIP3      OH2            -5.8966703985      -17.9690657466       16.0779153365  WZ4       1319            0.0000000000
     24302      8101  TIP3      H1             -5.2860903985      -18.3403857466       16.7147353365  WZ4       1319            0.0000000000
     24303      8101  TIP3      H2             -6.7335203985      -18.3903757466       16.2739153365  WZ4       1319            0.0000000000
     24304      8102  TIP3      OH2            -6.2641003985      -16.4142257466       21.0439053365  WZ4       1320            0.0000000000
     24305      8102  TIP3      H1             -5.9843903985      -17.3211857466       21.1680753365  WZ4       1320            0.0000000000
     24306      8102  TIP3      H2             -5.5049303985      -15.9800757466       20.6548253365  WZ4       1320            0.0000000000
     24307      8103  TIP3      OH2            -5.6522703985      -15.8324857466       26.4797953365  WZ4       1321            0.0000000000
     24308      8103  TIP3      H1             -4.7194703985      -15.6204957466       26.4453953365  WZ4       1321            0.0000000000
     24309      8103  TIP3      H2             -5.8875203985      -15.7312757466       27.4020953365  WZ4       1321            0.0000000000
     24310      8104  TIP3      OH2            -5.6230803985      -15.0959557466       29.2557353365  WZ4       1322            0.0000000000
     24311      8104  TIP3      H1             -6.4659503985      -14.8279157466       29.6217153365  WZ4       1322            0.0000000000
     24312      8104  TIP3      H2             -5.1806503985      -14.2737657466       29.0448453365  WZ4       1322            0.0000000000
     24313      8105  TIP3      OH2            -3.3399203985      -21.1159357466       34.6092353365  WZ4       1324            0.0000000000
     24314      8105  TIP3      H1             -2.9902203985      -21.7695857466       34.0037053365  WZ4       1324            0.0000000000
     24315      8105  TIP3      H2             -3.1929703985      -20.2785257466       34.1694953365  WZ4       1324            0.0000000000
     24316      8106  TIP3      OH2            -5.6506203985      -19.1512957466       21.0921053365  WZ4       1325            0.0000000000
     24317      8106  TIP3      H1             -5.4681203985      -19.6001457466       21.9176053365  WZ4       1325            0.0000000000
     24318      8106  TIP3      H2             -6.2503303985      -19.7358557466       20.6285653365  WZ4       1325            0.0000000000
     24319      8107  TIP3      OH2           -20.1206103985      -18.3359257466       25.6239453365  WZ4       1326            0.0000000000
     24320      8107  TIP3      H1            -19.6754503985      -19.1276757466       25.9259153365  WZ4       1326            0.0000000000
     24321      8107  TIP3      H2            -19.6543103985      -17.6194057466       26.0545053365  WZ4       1326            0.0000000000
     24322      8108  TIP3      OH2           -21.8165803985      -15.3366257466       26.6929653365  WZ4       1327            0.0000000000
     24323      8108  TIP3      H1            -21.3246003985      -15.5575757466       25.9021653365  WZ4       1327            0.0000000000
     24324      8108  TIP3      H2            -21.4544903985      -14.4962857466       26.9739153365  WZ4       1327            0.0000000000
     24325      8109  TIP3      OH2            -3.8202003985      -19.0064757466       32.9583653365  WZ4       1328            0.0000000000
     24326      8109  TIP3      H1             -4.7376303985      -18.7357657466       32.9227153365  WZ4       1328            0.0000000000
     24327      8109  TIP3      H2             -3.6972603985      -19.5416357466       32.1743353365  WZ4       1328            0.0000000000
     24328      8110  TIP3      OH2            -3.7840003985      -19.0834857466       17.6201353365  WZ4       1329            0.0000000000
     24329      8110  TIP3      H1             -3.3717403985      -19.8049157466       17.1449353365  WZ4       1329            0.0000000000
     24330      8110  TIP3      H2             -3.1023503985      -18.4140257466       17.6785653365  WZ4       1329            0.0000000000
     24331      8111  TIP3      OH2           -21.5029303985      -19.0787157466       20.7472053365  WZ4       1330            0.0000000000
     24332      8111  TIP3      H1            -22.4280903985      -18.8700557466       20.6177553365  WZ4       1330            0.0000000000
     24333      8111  TIP3      H2            -21.0489403985      -18.5946357466       20.0574353365  WZ4       1330            0.0000000000
     24334      8112  TIP3      OH2            -6.7322103985       -4.0945457466       22.6929453365  WZ4       1331            0.0000000000
     24335      8112  TIP3      H1             -6.0799203985       -4.4423357466       22.0848553365  WZ4       1331            0.0000000000
     24336      8112  TIP3      H2             -6.2218303985       -3.6062257466       23.3389153365  WZ4       1331            0.0000000000
     24337      8113  TIP3      OH2           -16.3931703985       -6.1912857466       29.4944353365  WZ4       1334            0.0000000000
     24338      8113  TIP3      H1            -16.8180603985       -5.3814357466       29.2118953365  WZ4       1334            0.0000000000
     24339      8113  TIP3      H2            -15.4888903985       -6.1058757466       29.1924153365  WZ4       1334            0.0000000000
     24340      8114  TIP3      OH2           -12.0820303985       -4.7922857466       32.4538053365  WZ4       1335            0.0000000000
     24341      8114  TIP3      H1            -11.8972803985       -5.1256757466       33.3318353365  WZ4       1335            0.0000000000
     24342      8114  TIP3      H2            -11.2355803985       -4.4824257466       32.1317253365  WZ4       1335            0.0000000000
     24343      8115  TIP3      OH2            -9.7369903985       -3.5063957466       31.6979453365  WZ4       1336            0.0000000000
     24344      8115  TIP3      H1             -9.0601003985       -4.1391657466       31.4578653365  WZ4       1336            0.0000000000
     24345      8115  TIP3      H2             -9.4151103985       -3.1053457466       32.5052753365  WZ4       1336            0.0000000000
     24346      8116  TIP3      OH2            -4.8196103985      -20.9168457466       30.7774453365  WZ4       1337            0.0000000000
     24347      8116  TIP3      H1             -5.6322603985      -20.5918157466       30.3899153365  WZ4       1337            0.0000000000
     24348      8116  TIP3      H2             -4.5867603985      -21.6769957466       30.2443553365  WZ4       1337            0.0000000000
     24349      8117  TIP3      OH2           -18.9915003985       -2.9348957466       29.5419653365  WZ4       1338            0.0000000000
     24350      8117  TIP3      H1            -19.7118603985       -2.4947957466       29.0907353365  WZ4       1338            0.0000000000
     24351      8117  TIP3      H2            -19.3571003985       -3.1854257466       30.3903653365  WZ4       1338            0.0000000000
     24352      8118  TIP3      OH2           -16.5242403985       -3.3345057466       28.5716853365  WZ4       1339            0.0000000000
     24353      8118  TIP3      H1            -17.3890203985       -3.2626557466       28.9756953365  WZ4       1339            0.0000000000
     24354      8118  TIP3      H2            -16.5793403985       -2.7877757466       27.7879353365  WZ4       1339            0.0000000000
     24355      8119  TIP3      OH2           -11.8136803985       -3.4466157466       27.7472853365  WZ4       1340            0.0000000000
     24356      8119  TIP3      H1            -12.2702803985       -2.9176457466       27.0931253365  WZ4       1340            0.0000000000
     24357      8119  TIP3      H2            -11.6508803985       -2.8434757466       28.4725153365  WZ4       1340            0.0000000000
     24358      8120  TIP3      OH2            -9.4860503985       -4.5686557466       28.6923153365  WZ4       1341            0.0000000000
     24359      8120  TIP3      H1            -10.3906803985       -4.4036357466       28.4265253365  WZ4       1341            0.0000000000
     24360      8120  TIP3      H2             -9.0571903985       -3.7154357466       28.6266553365  WZ4       1341            0.0000000000
     24361      8121  TIP3      OH2            -6.8818603985       -2.9987457466       28.9870953365  WZ4       1342            0.0000000000
     24362      8121  TIP3      H1             -7.0636603985       -2.0828557466       28.7765853365  WZ4       1342            0.0000000000
     24363      8121  TIP3      H2             -6.7050803985       -3.4090357466       28.1405553365  WZ4       1342            0.0000000000
     24364      8122  TIP3      OH2           -19.5766903985       -4.3116457466       26.4521453365  WZ4       1343            0.0000000000
     24365      8122  TIP3      H1            -19.5950903985       -4.7371357466       27.3093753365  WZ4       1343            0.0000000000
     24366      8122  TIP3      H2            -18.7719003985       -4.6301457466       26.0433653365  WZ4       1343            0.0000000000
     24367      8123  TIP3      OH2           -17.4353803985       -5.6017757466       25.1071353365  WZ4       1344            0.0000000000
     24368      8123  TIP3      H1            -17.6543103985       -6.5180357466       25.2767353365  WZ4       1344            0.0000000000
     24369      8123  TIP3      H2            -16.6111603985       -5.4617357466       25.5732753365  WZ4       1344            0.0000000000
     24370      8124  TIP3      OH2           -14.8981303985       -5.1318457466       25.9559353365  WZ4       1345            0.0000000000
     24371      8124  TIP3      H1            -14.6855603985       -6.0199457466       25.6690253365  WZ4       1345            0.0000000000
     24372      8124  TIP3      H2            -14.8336203985       -5.1660757466       26.9103353365  WZ4       1345            0.0000000000
     24373      8125  TIP3      OH2           -11.3897603985      -19.4677857466       25.1002653365  WZ4       1346            0.0000000000
     24374      8125  TIP3      H1            -12.0640803985      -20.0972257466       25.3558453365  WZ4       1346            0.0000000000
     24375      8125  TIP3      H2            -10.8258403985      -19.9518957466       24.4970553365  WZ4       1346            0.0000000000
     24376      8126  TIP3      OH2            -6.2470403985      -21.3603857466       25.2129753365  WZ4       1347            0.0000000000
     24377      8126  TIP3      H1             -5.6432803985      -20.8128457466       24.7110753365  WZ4       1347            0.0000000000
     24378      8126  TIP3      H2             -7.1168403985      -21.0413457466       24.9723853365  WZ4       1347            0.0000000000
     24379      8127  TIP3      OH2            -4.5200003985      -20.2215157466       23.5460653365  WZ4       1348            0.0000000000
     24380      8127  TIP3      H1             -3.9082503985      -20.7359457466       23.0194253365  WZ4       1348            0.0000000000
     24381      8127  TIP3      H2             -4.1376603985      -19.3443057466       23.5695053365  WZ4       1348            0.0000000000
     24382      8128  TIP3      OH2           -19.0630103985      -20.8337557466       22.9222553365  WZ4       1349            0.0000000000
     24383      8128  TIP3      H1            -19.8400303985      -21.0682657466       22.4148453365  WZ4       1349            0.0000000000
     24384      8128  TIP3      H2            -18.5326503985      -21.6305457466       22.9310553365  WZ4       1349            0.0000000000
     24385      8129  TIP3      OH2           -20.2266703985      -21.0359457466       18.7258653365  WZ4       1350            0.0000000000
     24386      8129  TIP3      H1            -19.7876003985      -20.4248957466       18.1342153365  WZ4       1350            0.0000000000
     24387      8129  TIP3      H2            -20.8604303985      -20.4975357466       19.1998653365  WZ4       1350            0.0000000000
     24388      8130  TIP3      OH2           -14.4837503985      -20.9070457466       22.7355653365  WZ4       1351            0.0000000000
     24389      8130  TIP3      H1            -13.6094103985      -20.5186157466       22.7059953365  WZ4       1351            0.0000000000
     24390      8130  TIP3      H2            -14.6196703985      -21.1222657466       23.6582853365  WZ4       1351            0.0000000000
     24391      8131  TIP3      OH2            -8.9269103985      -20.8770657466       24.3847353365  WZ4       1352            0.0000000000
     24392      8131  TIP3      H1             -8.8507503985      -20.7819057466       23.4353353365  WZ4       1352            0.0000000000
     24393      8131  TIP3      H2             -9.2019903985      -21.7847757466       24.5136453365  WZ4       1352            0.0000000000
     24394      8132  TIP3      OH2            -7.5736503985      -20.8512857466       20.0772353365  WZ4       1353            0.0000000000
     24395      8132  TIP3      H1             -8.2765403985      -20.2363657466       19.8673753365  WZ4       1353            0.0000000000
     24396      8132  TIP3      H2             -8.0185103985      -21.6886157466       20.2083253365  WZ4       1353            0.0000000000
     24397      8133  TIP3      OH2           -20.3257203985       -5.0877257466       19.6233753365  WZ4       1354            0.0000000000
     24398      8133  TIP3      H1            -21.0107303985       -5.1258357466       18.9558853365  WZ4       1354            0.0000000000
     24399      8133  TIP3      H2            -20.3220003985       -4.1749657466       19.9115853365  WZ4       1354            0.0000000000
     24400      8134  TIP3      OH2           -18.3657603985      -19.1197957466       17.1682753365  WZ4       1355            0.0000000000
     24401      8134  TIP3      H1            -17.8744203985      -19.7495557466       16.6408253365  WZ4       1355            0.0000000000
     24402      8134  TIP3      H2            -17.7421303985      -18.8238557466       17.8313953365  WZ4       1355            0.0000000000
     24403      8135  TIP3      OH2           -13.3397503985      -18.8266457466       19.6253253365  WZ4       1356            0.0000000000
     24404      8135  TIP3      H1            -13.1616203985      -19.4733257466       20.3081853365  WZ4       1356            0.0000000000
     24405      8135  TIP3      H2            -13.3931303985      -17.9928757466       20.0924353365  WZ4       1356            0.0000000000
     24406      8136  TIP3      OH2           -11.4613703985       -3.8782357466       18.0209953365  WZ4       1357            0.0000000000
     24407      8136  TIP3      H1            -10.5953503985       -3.5114957466       17.8428153365  WZ4       1357            0.0000000000
     24408      8136  TIP3      H2            -11.7080903985       -4.3174357466       17.2070753365  WZ4       1357            0.0000000000
     24409      8137  TIP3      OH2            -4.7524103985       -4.3152057466       20.7001053365  WZ4       1358            0.0000000000
     24410      8137  TIP3      H1             -4.9467003985       -5.0629957466       20.1350653365  WZ4       1358            0.0000000000
     24411      8137  TIP3      H2             -4.7914003985       -3.5571957466       20.1168953365  WZ4       1358            0.0000000000
     24412      8138  TIP3      OH2           -18.5076003985       -4.1676457466       16.6485853365  WZ4       1361            0.0000000000
     24413      8138  TIP3      H1            -18.7751403985       -3.8813557466       17.5218953365  WZ4       1361            0.0000000000
     24414      8138  TIP3      H2            -17.7363403985       -4.7137257466       16.8008353365  WZ4       1361            0.0000000000
     24415      8139  TIP3      OH2            -5.5347903985       -5.5639657466       32.8502853365  WZ4       1363            0.0000000000
     24416      8139  TIP3      H1             -6.3166003985       -5.7501657466       32.3303453365  WZ4       1363            0.0000000000
     24417      8139  TIP3      H2             -5.6068003985       -4.6345357466       33.0675353365  WZ4       1363            0.0000000000
     24418      8140  TIP3      OH2             8.8712496015      -11.6775257466       22.8810053365  WZ4       1364            0.0000000000
     24419      8140  TIP3      H1              8.9603596015      -10.7337057466       22.7487153365  WZ4       1364            0.0000000000
     24420      8140  TIP3      H2              8.2330096015      -11.9528857466       22.2229453365  WZ4       1364            0.0000000000
     24421      8141  TIP3      OH2             7.8043796015      -12.4224557466       26.2998253365  WZ4       1365            0.0000000000
     24422      8141  TIP3      H1              7.7661296015      -13.0688257466       27.0047853365  WZ4       1365            0.0000000000
     24423      8141  TIP3      H2              7.4820296015      -12.8890157466       25.5286953365  WZ4       1365            0.0000000000
     24424      8142  TIP3      OH2             0.1728796015      -12.8082457466       27.8928153365  WZ4       1366            0.0000000000
     24425      8142  TIP3      H1              0.2140896015      -13.4339157466       28.6160553365  WZ4       1366            0.0000000000
     24426      8142  TIP3      H2              0.8756496015      -12.1843857466       28.0748553365  WZ4       1366            0.0000000000
     24427      8143  TIP3      OH2            11.5103996015       -9.4834157466       24.6013353365  WZ4       1367            0.0000000000
     24428      8143  TIP3      H1             11.0696696015      -10.2038157466       25.0518953365  WZ4       1367            0.0000000000
     24429      8143  TIP3      H2             11.4973696015       -8.7626957466       25.2311053365  WZ4       1367            0.0000000000
     24430      8144  TIP3      OH2             1.0961896015       -8.3583557466       26.4277253365  WZ4       1368            0.0000000000
     24431      8144  TIP3      H1              0.7267096015       -9.1603057466       26.0581553365  WZ4       1368            0.0000000000
     24432      8144  TIP3      H2              2.0372996015       -8.5268657466       26.4740653365  WZ4       1368            0.0000000000
     24433      8145  TIP3      OH2            -2.2937603985      -14.6980957466       21.8206053365  WZ4       1369            0.0000000000
     24434      8145  TIP3      H1             -2.7414203985      -13.8522257466       21.8022553365  WZ4       1369            0.0000000000
     24435      8145  TIP3      H2             -2.8546403985      -15.2776757466       21.3051153365  WZ4       1369            0.0000000000
     24436      8146  TIP3      OH2            -1.5831503985      -12.5361357466       23.9464053365  WZ4       1370            0.0000000000
     24437      8146  TIP3      H1             -1.3698003985      -13.3059757466       24.4737053365  WZ4       1370            0.0000000000
     24438      8146  TIP3      H2             -0.8453903985      -12.4464657466       23.3431653365  WZ4       1370            0.0000000000
     24439      8147  TIP3      OH2             8.6219496015       -4.3792457466       24.8133753365  WZ4       1371            0.0000000000
     24440      8147  TIP3      H1              9.2415896015       -5.0557757466       24.5402953365  WZ4       1371            0.0000000000
     24441      8147  TIP3      H2              8.4136896015       -4.5971657466       25.7218653365  WZ4       1371            0.0000000000
     24442      8148  TIP3      OH2             6.1938196015       -9.9903157466       26.7059253365  WZ4       1372            0.0000000000
     24443      8148  TIP3      H1              6.4976096015      -10.6761757466       26.1113353365  WZ4       1372            0.0000000000
     24444      8148  TIP3      H2              6.9152196015       -9.8714457466       27.3237253365  WZ4       1372            0.0000000000
     24445      8149  TIP3      OH2            14.8567996015      -18.3887857466       27.5665453365  WZ4       1373            0.0000000000
     24446      8149  TIP3      H1             14.9060196015      -17.7786657466       28.3024553365  WZ4       1373            0.0000000000
     24447      8149  TIP3      H2             15.2823096015      -17.9276957466       26.8436553365  WZ4       1373            0.0000000000
     24448      8150  TIP3      OH2             9.3345196015      -15.5960757466       27.0334053365  WZ4       1374            0.0000000000
     24449      8150  TIP3      H1              9.4771096015      -16.5423757466       27.0535653365  WZ4       1374            0.0000000000
     24450      8150  TIP3      H2              9.2284196015      -15.3890957466       26.1048953365  WZ4       1374            0.0000000000
     24451      8151  TIP3      OH2             2.4893496015      -17.4944357466       24.3058853365  WZ4       1375            0.0000000000
     24452      8151  TIP3      H1              2.5324596015      -16.6345857466       23.8875153365  WZ4       1375            0.0000000000
     24453      8151  TIP3      H2              2.0317596015      -18.0469657466       23.6722053365  WZ4       1375            0.0000000000
     24454      8152  TIP3      OH2            10.2116196015      -17.3638757466       22.7067153365  WZ4       1376            0.0000000000
     24455      8152  TIP3      H1             10.8580496015      -17.6925557466       23.3314753365  WZ4       1376            0.0000000000
     24456      8152  TIP3      H2             10.7215596015      -16.8459757466       22.0838553365  WZ4       1376            0.0000000000
     24457      8153  TIP3      OH2            -0.8905003985      -15.0978557466       25.0680253365  WZ4       1377            0.0000000000
     24458      8153  TIP3      H1             -0.2368403985      -15.6476857466       25.5000353365  WZ4       1377            0.0000000000
     24459      8153  TIP3      H2             -0.8665703985      -15.3719557466       24.1512253365  WZ4       1377            0.0000000000
     24460      8154  TIP3      OH2             4.2659496015      -13.5477257466       24.2831753365  WZ4       1378            0.0000000000
     24461      8154  TIP3      H1              4.8820496015      -14.0741857466       24.7925753365  WZ4       1378            0.0000000000
     24462      8154  TIP3      H2              3.6798296015      -14.1878557466       23.8795353365  WZ4       1378            0.0000000000
     24463      8155  TIP3      OH2            15.2482596015      -16.9108657466       29.8025253365  WZ4       1379            0.0000000000
     24464      8155  TIP3      H1             14.5597196015      -16.2527957466       29.7071853365  WZ4       1379            0.0000000000
     24465      8155  TIP3      H2             15.2637196015      -17.1080757466       30.7390653365  WZ4       1379            0.0000000000
     24466      8156  TIP3      OH2             1.2995396015      -18.5765957466       28.3799653365  WZ4       1380            0.0000000000
     24467      8156  TIP3      H1              1.0807096015      -18.0465357466       27.6135653365  WZ4       1380            0.0000000000
     24468      8156  TIP3      H2              0.6316296015      -18.3500457466       29.0271053365  WZ4       1380            0.0000000000
     24469      8157  TIP3      OH2             8.6685196015       -9.0764857466       21.9238753365  WZ4       1381            0.0000000000
     24470      8157  TIP3      H1              8.3730296015       -9.3992557466       21.0725653365  WZ4       1381            0.0000000000
     24471      8157  TIP3      H2              8.3442996015       -8.1768157466       21.9651353365  WZ4       1381            0.0000000000
     24472      8158  TIP3      OH2             3.8686796015      -10.9010257466       28.6673353365  WZ4       1382            0.0000000000
     24473      8158  TIP3      H1              3.1285896015      -10.3028757466       28.7708553365  WZ4       1382            0.0000000000
     24474      8158  TIP3      H2              4.5826296015      -10.3470657466       28.3516953365  WZ4       1382            0.0000000000
     24475      8159  TIP3      OH2            11.9754596015      -18.0729457466       24.6873053365  WZ4       1383            0.0000000000
     24476      8159  TIP3      H1             11.7602596015      -18.8386057466       25.2199053365  WZ4       1383            0.0000000000
     24477      8159  TIP3      H2             12.6311996015      -17.6004857466       25.2001553365  WZ4       1383            0.0000000000
     24478      8160  TIP3      OH2             0.8932696015      -16.6844157466       26.3321853365  WZ4       1384            0.0000000000
     24479      8160  TIP3      H1              1.5068996015      -16.0516557466       26.7054253365  WZ4       1384            0.0000000000
     24480      8160  TIP3      H2              1.4053396015      -17.1569157466       25.6758753365  WZ4       1384            0.0000000000
     24481      8161  TIP3      OH2             2.2761096015       -8.9367257466       29.4544853365  WZ4       1385            0.0000000000
     24482      8161  TIP3      H1              2.2708696015       -8.0573757466       29.0764153365  WZ4       1385            0.0000000000
     24483      8161  TIP3      H2              1.4225196015       -9.0203157466       29.8794753365  WZ4       1385            0.0000000000
     24484      8162  TIP3      OH2            -1.6028003985       -9.2659357466       20.2364153365  WZ4       1386            0.0000000000
     24485      8162  TIP3      H1             -1.8747103985       -9.0368357466       19.3477053365  WZ4       1386            0.0000000000
     24486      8162  TIP3      H2             -1.5572303985       -8.4280557466       20.6969453365  WZ4       1386            0.0000000000
     24487      8163  TIP3      OH2            12.0221696015       -7.6443457466       26.9492653365  WZ4       1387            0.0000000000
     24488      8163  TIP3      H1             11.0805396015       -7.5859557466       27.1109553365  WZ4       1387            0.0000000000
     24489      8163  TIP3      H2             12.2987796015       -6.7382957466       26.8122353365  WZ4       1387            0.0000000000
     24490      8164  TIP3      OH2            12.3228696015      -19.3578157466       28.3666553365  WZ4       1388            0.0000000000
     24491      8164  TIP3      H1             11.5867896015      -18.7471057466       28.3287853365  WZ4       1388            0.0000000000
     24492      8164  TIP3      H2             13.0062696015      -18.9429157466       27.8402953365  WZ4       1388            0.0000000000
     24493      8165  TIP3      OH2             5.3260096015      -21.2710857466       25.8324553365  WZ4       1389            0.0000000000
     24494      8165  TIP3      H1              5.2084296015      -22.2194857466       25.7782853365  WZ4       1389            0.0000000000
     24495      8165  TIP3      H2              4.4710196015      -20.9384757466       26.1055653365  WZ4       1389            0.0000000000
     24496      8166  TIP3      OH2            10.2742896015       -5.8629957466       23.5744253365  WZ4       1390            0.0000000000
     24497      8166  TIP3      H1             10.6995196015       -6.5702057466       23.0893853365  WZ4       1390            0.0000000000
     24498      8166  TIP3      H2             10.5912896015       -5.0617257466       23.1576453365  WZ4       1390            0.0000000000
     24499      8167  TIP3      OH2            11.4339396015       -7.9621457466       22.0830853365  WZ4       1391            0.0000000000
     24500      8167  TIP3      H1             11.1764196015       -8.6521357466       21.4716753365  WZ4       1391            0.0000000000
     24501      8167  TIP3      H2             11.5050196015       -8.4050257466       22.9286753365  WZ4       1391            0.0000000000
     24502      8168  TIP3      OH2            13.1199596015       -9.3954757466       30.5604353365  WZ4       1392            0.0000000000
     24503      8168  TIP3      H1             13.2595896015       -9.9872257466       29.8211353365  WZ4       1392            0.0000000000
     24504      8168  TIP3      H2             13.2872396015       -8.5228857466       30.2043153365  WZ4       1392            0.0000000000
     24505      8169  TIP3      OH2             7.5924996015      -12.4335257466       20.3330353365  WZ4       1393            0.0000000000
     24506      8169  TIP3      H1              6.8810496015      -11.8985557466       19.9810853365  WZ4       1393            0.0000000000
     24507      8169  TIP3      H2              8.2834596015      -12.3783157466       19.6729253365  WZ4       1393            0.0000000000
     24508      8170  TIP3      OH2             7.6464196015      -13.9760957466       17.3715353365  WZ4       1394            0.0000000000
     24509      8170  TIP3      H1              8.3474096015      -13.9534057466       18.0229353365  WZ4       1394            0.0000000000
     24510      8170  TIP3      H2              7.9487096015      -14.6041257466       16.7154653365  WZ4       1394            0.0000000000
     24511      8171  TIP3      OH2            14.9618896015      -13.0556757466       28.6264753365  WZ4       1395            0.0000000000
     24512      8171  TIP3      H1             14.3092996015      -12.3611157466       28.7155653365  WZ4       1395            0.0000000000
     24513      8171  TIP3      H2             15.4269196015      -12.8455857466       27.8166353365  WZ4       1395            0.0000000000
     24514      8172  TIP3      OH2            10.9982696015      -12.2241957466       21.2846253365  WZ4       1396            0.0000000000
     24515      8172  TIP3      H1             10.2663696015      -11.9958257466       21.8576853365  WZ4       1396            0.0000000000
     24516      8172  TIP3      H2             11.4454896015      -12.9379257466       21.7393753365  WZ4       1396            0.0000000000
     24517      8173  TIP3      OH2            10.8956196015      -14.0499357466       30.3523253365  WZ4       1397            0.0000000000
     24518      8173  TIP3      H1             10.9755296015      -13.2864957466       30.9241753365  WZ4       1397            0.0000000000
     24519      8173  TIP3      H2             10.2943896015      -13.7706957466       29.6618353365  WZ4       1397            0.0000000000
     24520      8174  TIP3      OH2             2.6436396015      -11.5935757466       23.1671253365  WZ4       1398            0.0000000000
     24521      8174  TIP3      H1              2.3131596015      -11.9642357466       22.3488253365  WZ4       1398            0.0000000000
     24522      8174  TIP3      H2              3.2320496015      -12.2641757466       23.5139553365  WZ4       1398            0.0000000000
     24523      8175  TIP3      OH2             4.0103896015       -8.1655157466       25.8483453365  WZ4       1399            0.0000000000
     24524      8175  TIP3      H1              3.9155196015       -8.7442057466       25.0918053365  WZ4       1399            0.0000000000
     24525      8175  TIP3      H2              4.7397496015       -8.5369457466       26.3446253365  WZ4       1399            0.0000000000
     24526      8176  TIP3      OH2             3.0101896015      -12.8250157466       26.8006253365  WZ4       1400            0.0000000000
     24527      8176  TIP3      H1              3.5754396015      -12.7035957466       26.0377453365  WZ4       1400            0.0000000000
     24528      8176  TIP3      H2              3.3290796015      -12.1875157466       27.4394753365  WZ4       1400            0.0000000000
     24529      8177  TIP3      OH2             9.3194096015       -7.3218257466       27.5346753365  WZ4       1401            0.0000000000
     24530      8177  TIP3      H1              9.0790696015       -6.6595157466       28.1825953365  WZ4       1401            0.0000000000
     24531      8177  TIP3      H2              9.1212296015       -8.1563057466       27.9596353365  WZ4       1401            0.0000000000
     24532      8178  TIP3      OH2             3.8902596015       -8.4257457466       31.5178153365  WZ4       1402            0.0000000000
     24533      8178  TIP3      H1              3.5790096015       -7.6434257466       31.9731353365  WZ4       1402            0.0000000000
     24534      8178  TIP3      H2              3.2402796015       -8.5788357466       30.8320153365  WZ4       1402            0.0000000000
     24535      8179  TIP3      OH2             9.8692196015      -13.0619057466       18.9697453365  WZ4       1403            0.0000000000
     24536      8179  TIP3      H1             10.4487696015      -12.9118757466       19.7166353365  WZ4       1403            0.0000000000
     24537      8179  TIP3      H2             10.2832196015      -12.5911657466       18.2463853365  WZ4       1403            0.0000000000
     24538      8180  TIP3      OH2             0.8102496015      -12.2276357466       30.7463853365  WZ4       1404            0.0000000000
     24539      8180  TIP3      H1              0.8805696015      -11.5769557466       31.4448853365  WZ4       1404            0.0000000000
     24540      8180  TIP3      H2             -0.0805303985      -12.1248857466       30.4114753365  WZ4       1404            0.0000000000
     24541      8181  TIP3      OH2             7.5957096015       -6.3250557466       22.4050553365  WZ4       1405            0.0000000000
     24542      8181  TIP3      H1              8.0694696015       -6.0294257466       23.1824753365  WZ4       1405            0.0000000000
     24543      8181  TIP3      H2              7.0326396015       -5.5868957466       22.1720153365  WZ4       1405            0.0000000000
     24544      8182  TIP3      OH2             2.1298496015       -6.3542457466       32.2811953365  WZ4       1406            0.0000000000
     24545      8182  TIP3      H1              2.1373796015       -6.4902757466       31.3337453365  WZ4       1406            0.0000000000
     24546      8182  TIP3      H2              1.2138896015       -6.4714357466       32.5331953365  WZ4       1406            0.0000000000
     24547      8183  TIP3      OH2            13.5680596015      -21.3118657466       18.7827153365  WZ4       1407            0.0000000000
     24548      8183  TIP3      H1             12.6681296015      -21.1729657466       19.0777753365  WZ4       1407            0.0000000000
     24549      8183  TIP3      H2             13.8198996015      -20.4804057466       18.3808853365  WZ4       1407            0.0000000000
     24550      8184  TIP3      OH2             1.6339096015      -12.5241457466       20.7564053365  WZ4       1408            0.0000000000
     24551      8184  TIP3      H1              1.3420396015      -11.7559757466       20.2655353365  WZ4       1408            0.0000000000
     24552      8184  TIP3      H2              0.9594296015      -13.1835257466       20.5935453365  WZ4       1408            0.0000000000
     24553      8185  TIP3      OH2            14.7571996015       -6.9456257466       17.1591053365  WZ4       1409            0.0000000000
     24554      8185  TIP3      H1             14.8305496015       -6.0066057466       17.3296353365  WZ4       1409            0.0000000000
     24555      8185  TIP3      H2             15.6627096015       -7.2507657466       17.1028353365  WZ4       1409            0.0000000000
     24556      8186  TIP3      OH2            -2.2730803985      -10.1612257466       29.5713853365  WZ4       1410            0.0000000000
     24557      8186  TIP3      H1             -2.7742403985      -10.1892857466       28.7563553365  WZ4       1410            0.0000000000
     24558      8186  TIP3      H2             -2.2677103985      -11.0669057466       29.8811153365  WZ4       1410            0.0000000000
     24559      8187  TIP3      OH2            -2.5228103985       -7.3808457466       26.4554053365  WZ4       1411            0.0000000000
     24560      8187  TIP3      H1             -1.5767503985       -7.5251457466       26.4363553365  WZ4       1411            0.0000000000
     24561      8187  TIP3      H2             -2.6351803985       -6.5965657466       26.9925253365  WZ4       1411            0.0000000000
     24562      8188  TIP3      OH2            15.6750396015       -6.7148757466       32.1377753365  WZ4       1412            0.0000000000
     24563      8188  TIP3      H1             15.6257196015       -7.6700657466       32.1005353365  WZ4       1412            0.0000000000
     24564      8188  TIP3      H2             14.8482696015       -6.4473457466       32.5391553365  WZ4       1412            0.0000000000
     24565      8189  TIP3      OH2             6.6534396015       -7.1409557466       31.0139153365  WZ4       1413            0.0000000000
     24566      8189  TIP3      H1              6.7408996015       -6.3144957466       31.4888253365  WZ4       1413            0.0000000000
     24567      8189  TIP3      H2              5.7899496015       -7.4705757466       31.2628453365  WZ4       1413            0.0000000000
     24568      8190  TIP3      OH2             7.0680196015       -3.3685857466       20.8199753365  WZ4       1414            0.0000000000
     24569      8190  TIP3      H1              6.9926196015       -3.4898657466       19.8734953365  WZ4       1414            0.0000000000
     24570      8190  TIP3      H2              7.1008896015       -2.4193157466       20.9384353365  WZ4       1414            0.0000000000
     24571      8191  TIP3      OH2             0.7213996015       -4.5798857466       22.6008753365  WZ4       1415            0.0000000000
     24572      8191  TIP3      H1              0.8734396015       -4.9278457466       23.4795253365  WZ4       1415            0.0000000000
     24573      8191  TIP3      H2             -0.1295603985       -4.9361557466       22.3455953365  WZ4       1415            0.0000000000
     24574      8192  TIP3      OH2            10.1696196015       -4.2145657466       17.8222153365  WZ4       1416            0.0000000000
     24575      8192  TIP3      H1             10.5444596015       -4.9589557466       17.3514753365  WZ4       1416            0.0000000000
     24576      8192  TIP3      H2             10.1739896015       -4.4845057466       18.7405453365  WZ4       1416            0.0000000000
     24577      8193  TIP3      OH2             9.8384296015       -4.2888557466       20.5714353365  WZ4       1417            0.0000000000
     24578      8193  TIP3      H1              8.9034096015       -4.1886657466       20.7501353365  WZ4       1417            0.0000000000
     24579      8193  TIP3      H2             10.1186196015       -4.9982557466       21.1497553365  WZ4       1417            0.0000000000
     24580      8194  TIP3      OH2            12.8270196015      -15.2216257466       32.6179953365  WZ4       1418            0.0000000000
     24581      8194  TIP3      H1             12.4196996015      -14.7410657466       31.8973253365  WZ4       1418            0.0000000000
     24582      8194  TIP3      H2             12.8675896015      -16.1270257466       32.3100753365  WZ4       1418            0.0000000000
     24583      8195  TIP3      OH2            -0.0240303985       -8.8376857466       30.6146653365  WZ4       1419            0.0000000000
     24584      8195  TIP3      H1              0.1920996015       -9.1991257466       31.4742453365  WZ4       1419            0.0000000000
     24585      8195  TIP3      H2             -0.8795603985       -9.2123057466       30.4050153365  WZ4       1419            0.0000000000
     24586      8196  TIP3      OH2             2.5947696015      -20.3676357466       26.6100853365  WZ4       1420            0.0000000000
     24587      8196  TIP3      H1              1.7331396015      -20.4548157466       26.2023753365  WZ4       1420            0.0000000000
     24588      8196  TIP3      H2              2.5723396015      -19.5116257466       27.0378453365  WZ4       1420            0.0000000000
     24589      8197  TIP3      OH2             7.2575496015      -20.6455957466       29.9847853365  WZ4       1421            0.0000000000
     24590      8197  TIP3      H1              7.6778596015      -21.0608857466       30.7378453365  WZ4       1421            0.0000000000
     24591      8197  TIP3      H2              6.3245096015      -20.8242657466       30.1019853365  WZ4       1421            0.0000000000
     24592      8198  TIP3      OH2            10.5840396015      -16.8900757466       30.8382353365  WZ4       1422            0.0000000000
     24593      8198  TIP3      H1             10.0699896015      -17.0158557466       31.6358353365  WZ4       1422            0.0000000000
     24594      8198  TIP3      H2             10.4285096015      -15.9777657466       30.5938553365  WZ4       1422            0.0000000000
     24595      8199  TIP3      OH2            11.3465296015      -12.0290757466       16.5995353365  WZ4       1423            0.0000000000
     24596      8199  TIP3      H1             11.3886096015      -12.2516857466       15.6695353365  WZ4       1423            0.0000000000
     24597      8199  TIP3      H2             12.1957396015      -11.6303657466       16.7895253365  WZ4       1423            0.0000000000
     24598      8200  TIP3      OH2             6.9192796015      -18.1532557466       17.2698653365  WZ4       1424            0.0000000000
     24599      8200  TIP3      H1              6.6657596015      -18.1340957466       18.1926753365  WZ4       1424            0.0000000000
     24600      8200  TIP3      H2              6.6624896015      -19.0247157466       16.9684853365  WZ4       1424            0.0000000000
     24601      8201  TIP3      OH2             2.6857796015      -15.4021857466       27.7051053365  WZ4       1425            0.0000000000
     24602      8201  TIP3      H1              2.0439896015      -15.4424557466       28.4141153365  WZ4       1425            0.0000000000
     24603      8201  TIP3      H2              2.7229796015      -14.4757157466       27.4674053365  WZ4       1425            0.0000000000
     24604      8202  TIP3      OH2             2.6826896015      -15.1811757466       22.6171053365  WZ4       1426            0.0000000000
     24605      8202  TIP3      H1              1.7899796015      -15.5215657466       22.5584853365  WZ4       1426            0.0000000000
     24606      8202  TIP3      H2              3.1333496015      -15.5580857466       21.8614253365  WZ4       1426            0.0000000000
     24607      8203  TIP3      OH2             8.2182396015      -14.7651457466       21.4341853365  WZ4       1427            0.0000000000
     24608      8203  TIP3      H1              7.8092696015      -13.9502857466       21.1426653365  WZ4       1427            0.0000000000
     24609      8203  TIP3      H2              8.9388596015      -14.9051357466       20.8198953365  WZ4       1427            0.0000000000
     24610      8204  TIP3      OH2             7.3203996015      -14.5895057466       32.9222553365  WZ4       1428            0.0000000000
     24611      8204  TIP3      H1              6.7577796015      -15.2943457466       33.2430353365  WZ4       1428            0.0000000000
     24612      8204  TIP3      H2              8.1467396015      -14.7103157466       33.3900153365  WZ4       1428            0.0000000000
     24613      8205  TIP3      OH2             9.2230096015      -15.3191057466       24.2481553365  WZ4       1429            0.0000000000
     24614      8205  TIP3      H1              9.0274596015      -14.7134257466       23.5332153365  WZ4       1429            0.0000000000
     24615      8205  TIP3      H2              9.4042696015      -16.1525857466       23.8137853365  WZ4       1429            0.0000000000
     24616      8206  TIP3      OH2             0.4358296015      -15.0818357466       29.5723053365  WZ4       1430            0.0000000000
     24617      8206  TIP3      H1              0.3977696015      -14.6816757466       30.4410153365  WZ4       1430            0.0000000000
     24618      8206  TIP3      H2             -0.0550603985      -15.8985957466       29.6625953365  WZ4       1430            0.0000000000
     24619      8207  TIP3      OH2             3.8015696015      -17.7076057466       16.3709053365  WZ4       1431            0.0000000000
     24620      8207  TIP3      H1              3.3706396015      -18.1525957466       17.1006453365  WZ4       1431            0.0000000000
     24621      8207  TIP3      H2              3.0834396015      -17.3359757466       15.8586553365  WZ4       1431            0.0000000000
     24622      8208  TIP3      OH2            -2.9560903985      -17.9656557466       23.4227753365  WZ4       1432            0.0000000000
     24623      8208  TIP3      H1             -2.3253203985      -17.9944457466       24.1421653365  WZ4       1432            0.0000000000
     24624      8208  TIP3      H2             -2.5066603985      -18.3907857466       22.6923653365  WZ4       1432            0.0000000000
     24625      8209  TIP3      OH2            -1.6818803985      -17.2194557466       18.8468153365  WZ4       1433            0.0000000000
     24626      8209  TIP3      H1             -1.2077103985      -16.6284657466       18.2619053365  WZ4       1433            0.0000000000
     24627      8209  TIP3      H2             -2.3992403985      -16.6891657466       19.1938253365  WZ4       1433            0.0000000000
     24628      8210  TIP3      OH2             8.4869296015      -13.6809757466       28.9193953365  WZ4       1434            0.0000000000
     24629      8210  TIP3      H1              8.8104096015      -14.3120057466       28.2764453365  WZ4       1434            0.0000000000
     24630      8210  TIP3      H2              8.0468596015      -14.2157557466       29.5801353365  WZ4       1434            0.0000000000
     24631      8211  TIP3      OH2             5.2642196015      -17.7534257466       23.7035153365  WZ4       1435            0.0000000000
     24632      8211  TIP3      H1              4.3533296015      -17.6967457466       23.9921153365  WZ4       1435            0.0000000000
     24633      8211  TIP3      H2              5.7695096015      -17.8138757466       24.5142353365  WZ4       1435            0.0000000000
     24634      8212  TIP3      OH2             0.0925596015      -16.1247957466       22.5302753365  WZ4       1436            0.0000000000
     24635      8212  TIP3      H1             -0.7966403985      -16.0252457466       22.1902353365  WZ4       1436            0.0000000000
     24636      8212  TIP3      H2              0.3890496015      -16.9664957466       22.1840653365  WZ4       1436            0.0000000000
     24637      8213  TIP3      OH2             3.7457396015      -16.1245357466       20.1867353365  WZ4       1437            0.0000000000
     24638      8213  TIP3      H1              4.6772896015      -15.9955357466       20.3650453365  WZ4       1437            0.0000000000
     24639      8213  TIP3      H2              3.5307696015      -15.4551057466       19.5372053365  WZ4       1437            0.0000000000
     24640      8214  TIP3      OH2             9.6694096015      -18.5187957466       26.9676953365  WZ4       1438            0.0000000000
     24641      8214  TIP3      H1              8.9925696015      -18.3874857466       27.6316653365  WZ4       1438            0.0000000000
     24642      8214  TIP3      H2              9.1838996015      -18.6738457466       26.1574653365  WZ4       1438            0.0000000000
     24643      8215  TIP3      OH2             2.4197596015      -14.9303157466       17.7533453365  WZ4       1439            0.0000000000
     24644      8215  TIP3      H1              1.8772696015      -15.3099357466       17.0621053365  WZ4       1439            0.0000000000
     24645      8215  TIP3      H2              3.2532496015      -14.7358457466       17.3247553365  WZ4       1439            0.0000000000
     24646      8216  TIP3      OH2            12.9569196015       -2.8472557466       33.2444553365  WZ4       1440            0.0000000000
     24647      8216  TIP3      H1             13.1567896015       -2.4230657466       32.4099853365  WZ4       1440            0.0000000000
     24648      8216  TIP3      H2             13.6122896015       -2.5034357466       33.8514953365  WZ4       1440            0.0000000000
     24649      8217  TIP3      OH2             0.5548996015      -10.3731257466       32.8525053365  WZ4       1441            0.0000000000
     24650      8217  TIP3      H1              1.2871396015      -10.1185357466       33.4139553365  WZ4       1441            0.0000000000
     24651      8217  TIP3      H2             -0.2252303985      -10.1685857466       33.3680453365  WZ4       1441            0.0000000000
     24652      8218  TIP3      OH2             6.5841896015      -14.9661257466       25.5904753365  WZ4       1442            0.0000000000
     24653      8218  TIP3      H1              7.1485296015      -15.5124657466       25.0434353365  WZ4       1442            0.0000000000
     24654      8218  TIP3      H2              6.4365296015      -15.4879357466       26.3792353365  WZ4       1442            0.0000000000
     24655      8219  TIP3      OH2             1.5861596015      -18.8295157466       22.0089553365  WZ4       1443            0.0000000000
     24656      8219  TIP3      H1              1.2691096015      -19.7319857466       21.9734953365  WZ4       1443            0.0000000000
     24657      8219  TIP3      H2              2.3675696015      -18.8277757466       21.4561153365  WZ4       1443            0.0000000000
     24658      8220  TIP3      OH2             5.2107796015      -16.5775157466       28.0045153365  WZ4       1444            0.0000000000
     24659      8220  TIP3      H1              4.3753096015      -16.1235657466       28.1147553365  WZ4       1444            0.0000000000
     24660      8220  TIP3      H2              5.7348396015      -16.3016657466       28.7565053365  WZ4       1444            0.0000000000
     24661      8221  TIP3      OH2             5.7550396015      -10.3647457466       19.6891553365  WZ4       1445            0.0000000000
     24662      8221  TIP3      H1              5.0101396015      -10.8722157466       19.3669453365  WZ4       1445            0.0000000000
     24663      8221  TIP3      H2              5.6207596015      -10.3159457466       20.6356353365  WZ4       1445            0.0000000000
     24664      8222  TIP3      OH2            12.9049296015      -11.2319257466       28.4759153365  WZ4       1446            0.0000000000
     24665      8222  TIP3      H1             13.5468096015      -10.7752957466       27.9321353365  WZ4       1446            0.0000000000
     24666      8222  TIP3      H2             12.0746196015      -11.1186857466       28.0133253365  WZ4       1446            0.0000000000
     24667      8223  TIP3      OH2             9.6527196015      -17.5507557466       17.8884153365  WZ4       1447            0.0000000000
     24668      8223  TIP3      H1              8.7141396015      -17.4391957466       17.7372953365  WZ4       1447            0.0000000000
     24669      8223  TIP3      H2              9.9499296015      -16.6940657466       18.1949853365  WZ4       1447            0.0000000000
     24670      8224  TIP3      OH2             7.2742496015      -10.1804157466       30.9260653365  WZ4       1448            0.0000000000
     24671      8224  TIP3      H1              6.9288596015      -10.5621757466       31.7330253365  WZ4       1448            0.0000000000
     24672      8224  TIP3      H2              7.0742596015       -9.2470557466       30.9973553365  WZ4       1448            0.0000000000
     24673      8225  TIP3      OH2            10.3710696015      -15.6834857466       19.5491553365  WZ4       1449            0.0000000000
     24674      8225  TIP3      H1             11.2629696015      -15.8209857466       19.8682753365  WZ4       1449            0.0000000000
     24675      8225  TIP3      H2             10.4274296015      -14.8928757466       19.0125053365  WZ4       1449            0.0000000000
     24676      8226  TIP3      OH2             0.8798696015      -11.0697457466       25.4589453365  WZ4       1450            0.0000000000
     24677      8226  TIP3      H1              1.6245896015      -11.0721757466       24.8575953365  WZ4       1450            0.0000000000
     24678      8226  TIP3      H2              0.9575296015      -11.8933657466       25.9404553365  WZ4       1450            0.0000000000
     24679      8227  TIP3      OH2             7.8804496015       -8.9063157466       18.7146153365  WZ4       1451            0.0000000000
     24680      8227  TIP3      H1              7.5852896015       -8.0795257466       19.0960953365  WZ4       1451            0.0000000000
     24681      8227  TIP3      H2              7.1774496015       -9.5256257466       18.9107553365  WZ4       1451            0.0000000000
     24682      8228  TIP3      OH2            -2.1121603985      -12.6090557466       30.7737953365  WZ4       1452            0.0000000000
     24683      8228  TIP3      H1             -1.8893003985      -13.0270957466       31.6055453365  WZ4       1452            0.0000000000
     24684      8228  TIP3      H2             -2.7141503985      -13.2215557466       30.3510753365  WZ4       1452            0.0000000000
     24685      8229  TIP3      OH2             4.9043296015      -13.0920657466       32.9867653365  WZ4       1453            0.0000000000
     24686      8229  TIP3      H1              4.6084096015      -13.2577657466       32.0916753365  WZ4       1453            0.0000000000
     24687      8229  TIP3      H2              5.8358496015      -13.3120357466       32.9761553365  WZ4       1453            0.0000000000
     24688      8230  TIP3      OH2             9.5246096015       -7.7188657466       30.8765653365  WZ4       1454            0.0000000000
     24689      8230  TIP3      H1              8.6240396015       -7.5356057466       30.6089553365  WZ4       1454            0.0000000000
     24690      8230  TIP3      H2              9.5587196015       -7.4599357466       31.7974453365  WZ4       1454            0.0000000000
     24691      8231  TIP3      OH2            15.2559396015      -15.4740757466       19.2438253365  WZ4       1455            0.0000000000
     24692      8231  TIP3      H1             14.7015696015      -15.8702757466       18.5715753365  WZ4       1455            0.0000000000
     24693      8231  TIP3      H2             15.3562996015      -14.5635557466       18.9661553365  WZ4       1455            0.0000000000
     24694      8232  TIP3      OH2            15.2191396015       -9.6739057466       32.0809753365  WZ4       1456            0.0000000000
     24695      8232  TIP3      H1             14.3679896015       -9.4355257466       31.7136153365  WZ4       1456            0.0000000000
     24696      8232  TIP3      H2             15.8094796015       -9.6905857466       31.3276853365  WZ4       1456            0.0000000000
     24697      8233  TIP3      OH2            13.5511096015       -6.6880357466       19.7090353365  WZ4       1457            0.0000000000
     24698      8233  TIP3      H1             13.1782196015       -7.5136557466       20.0180953365  WZ4       1457            0.0000000000
     24699      8233  TIP3      H2             13.8284596015       -6.8710957466       18.8113753365  WZ4       1457            0.0000000000
     24700      8234  TIP3      OH2            10.7114996015      -11.8800857466       26.7302253365  WZ4       1458            0.0000000000
     24701      8234  TIP3      H1              9.7831896015      -12.1118957466       26.7031553365  WZ4       1458            0.0000000000
     24702      8234  TIP3      H2             11.1626096015      -12.6571057466       26.4001053365  WZ4       1458            0.0000000000
     24703      8235  TIP3      OH2             3.2548096015       -7.5519257466       22.8630953365  WZ4       1459            0.0000000000
     24704      8235  TIP3      H1              3.7820296015       -6.7784857466       22.6629753365  WZ4       1459            0.0000000000
     24705      8235  TIP3      H2              2.3746596015       -7.3270057466       22.5614953365  WZ4       1459            0.0000000000
     24706      8236  TIP3      OH2            -0.9904203985      -12.6895157466       17.4503353365  WZ4       1460            0.0000000000
     24707      8236  TIP3      H1             -0.3744303985      -12.0627957466       17.8298153365  WZ4       1460            0.0000000000
     24708      8236  TIP3      H2             -1.8521603985      -12.3735357466       17.7219853365  WZ4       1460            0.0000000000
     24709      8237  TIP3      OH2             4.6820396015       -9.8889357466       22.4395253365  WZ4       1461            0.0000000000
     24710      8237  TIP3      H1              4.4410396015       -8.9634957466       22.4810553365  WZ4       1461            0.0000000000
     24711      8237  TIP3      H2              3.9413996015      -10.3478057466       22.8359153365  WZ4       1461            0.0000000000
     24712      8238  TIP3      OH2             5.1966996015       -5.7395757466       28.7546353365  WZ4       1462            0.0000000000
     24713      8238  TIP3      H1              5.5591696015       -4.8850157466       28.5210753365  WZ4       1462            0.0000000000
     24714      8238  TIP3      H2              5.7282196015       -6.0314157466       29.4952653365  WZ4       1462            0.0000000000
     24715      8239  TIP3      OH2             3.3651196015       -4.8671757466       21.9847453365  WZ4       1463            0.0000000000
     24716      8239  TIP3      H1              2.4151696015       -4.7614357466       22.0360753365  WZ4       1463            0.0000000000
     24717      8239  TIP3      H2              3.7169296015       -4.0464357466       22.3294953365  WZ4       1463            0.0000000000
     24718      8240  TIP3      OH2             8.7407796015       -9.6405057466       28.4551953365  WZ4       1464            0.0000000000
     24719      8240  TIP3      H1              8.3149096015       -9.8683357466       29.2815953365  WZ4       1464            0.0000000000
     24720      8240  TIP3      H2              9.3213596015      -10.3793257466       28.2727253365  WZ4       1464            0.0000000000
     24721      8241  TIP3      OH2            10.9436696015       -8.7114557466       17.5290953365  WZ4       1465            0.0000000000
     24722      8241  TIP3      H1             11.2969796015       -9.0914757466       18.3334453365  WZ4       1465            0.0000000000
     24723      8241  TIP3      H2              9.9950196015       -8.8049757466       17.6160253365  WZ4       1465            0.0000000000
     24724      8242  TIP3      OH2            11.3991996015       -5.0885557466       30.9246753365  WZ4       1466            0.0000000000
     24725      8242  TIP3      H1             10.7975196015       -5.6442657466       30.4293053365  WZ4       1466            0.0000000000
     24726      8242  TIP3      H2             11.6805696015       -4.4215757466       30.2984153365  WZ4       1466            0.0000000000
     24727      8243  TIP3      OH2            15.4471096015       -4.2322057466       17.7301153365  WZ4       1467            0.0000000000
     24728      8243  TIP3      H1             16.1908996015       -3.6461557466       17.5902753365  WZ4       1467            0.0000000000
     24729      8243  TIP3      H2             14.7529196015       -3.6636257466       18.0633553365  WZ4       1467            0.0000000000
     24730      8244  TIP3      OH2            -0.4782103985      -17.8557857466       30.3319353365  WZ4       1468            0.0000000000
     24731      8244  TIP3      H1             -1.3709803985      -17.5172457466       30.2643353365  WZ4       1468            0.0000000000
     24732      8244  TIP3      H2             -0.5769303985      -18.7111757466       30.7500153365  WZ4       1468            0.0000000000
     24733      8245  TIP3      OH2            11.8095996015      -10.0392557466       19.7558853365  WZ4       1469            0.0000000000
     24734      8245  TIP3      H1             11.5323596015      -10.7673257466       20.3119953365  WZ4       1469            0.0000000000
     24735      8245  TIP3      H2             12.7368996015       -9.9200557466       19.9611453365  WZ4       1469            0.0000000000
     24736      8246  TIP3      OH2            -0.8270103985       -6.0513457466       28.7668753365  WZ4       1470            0.0000000000
     24737      8246  TIP3      H1             -0.6099803985       -6.9831057466       28.7358453365  WZ4       1470            0.0000000000
     24738      8246  TIP3      H2             -0.5806603985       -5.7768457466       29.6501553365  WZ4       1470            0.0000000000
     24739      8247  TIP3      OH2             5.0344496015       -7.5998457466       15.9760953365  WZ4       1471            0.0000000000
     24740      8247  TIP3      H1              5.2734296015       -8.3480357466       15.4289853365  WZ4       1471            0.0000000000
     24741      8247  TIP3      H2              4.7655796015       -7.9876757466       16.8088753365  WZ4       1471            0.0000000000
     24742      8248  TIP3      OH2             3.9715096015       -8.0294657466       18.4323553365  WZ4       1472            0.0000000000
     24743      8248  TIP3      H1              4.1183096015       -8.5494857466       19.2224453365  WZ4       1472            0.0000000000
     24744      8248  TIP3      H2              3.9686796015       -7.1227057466       18.7389453365  WZ4       1472            0.0000000000
     24745      8249  TIP3      OH2             0.4246196015      -10.7771357466       18.9428953365  WZ4       1473            0.0000000000
     24746      8249  TIP3      H1             -0.2614503985      -10.4248857466       19.5098653365  WZ4       1473            0.0000000000
     24747      8249  TIP3      H2              0.9474096015      -10.0141757466       18.6963253365  WZ4       1473            0.0000000000
     24748      8250  TIP3      OH2             8.2561296015      -18.1147557466       29.2217953365  WZ4       1474            0.0000000000
     24749      8250  TIP3      H1              8.9549196015      -18.0408857466       29.8717653365  WZ4       1474            0.0000000000
     24750      8250  TIP3      H2              7.8752696015      -18.9792557466       29.3760853365  WZ4       1474            0.0000000000
     24751      8251  TIP3      OH2             9.0406196015      -18.4625857466       20.3190253365  WZ4       1475            0.0000000000
     24752      8251  TIP3      H1              9.2604496015      -17.9910457466       19.5155653365  WZ4       1475            0.0000000000
     24753      8251  TIP3      H2              9.5990196015      -18.0683257466       20.9890853365  WZ4       1475            0.0000000000
     24754      8252  TIP3      OH2             6.7092296015       -6.3321057466       19.1817753365  WZ4       1476            0.0000000000
     24755      8252  TIP3      H1              5.8928396015       -5.8351357466       19.2342053365  WZ4       1476            0.0000000000
     24756      8252  TIP3      H2              7.2388596015       -5.8567557466       18.5416553365  WZ4       1476            0.0000000000
     24757      8253  TIP3      OH2             6.2406096015      -16.7347057466       21.1538653365  WZ4       1477            0.0000000000
     24758      8253  TIP3      H1              7.0528696015      -16.2303857466       21.2000353365  WZ4       1477            0.0000000000
     24759      8253  TIP3      H2              5.9959096015      -16.8797357466       22.0678253365  WZ4       1477            0.0000000000
     24760      8254  TIP3      OH2             6.7762496015      -15.7484357466       30.3385253365  WZ4       1478            0.0000000000
     24761      8254  TIP3      H1              6.8952796015      -15.1748957466       31.0955653365  WZ4       1478            0.0000000000
     24762      8254  TIP3      H2              7.4317096015      -16.4364957466       30.4533053365  WZ4       1478            0.0000000000
     24763      8255  TIP3      OH2             7.1242796015      -19.6534057466       22.0919753365  WZ4       1479            0.0000000000
     24764      8255  TIP3      H1              6.7776296015      -19.0363457466       22.7364053365  WZ4       1479            0.0000000000
     24765      8255  TIP3      H2              7.7829696015      -19.1528357466       21.6105253365  WZ4       1479            0.0000000000
     24766      8256  TIP3      OH2             4.0475396015       -5.2883857466       19.1634653365  WZ4       1480            0.0000000000
     24767      8256  TIP3      H1              4.2084096015       -4.4886357466       18.6627253365  WZ4       1480            0.0000000000
     24768      8256  TIP3      H2              3.8503196015       -4.9817857466       20.0485253365  WZ4       1480            0.0000000000
     24769      8257  TIP3      OH2             2.7819796015      -18.5904657466       18.7792253365  WZ4       1481            0.0000000000
     24770      8257  TIP3      H1              2.6984596015      -17.7021557466       19.1258653365  WZ4       1481            0.0000000000
     24771      8257  TIP3      H2              3.6720096015      -18.8557957466       19.0109053365  WZ4       1481            0.0000000000
     24772      8258  TIP3      OH2            12.9808296015      -17.8414057466       31.1734953365  WZ4       1482            0.0000000000
     24773      8258  TIP3      H1             12.0644096015      -17.5792357466       31.0858653365  WZ4       1482            0.0000000000
     24774      8258  TIP3      H2             13.3163296015      -17.8445057466       30.2770253365  WZ4       1482            0.0000000000
     24775      8259  TIP3      OH2            11.5829296015      -14.0913057466       25.2692253365  WZ4       1483            0.0000000000
     24776      8259  TIP3      H1             10.7853696015      -14.5062857466       24.9407253365  WZ4       1483            0.0000000000
     24777      8259  TIP3      H2             12.0280396015      -14.7819357466       25.7602753365  WZ4       1483            0.0000000000
     24778      8260  TIP3      OH2             1.0405096015       -8.1632457466       17.8396753365  WZ4       1484            0.0000000000
     24779      8260  TIP3      H1              1.6326596015       -7.4637657466       18.1159153365  WZ4       1484            0.0000000000
     24780      8260  TIP3      H2              1.4998096015       -8.5962957466       17.1201353365  WZ4       1484            0.0000000000
     24781      8261  TIP3      OH2            -0.6435703985      -15.4989457466       16.9556153365  WZ4       1485            0.0000000000
     24782      8261  TIP3      H1             -0.6883103985      -14.5596357466       17.1343153365  WZ4       1485            0.0000000000
     24783      8261  TIP3      H2             -1.5312503985      -15.7344557466       16.6858253365  WZ4       1485            0.0000000000
     24784      8262  TIP3      OH2            12.6693896015       -4.8350557466       26.8915753365  WZ4       1486            0.0000000000
     24785      8262  TIP3      H1             12.5138196015       -4.1566157466       26.2345053365  WZ4       1486            0.0000000000
     24786      8262  TIP3      H2             13.6020296015       -4.7631257466       27.0946353365  WZ4       1486            0.0000000000
     24787      8263  TIP3      OH2             0.1646296015      -20.7172857466       25.6287153365  WZ4       1487            0.0000000000
     24788      8263  TIP3      H1             -0.0643903985      -20.6580357466       24.7012153365  WZ4       1487            0.0000000000
     24789      8263  TIP3      H2             -0.2780303985      -21.5087357466       25.9351253365  WZ4       1487            0.0000000000
     24790      8264  TIP3      OH2            -0.9050403985       -6.7765757466       21.7892953365  WZ4       1488            0.0000000000
     24791      8264  TIP3      H1             -1.7371803985       -6.3043057466       21.8164353365  WZ4       1488            0.0000000000
     24792      8264  TIP3      H2             -0.3592103985       -6.2668157466       21.1906053365  WZ4       1488            0.0000000000
     24793      8265  TIP3      OH2            -1.6166703985       -4.1642057466       33.1190953365  WZ4       1489            0.0000000000
     24794      8265  TIP3      H1             -1.0764503985       -4.3808057466       33.8790153365  WZ4       1489            0.0000000000
     24795      8265  TIP3      H2             -2.0978703985       -4.9696057466       32.9293453365  WZ4       1489            0.0000000000
     24796      8266  TIP3      OH2             2.9806696015       -5.2447657466       34.7395153365  WZ4       1490            0.0000000000
     24797      8266  TIP3      H1              3.7483896015       -5.7036857466       35.0804353365  WZ4       1490            0.0000000000
     24798      8266  TIP3      H2              2.9592896015       -5.4707857466       33.8096353365  WZ4       1490            0.0000000000
     24799      8267  TIP3      OH2             7.0726296015       -5.7367057466       16.1146953365  WZ4       1491            0.0000000000
     24800      8267  TIP3      H1              6.4287296015       -6.3678457466       16.4360653365  WZ4       1491            0.0000000000
     24801      8267  TIP3      H2              7.8344596015       -6.2679057466       15.8830453365  WZ4       1491            0.0000000000
     24802      8268  TIP3      OH2             9.5575396015       -6.8646557466       33.4686653365  WZ4       1492            0.0000000000
     24803      8268  TIP3      H1              9.2064896015       -7.7213557466       33.7117053365  WZ4       1492            0.0000000000
     24804      8268  TIP3      H2             10.2838596015       -6.7219857466       34.0755653365  WZ4       1492            0.0000000000
     24805      8269  TIP3      OH2            11.6769196015       -5.9197157466       16.3484953365  WZ4       1493            0.0000000000
     24806      8269  TIP3      H1             11.9599596015       -6.7141957466       16.8011853365  WZ4       1493            0.0000000000
     24807      8269  TIP3      H2             12.4167096015       -5.6866157466       15.7876053365  WZ4       1493            0.0000000000
     24808      8270  TIP3      OH2            -1.7097203985      -10.3537957466       34.0735253365  WZ4       1494            0.0000000000
     24809      8270  TIP3      H1             -1.5656703985      -11.2557257466       33.7871953365  WZ4       1494            0.0000000000
     24810      8270  TIP3      H2             -2.4819803985      -10.0675857466       33.5857553365  WZ4       1494            0.0000000000
     24811      8271  TIP3      OH2             2.6316496015      -10.0102257466       16.2059853365  WZ4       1495            0.0000000000
     24812      8271  TIP3      H1              2.6960596015      -10.8042657466       16.7366253365  WZ4       1495            0.0000000000
     24813      8271  TIP3      H2              3.2845696015      -10.1289457466       15.5161853365  WZ4       1495            0.0000000000
     24814      8272  TIP3      OH2             4.9458896015      -10.3839857466       33.5061653365  WZ4       1496            0.0000000000
     24815      8272  TIP3      H1              4.6172696015      -10.1131757466       32.6489053365  WZ4       1496            0.0000000000
     24816      8272  TIP3      H2              5.0977096015      -11.3250057466       33.4186653365  WZ4       1496            0.0000000000
     24817      8273  TIP3      OH2             7.9839896015       -8.9630557466       15.9417853365  WZ4       1497            0.0000000000
     24818      8273  TIP3      H1              7.7153996015       -8.7828457466       16.8426753365  WZ4       1497            0.0000000000
     24819      8273  TIP3      H2              7.7775496015       -9.8884357466       15.8103653365  WZ4       1497            0.0000000000
     24820      8274  TIP3      OH2            10.6804096015      -10.4682557466       30.8893953365  WZ4       1498            0.0000000000
     24821      8274  TIP3      H1             11.4258896015       -9.8798857466       30.7697953365  WZ4       1498            0.0000000000
     24822      8274  TIP3      H2              9.9230896015       -9.8862857466       30.9527053365  WZ4       1498            0.0000000000
     24823      8275  TIP3      OH2            -0.8770703985      -13.1534657466       33.4934553365  WZ4       1499            0.0000000000
     24824      8275  TIP3      H1             -0.4689503985      -14.0108057466       33.3725153365  WZ4       1499            0.0000000000
     24825      8275  TIP3      H2             -1.1373103985      -13.1393357466       34.4144853365  WZ4       1499            0.0000000000
     24826      8276  TIP3      OH2             3.7810296015      -12.0376057466       18.5117853365  WZ4       1500            0.0000000000
     24827      8276  TIP3      H1              3.3212296015      -12.5217757466       19.1976353365  WZ4       1500            0.0000000000
     24828      8276  TIP3      H2              4.0358996015      -12.7060657466       17.8758353365  WZ4       1500            0.0000000000
     24829      8277  TIP3      OH2             3.0699596015      -14.1448957466       30.8677453365  WZ4       1501            0.0000000000
     24830      8277  TIP3      H1              2.4515696015      -13.4702357466       31.1482153365  WZ4       1501            0.0000000000
     24831      8277  TIP3      H2              3.4140796015      -13.8235057466       30.0343653365  WZ4       1501            0.0000000000
     24832      8278  TIP3      OH2             4.8520696015      -13.7944257466       16.7741053365  WZ4       1502            0.0000000000
     24833      8278  TIP3      H1              4.6715696015      -13.9493057466       15.8469353365  WZ4       1502            0.0000000000
     24834      8278  TIP3      H2              5.8021196015      -13.6865557466       16.8188953365  WZ4       1502            0.0000000000
     24835      8279  TIP3      OH2             8.0897796015      -11.6733657466       34.1452253365  WZ4       1503            0.0000000000
     24836      8279  TIP3      H1              9.0428996015      -11.5894557466       34.1178253365  WZ4       1503            0.0000000000
     24837      8279  TIP3      H2              7.9292396015      -12.3851857466       34.7647153365  WZ4       1503            0.0000000000
     24838      8280  TIP3      OH2            14.2418996015      -11.4400057466       16.2199153365  WZ4       1504            0.0000000000
     24839      8280  TIP3      H1             13.9683796015      -11.8644557466       15.4067453365  WZ4       1504            0.0000000000
     24840      8280  TIP3      H2             14.2813096015      -10.5085557466       16.0029553365  WZ4       1504            0.0000000000
     24841      8281  TIP3      OH2             3.4093296015      -16.7898157466       31.9500553365  WZ4       1505            0.0000000000
     24842      8281  TIP3      H1              3.5594196015      -17.5186857466       31.3480253365  WZ4       1505            0.0000000000
     24843      8281  TIP3      H2              3.4115696015      -16.0126457466       31.3912753365  WZ4       1505            0.0000000000
     24844      8282  TIP3      OH2             3.8218996015      -18.4202357466       29.4427953365  WZ4       1506            0.0000000000
     24845      8282  TIP3      H1              4.3576496015      -17.9685657466       28.7907253365  WZ4       1506            0.0000000000
     24846      8282  TIP3      H2              2.9698596015      -18.5282557466       29.0202053365  WZ4       1506            0.0000000000
     24847      8283  TIP3      OH2             5.4037396015      -12.9806157466       29.6823153365  WZ4       1507            0.0000000000
     24848      8283  TIP3      H1              6.1542196015      -13.1368657466       29.1090953365  WZ4       1507            0.0000000000
     24849      8283  TIP3      H2              5.0645696015      -12.1289557466       29.4068653365  WZ4       1507            0.0000000000
     24850      8284  TIP3      OH2             9.8193596015      -15.1654357466       34.7108453365  WZ4       1508            0.0000000000
     24851      8284  TIP3      H1             10.0114896015      -16.0964957466       34.5992953365  WZ4       1508            0.0000000000
     24852      8284  TIP3      H2             10.6769896015      -14.7404857466       34.7003853365  WZ4       1508            0.0000000000
     24853      8285  TIP3      OH2            11.1360796015      -12.3769157466       32.7881153365  WZ4       1509            0.0000000000
     24854      8285  TIP3      H1             10.8545796015      -11.6674557466       32.2104953365  WZ4       1509            0.0000000000
     24855      8285  TIP3      H2             12.0785096015      -12.4496157466       32.6372353365  WZ4       1509            0.0000000000
     24856      8286  TIP3      OH2             1.8879596015      -15.5914657466       33.8616153365  WZ4       1510            0.0000000000
     24857      8286  TIP3      H1              1.1208596015      -16.1239857466       33.6513753365  WZ4       1510            0.0000000000
     24858      8286  TIP3      H2              2.5668596015      -15.9014257466       33.2622453365  WZ4       1510            0.0000000000
     24859      8287  TIP3      OH2             4.6274496015      -20.9636657466       29.8741553365  WZ4       1511            0.0000000000
     24860      8287  TIP3      H1              4.5294096015      -20.0173457466       29.7687753365  WZ4       1511            0.0000000000
     24861      8287  TIP3      H2              3.8850696015      -21.3362857466       29.3985053365  WZ4       1511            0.0000000000
     24862      8288  TIP3      OH2             5.8914996015      -16.6421257466       33.4379953365  WZ4       1512            0.0000000000
     24863      8288  TIP3      H1              5.6560396015      -16.8614557466       34.3394853365  WZ4       1512            0.0000000000
     24864      8288  TIP3      H2              5.1081896015      -16.8490057466       32.9282453365  WZ4       1512            0.0000000000
     24865      8289  TIP3      OH2             8.6071596015      -17.5147757466       32.5133453365  WZ4       1513            0.0000000000
     24866      8289  TIP3      H1              7.6596996015      -17.4828057466       32.6456753365  WZ4       1513            0.0000000000
     24867      8289  TIP3      H2              8.9198296015      -18.1400657466       33.1671653365  WZ4       1513            0.0000000000
     24868      8290  TIP3      OH2            10.2413096015      -18.8806657466       34.5185353365  WZ4       1514            0.0000000000
     24869      8290  TIP3      H1             10.1444896015      -19.8329357466       34.5127253365  WZ4       1514            0.0000000000
     24870      8290  TIP3      H2              9.9196196015      -18.6119857466       35.3790853365  WZ4       1514            0.0000000000
     24871      8291  TIP3      OH2             0.0682396015      -17.6710857466       33.5660853365  WZ4       1515            0.0000000000
     24872      8291  TIP3      H1              0.2799796015      -18.3774757466       32.9558353365  WZ4       1515            0.0000000000
     24873      8291  TIP3      H2             -0.0430103985      -18.1084857466       34.4102053365  WZ4       1515            0.0000000000
     24874      8292  TIP3      OH2             4.8492596015      -21.6699257466       32.5454353365  WZ4       1516            0.0000000000
     24875      8292  TIP3      H1              5.5610996015      -22.3097057466       32.5313453365  WZ4       1516            0.0000000000
     24876      8292  TIP3      H2              4.7482996015      -21.4030957466       31.6317453365  WZ4       1516            0.0000000000
     24877      8293  TIP3      OH2             5.2030096015      -19.9870857466       34.5990653365  WZ4       1517            0.0000000000
     24878      8293  TIP3      H1              5.0712296015      -20.4627057466       33.7789153365  WZ4       1517            0.0000000000
     24879      8293  TIP3      H2              4.6037496015      -19.2427257466       34.5437753365  WZ4       1517            0.0000000000
     24880      8294  TIP3      OH2             4.7492396015       -3.1040557466       17.7754653365  WZ4       1518            0.0000000000
     24881      8294  TIP3      H1              5.6823096015       -2.9461857466       17.9193053365  WZ4       1518            0.0000000000
     24882      8294  TIP3      H2              4.4851196015       -2.4287557466       17.1506153365  WZ4       1518            0.0000000000
     24883      8295  TIP3      OH2            -1.6822703985       -8.4676757466       17.2582753365  WZ4       1519            0.0000000000
     24884      8295  TIP3      H1             -0.7683503985       -8.3887857466       17.5316653365  WZ4       1519            0.0000000000
     24885      8295  TIP3      H2             -1.6749603985       -9.1547157466       16.5918353365  WZ4       1519            0.0000000000
     24886      8296  TIP3      OH2            -3.0332103985       -3.0748257466       22.3356653365  WZ4       1520            0.0000000000
     24887      8296  TIP3      H1             -3.6805003985       -3.5366557466       21.8027853365  WZ4       1520            0.0000000000
     24888      8296  TIP3      H2             -2.6787503985       -3.7464957466       22.9182853365  WZ4       1520            0.0000000000
     24889      8297  TIP3      OH2            -2.1632903985       -4.9941257466       24.1402853365  WZ4       1521            0.0000000000
     24890      8297  TIP3      H1             -2.4976103985       -5.8743957466       24.3123053365  WZ4       1521            0.0000000000
     24891      8297  TIP3      H2             -1.9410503985       -4.6486257466       25.0048453365  WZ4       1521            0.0000000000
     24892      8298  TIP3      OH2            15.3851896015       -4.1844857466       27.1207653365  WZ4       1522            0.0000000000
     24893      8298  TIP3      H1             15.3638596015       -3.9996457466       28.0597053365  WZ4       1522            0.0000000000
     24894      8298  TIP3      H2             16.0758096015       -3.6160857466       26.7799053365  WZ4       1522            0.0000000000
     24895      8299  TIP3      OH2            14.9484796015       -4.6173757466       30.0426753365  WZ4       1523            0.0000000000
     24896      8299  TIP3      H1             14.4613496015       -5.3529657466       29.6714153365  WZ4       1523            0.0000000000
     24897      8299  TIP3      H2             15.4977496015       -5.0109857466       30.7206153365  WZ4       1523            0.0000000000
     24898      8300  TIP3      OH2            13.3992096015       -8.8275657466       34.6807053365  WZ4       1524            0.0000000000
     24899      8300  TIP3      H1             12.5333196015       -8.9325957466       35.0749353365  WZ4       1524            0.0000000000
     24900      8300  TIP3      H2             13.7757996015       -8.0692357466       35.1271753365  WZ4       1524            0.0000000000
     24901      8301  TIP3      OH2            14.7001796015      -10.5711957466       20.1949553365  WZ4       1525            0.0000000000
     24902      8301  TIP3      H1             15.5503196015      -10.1501057466       20.3221153365  WZ4       1525            0.0000000000
     24903      8301  TIP3      H2             14.7056896015      -11.3111857466       20.8020953365  WZ4       1525            0.0000000000
     24904      8302  TIP3      OH2            15.0947396015      -12.5174557466       22.0185253365  WZ4       1526            0.0000000000
     24905      8302  TIP3      H1             14.3681996015      -12.9971957466       22.4162853365  WZ4       1526            0.0000000000
     24906      8302  TIP3      H2             15.6760696015      -12.3119857466       22.7506853365  WZ4       1526            0.0000000000
     24907      8303  TIP3      OH2            14.8538596015       -9.7327057466       26.9662853365  WZ4       1527            0.0000000000
     24908      8303  TIP3      H1             15.6872796015      -10.1107057466       26.6856453365  WZ4       1527            0.0000000000
     24909      8303  TIP3      H2             14.9658896015       -8.7895857466       26.8471953365  WZ4       1527            0.0000000000
     24910      8304  TIP3      OH2            13.3400896015       -6.8549557466       29.2731253365  WZ4       1528            0.0000000000
     24911      8304  TIP3      H1             12.6926196015       -6.5298057466       29.8986453365  WZ4       1528            0.0000000000
     24912      8304  TIP3      H2             12.8224896015       -7.2951857466       28.5989553365  WZ4       1528            0.0000000000
     24913      8305  TIP3      OH2            15.3630496015      -12.6166057466       18.4096553365  WZ4       1529            0.0000000000
     24914      8305  TIP3      H1             14.8411596015      -12.2601957466       17.6907453365  WZ4       1529            0.0000000000
     24915      8305  TIP3      H2             15.3299696015      -11.9418257466       19.0877453365  WZ4       1529            0.0000000000
     24916      8306  TIP3      OH2            13.7119496015      -15.3770457466       16.9603653365  WZ4       1530            0.0000000000
     24917      8306  TIP3      H1             13.8083896015      -14.7103457466       16.2803353365  WZ4       1530            0.0000000000
     24918      8306  TIP3      H2             13.5719096015      -16.1924157466       16.4789153365  WZ4       1530            0.0000000000
     24919      8307  TIP3      OH2            12.8814196015      -13.9968057466       22.5813953365  WZ4       1531            0.0000000000
     24920      8307  TIP3      H1             12.7312996015      -14.9419457466       22.5611753365  WZ4       1531            0.0000000000
     24921      8307  TIP3      H2             12.5278696015      -13.7156657466       23.4253053365  WZ4       1531            0.0000000000
     24922      8308  TIP3      OH2            -2.0833403985      -11.9185857466       26.5917753365  WZ4       1532            0.0000000000
     24923      8308  TIP3      H1             -1.8990503985      -12.0004157466       25.6560653365  WZ4       1532            0.0000000000
     24924      8308  TIP3      H2             -1.2340503985      -12.0428857466       27.0154153365  WZ4       1532            0.0000000000
     24925      8309  TIP3      OH2            13.7377096015      -12.0264757466       32.2202253365  WZ4       1533            0.0000000000
     24926      8309  TIP3      H1             14.3204396015      -12.7612457466       32.4119453365  WZ4       1533            0.0000000000
     24927      8309  TIP3      H2             14.3016396015      -11.2544457466       32.2668053365  WZ4       1533            0.0000000000
     24928      8310  TIP3      OH2            15.2344196015      -14.1238957466       32.9047653365  WZ4       1534            0.0000000000
     24929      8310  TIP3      H1             14.3710896015      -14.5026857466       32.7392353365  WZ4       1534            0.0000000000
     24930      8310  TIP3      H2             15.8387896015      -14.8624157466       32.8303453365  WZ4       1534            0.0000000000
     24931      8311  TIP3      OH2            12.9593296015      -17.9690657466       16.0779153365  WZ4       1535            0.0000000000
     24932      8311  TIP3      H1             13.5699096015      -18.3403857466       16.7147353365  WZ4       1535            0.0000000000
     24933      8311  TIP3      H2             12.1224796015      -18.3903757466       16.2739153365  WZ4       1535            0.0000000000
     24934      8312  TIP3      OH2            12.5918996015      -16.4142257466       21.0439053365  WZ4       1536            0.0000000000
     24935      8312  TIP3      H1             12.8716096015      -17.3211857466       21.1680753365  WZ4       1536            0.0000000000
     24936      8312  TIP3      H2             13.3510696015      -15.9800757466       20.6548253365  WZ4       1536            0.0000000000
     24937      8313  TIP3      OH2            13.2037296015      -15.8324857466       26.4797953365  WZ4       1537            0.0000000000
     24938      8313  TIP3      H1             14.1365296015      -15.6204957466       26.4453953365  WZ4       1537            0.0000000000
     24939      8313  TIP3      H2             12.9684796015      -15.7312757466       27.4020953365  WZ4       1537            0.0000000000
     24940      8314  TIP3      OH2            13.2329196015      -15.0959557466       29.2557353365  WZ4       1538            0.0000000000
     24941      8314  TIP3      H1             12.3900496015      -14.8279157466       29.6217153365  WZ4       1538            0.0000000000
     24942      8314  TIP3      H2             13.6753496015      -14.2737657466       29.0448453365  WZ4       1538            0.0000000000
     24943      8315  TIP3      OH2            -2.4858603985      -16.6480857466       32.7326553365  WZ4       1539            0.0000000000
     24944      8315  TIP3      H1             -1.5663703985      -16.7702557466       32.9689653365  WZ4       1539            0.0000000000
     24945      8315  TIP3      H2             -2.9354103985      -17.3981157466       33.1220053365  WZ4       1539            0.0000000000
     24946      8316  TIP3      OH2            13.2053796015      -19.1512957466       21.0921053365  WZ4       1541            0.0000000000
     24947      8316  TIP3      H1             13.3878796015      -19.6001457466       21.9176053365  WZ4       1541            0.0000000000
     24948      8316  TIP3      H2             12.6056696015      -19.7358557466       20.6285653365  WZ4       1541            0.0000000000
     24949      8317  TIP3      OH2            -1.2646103985      -18.3359257466       25.6239453365  WZ4       1542            0.0000000000
     24950      8317  TIP3      H1             -0.8194503985      -19.1276757466       25.9259153365  WZ4       1542            0.0000000000
     24951      8317  TIP3      H2             -0.7983103985      -17.6194057466       26.0545053365  WZ4       1542            0.0000000000
     24952      8318  TIP3      OH2            -2.9605803985      -15.3366257466       26.6929653365  WZ4       1543            0.0000000000
     24953      8318  TIP3      H1             -2.4686003985      -15.5575757466       25.9021653365  WZ4       1543            0.0000000000
     24954      8318  TIP3      H2             -2.5984903985      -14.4962857466       26.9739153365  WZ4       1543            0.0000000000
     24955      8319  TIP3      OH2            15.0357996015      -19.0064757466       32.9583653365  WZ4       1544            0.0000000000
     24956      8319  TIP3      H1             14.1183696015      -18.7357657466       32.9227153365  WZ4       1544            0.0000000000
     24957      8319  TIP3      H2             15.1587396015      -19.5416357466       32.1743353365  WZ4       1544            0.0000000000
     24958      8320  TIP3      OH2            15.0719996015      -19.0834857466       17.6201353365  WZ4       1545            0.0000000000
     24959      8320  TIP3      H1             15.4842596015      -19.8049157466       17.1449353365  WZ4       1545            0.0000000000
     24960      8320  TIP3      H2             15.7536496015      -18.4140257466       17.6785653365  WZ4       1545            0.0000000000
     24961      8321  TIP3      OH2            -2.6469303985      -19.0787157466       20.7472053365  WZ4       1546            0.0000000000
     24962      8321  TIP3      H1             -3.5720903985      -18.8700557466       20.6177553365  WZ4       1546            0.0000000000
     24963      8321  TIP3      H2             -2.1929403985      -18.5946357466       20.0574353365  WZ4       1546            0.0000000000
     24964      8322  TIP3      OH2            12.1237896015       -4.0945457466       22.6929453365  WZ4       1547            0.0000000000
     24965      8322  TIP3      H1             12.7760796015       -4.4423357466       22.0848553365  WZ4       1547            0.0000000000
     24966      8322  TIP3      H2             12.6341696015       -3.6062257466       23.3389153365  WZ4       1547            0.0000000000
     24967      8323  TIP3      OH2            -2.6833903985      -20.3408157466       29.0914553365  WZ4       1548            0.0000000000
     24968      8323  TIP3      H1             -3.3483403985      -20.5867857466       29.7345453365  WZ4       1548            0.0000000000
     24969      8323  TIP3      H2             -3.1262603985      -19.7187757466       28.5142553365  WZ4       1548            0.0000000000
     24970      8324  TIP3      OH2            -0.4914603985       -7.1654057466       33.2360353365  WZ4       1549            0.0000000000
     24971      8324  TIP3      H1             -1.3122103985       -6.9907557466       32.7755053365  WZ4       1549            0.0000000000
     24972      8324  TIP3      H2             -0.7436803985       -7.2389357466       34.1564753365  WZ4       1549            0.0000000000
     24973      8325  TIP3      OH2             2.4628296015       -6.1912857466       29.4944353365  WZ4       1550            0.0000000000
     24974      8325  TIP3      H1              2.0379396015       -5.3814357466       29.2118953365  WZ4       1550            0.0000000000
     24975      8325  TIP3      H2              3.3671096015       -6.1058757466       29.1924153365  WZ4       1550            0.0000000000
     24976      8326  TIP3      OH2             6.7739696015       -4.7922857466       32.4538053365  WZ4       1551            0.0000000000
     24977      8326  TIP3      H1              6.9587196015       -5.1256757466       33.3318353365  WZ4       1551            0.0000000000
     24978      8326  TIP3      H2              7.6204196015       -4.4824257466       32.1317253365  WZ4       1551            0.0000000000
     24979      8327  TIP3      OH2             9.1190096015       -3.5063957466       31.6979453365  WZ4       1552            0.0000000000
     24980      8327  TIP3      H1              9.7958996015       -4.1391657466       31.4578653365  WZ4       1552            0.0000000000
     24981      8327  TIP3      H2              9.4408896015       -3.1053457466       32.5052753365  WZ4       1552            0.0000000000
     24982      8328  TIP3      OH2            14.0363896015      -20.9168457466       30.7774453365  WZ4       1553            0.0000000000
     24983      8328  TIP3      H1             13.2237396015      -20.5918157466       30.3899153365  WZ4       1553            0.0000000000
     24984      8328  TIP3      H2             14.2692396015      -21.6769957466       30.2443553365  WZ4       1553            0.0000000000
     24985      8329  TIP3      OH2            -0.1355003985       -2.9348957466       29.5419653365  WZ4       1554            0.0000000000
     24986      8329  TIP3      H1             -0.8558603985       -2.4947957466       29.0907353365  WZ4       1554            0.0000000000
     24987      8329  TIP3      H2             -0.5011003985       -3.1854257466       30.3903653365  WZ4       1554            0.0000000000
     24988      8330  TIP3      OH2             2.3317596015       -3.3345057466       28.5716853365  WZ4       1555            0.0000000000
     24989      8330  TIP3      H1              1.4669796015       -3.2626557466       28.9756953365  WZ4       1555            0.0000000000
     24990      8330  TIP3      H2              2.2766596015       -2.7877757466       27.7879353365  WZ4       1555            0.0000000000
     24991      8331  TIP3      OH2             7.0423196015       -3.4466157466       27.7472853365  WZ4       1556            0.0000000000
     24992      8331  TIP3      H1              6.5857196015       -2.9176457466       27.0931253365  WZ4       1556            0.0000000000
     24993      8331  TIP3      H2              7.2051196015       -2.8434757466       28.4725153365  WZ4       1556            0.0000000000
     24994      8332  TIP3      OH2             9.3699496015       -4.5686557466       28.6923153365  WZ4       1557            0.0000000000
     24995      8332  TIP3      H1              8.4653196015       -4.4036357466       28.4265253365  WZ4       1557            0.0000000000
     24996      8332  TIP3      H2              9.7988096015       -3.7154357466       28.6266553365  WZ4       1557            0.0000000000
     24997      8333  TIP3      OH2            11.9741396015       -2.9987457466       28.9870953365  WZ4       1558            0.0000000000
     24998      8333  TIP3      H1             11.7923396015       -2.0828557466       28.7765853365  WZ4       1558            0.0000000000
     24999      8333  TIP3      H2             12.1509196015       -3.4090357466       28.1405553365  WZ4       1558            0.0000000000
     25000      8334  TIP3      OH2            -0.7206903985       -4.3116457466       26.4521453365  WZ4       1559            0.0000000000
     25001      8334  TIP3      H1             -0.7390903985       -4.7371357466       27.3093753365  WZ4       1559            0.0000000000
     25002      8334  TIP3      H2              0.0840996015       -4.6301457466       26.0433653365  WZ4       1559            0.0000000000
     25003      8335  TIP3      OH2             1.4206196015       -5.6017757466       25.1071353365  WZ4       1560            0.0000000000
     25004      8335  TIP3      H1              1.2016896015       -6.5180357466       25.2767353365  WZ4       1560            0.0000000000
     25005      8335  TIP3      H2              2.2448396015       -5.4617357466       25.5732753365  WZ4       1560            0.0000000000
     25006      8336  TIP3      OH2             3.9578696015       -5.1318457466       25.9559353365  WZ4       1561            0.0000000000
     25007      8336  TIP3      H1              4.1704396015       -6.0199457466       25.6690253365  WZ4       1561            0.0000000000
     25008      8336  TIP3      H2              4.0223796015       -5.1660757466       26.9103353365  WZ4       1561            0.0000000000
     25009      8337  TIP3      OH2             7.4662396015      -19.4677857466       25.1002653365  WZ4       1562            0.0000000000
     25010      8337  TIP3      H1              6.7919196015      -20.0972257466       25.3558453365  WZ4       1562            0.0000000000
     25011      8337  TIP3      H2              8.0301596015      -19.9518957466       24.4970553365  WZ4       1562            0.0000000000
     25012      8338  TIP3      OH2            12.6089596015      -21.3603857466       25.2129753365  WZ4       1563            0.0000000000
     25013      8338  TIP3      H1             13.2127196015      -20.8128457466       24.7110753365  WZ4       1563            0.0000000000
     25014      8338  TIP3      H2             11.7391596015      -21.0413457466       24.9723853365  WZ4       1563            0.0000000000
     25015      8339  TIP3      OH2            14.3359996015      -20.2215157466       23.5460653365  WZ4       1564            0.0000000000
     25016      8339  TIP3      H1             14.9477496015      -20.7359457466       23.0194253365  WZ4       1564            0.0000000000
     25017      8339  TIP3      H2             14.7183396015      -19.3443057466       23.5695053365  WZ4       1564            0.0000000000
     25018      8340  TIP3      OH2            -0.2070103985      -20.8337557466       22.9222553365  WZ4       1565            0.0000000000
     25019      8340  TIP3      H1             -0.9840303985      -21.0682657466       22.4148453365  WZ4       1565            0.0000000000
     25020      8340  TIP3      H2              0.3233496015      -21.6305457466       22.9310553365  WZ4       1565            0.0000000000
     25021      8341  TIP3      OH2            -1.3706703985      -21.0359457466       18.7258653365  WZ4       1566            0.0000000000
     25022      8341  TIP3      H1             -0.9316003985      -20.4248957466       18.1342153365  WZ4       1566            0.0000000000
     25023      8341  TIP3      H2             -2.0044303985      -20.4975357466       19.1998653365  WZ4       1566            0.0000000000
     25024      8342  TIP3      OH2             4.3722496015      -20.9070457466       22.7355653365  WZ4       1567            0.0000000000
     25025      8342  TIP3      H1              5.2465896015      -20.5186157466       22.7059953365  WZ4       1567            0.0000000000
     25026      8342  TIP3      H2              4.2363296015      -21.1222657466       23.6582853365  WZ4       1567            0.0000000000
     25027      8343  TIP3      OH2             9.9290896015      -20.8770657466       24.3847353365  WZ4       1568            0.0000000000
     25028      8343  TIP3      H1             10.0052496015      -20.7819057466       23.4353353365  WZ4       1568            0.0000000000
     25029      8343  TIP3      H2              9.6540096015      -21.7847757466       24.5136453365  WZ4       1568            0.0000000000
     25030      8344  TIP3      OH2            11.2823496015      -20.8512857466       20.0772353365  WZ4       1569            0.0000000000
     25031      8344  TIP3      H1             10.5794596015      -20.2363657466       19.8673753365  WZ4       1569            0.0000000000
     25032      8344  TIP3      H2             10.8374896015      -21.6886157466       20.2083253365  WZ4       1569            0.0000000000
     25033      8345  TIP3      OH2            -1.4697203985       -5.0877257466       19.6233753365  WZ4       1570            0.0000000000
     25034      8345  TIP3      H1             -2.1547303985       -5.1258357466       18.9558853365  WZ4       1570            0.0000000000
     25035      8345  TIP3      H2             -1.4660003985       -4.1749657466       19.9115853365  WZ4       1570            0.0000000000
     25036      8346  TIP3      OH2             0.4902396015      -19.1197957466       17.1682753365  WZ4       1571            0.0000000000
     25037      8346  TIP3      H1              0.9815796015      -19.7495557466       16.6408253365  WZ4       1571            0.0000000000
     25038      8346  TIP3      H2              1.1138696015      -18.8238557466       17.8313953365  WZ4       1571            0.0000000000
     25039      8347  TIP3      OH2             5.5162496015      -18.8266457466       19.6253253365  WZ4       1572            0.0000000000
     25040      8347  TIP3      H1              5.6943796015      -19.4733257466       20.3081853365  WZ4       1572            0.0000000000
     25041      8347  TIP3      H2              5.4628696015      -17.9928757466       20.0924353365  WZ4       1572            0.0000000000
     25042      8348  TIP3      OH2             7.3946296015       -3.8782357466       18.0209953365  WZ4       1573            0.0000000000
     25043      8348  TIP3      H1              8.2606496015       -3.5114957466       17.8428153365  WZ4       1573            0.0000000000
     25044      8348  TIP3      H2              7.1479096015       -4.3174357466       17.2070753365  WZ4       1573            0.0000000000
     25045      8349  TIP3      OH2            14.1035896015       -4.3152057466       20.7001053365  WZ4       1574            0.0000000000
     25046      8349  TIP3      H1             13.9092996015       -5.0629957466       20.1350653365  WZ4       1574            0.0000000000
     25047      8349  TIP3      H2             14.0645996015       -3.5571957466       20.1168953365  WZ4       1574            0.0000000000
     25048      8350  TIP3      OH2            -0.2492103985      -20.3195657466       32.4398753365  WZ4       1575            0.0000000000
     25049      8350  TIP3      H1             -0.6153903985      -21.0853057466       32.8823453365  WZ4       1575            0.0000000000
     25050      8350  TIP3      H2              0.6636396015      -20.2905457466       32.7263853365  WZ4       1575            0.0000000000
     25051      8351  TIP3      OH2             1.7238696015      -20.9691257466       33.9755853365  WZ4       1576            0.0000000000
     25052      8351  TIP3      H1              2.6222296015      -21.2431057466       33.7909253365  WZ4       1576            0.0000000000
     25053      8351  TIP3      H2              1.3371796015      -21.7115257466       34.4398453365  WZ4       1576            0.0000000000
     25054      8352  TIP3      OH2             0.3483996015       -4.1676457466       16.6485853365  WZ4       1577            0.0000000000
     25055      8352  TIP3      H1              0.0808596015       -3.8813557466       17.5218953365  WZ4       1577            0.0000000000
     25056      8352  TIP3      H2              1.1196596015       -4.7137257466       16.8008353365  WZ4       1577            0.0000000000
     25057      8353  TIP3      OH2            10.1450996015      -21.6365957466       34.1578653365  WZ4       1578            0.0000000000
     25058      8353  TIP3      H1             10.2218196015      -22.0625257466       35.0116353365  WZ4       1578            0.0000000000
     25059      8353  TIP3      H2             11.0387596015      -21.6231257466       33.8152153365  WZ4       1578            0.0000000000
     25060      8354  TIP3      OH2            13.3212096015       -5.5639657466       32.8502853365  WZ4       1579            0.0000000000
     25061      8354  TIP3      H1             12.5393996015       -5.7501657466       32.3303453365  WZ4       1579            0.0000000000
     25062      8354  TIP3      H2             13.2491996015       -4.6345357466       33.0675353365  WZ4       1579            0.0000000000
     25063      8355  TIP3      OH2            27.7272496015      -11.6775257466       22.8810053365  WZ4       1580            0.0000000000
     25064      8355  TIP3      H1             27.8163596015      -10.7337057466       22.7487153365  WZ4       1580            0.0000000000
     25065      8355  TIP3      H2             27.0890096015      -11.9528857466       22.2229453365  WZ4       1580            0.0000000000
     25066      8356  TIP3      OH2            26.6603796015      -12.4224557466       26.2998253365  WZ4       1581            0.0000000000
     25067      8356  TIP3      H1             26.6221296015      -13.0688257466       27.0047853365  WZ4       1581            0.0000000000
     25068      8356  TIP3      H2             26.3380296015      -12.8890157466       25.5286953365  WZ4       1581            0.0000000000
     25069      8357  TIP3      OH2            19.0288796015      -12.8082457466       27.8928153365  WZ4       1582            0.0000000000
     25070      8357  TIP3      H1             19.0700896015      -13.4339157466       28.6160553365  WZ4       1582            0.0000000000
     25071      8357  TIP3      H2             19.7316496015      -12.1843857466       28.0748553365  WZ4       1582            0.0000000000
     25072      8358  TIP3      OH2            30.3663996015       -9.4834157466       24.6013353365  WZ4       1583            0.0000000000
     25073      8358  TIP3      H1             29.9256696015      -10.2038157466       25.0518953365  WZ4       1583            0.0000000000
     25074      8358  TIP3      H2             30.3533696015       -8.7626957466       25.2311053365  WZ4       1583            0.0000000000
     25075      8359  TIP3      OH2            19.9521896015       -8.3583557466       26.4277253365  WZ4       1584            0.0000000000
     25076      8359  TIP3      H1             19.5827096015       -9.1603057466       26.0581553365  WZ4       1584            0.0000000000
     25077      8359  TIP3      H2             20.8932996015       -8.5268657466       26.4740653365  WZ4       1584            0.0000000000
     25078      8360  TIP3      OH2            16.5622396015      -14.6980957466       21.8206053365  WZ4       1585            0.0000000000
     25079      8360  TIP3      H1             16.1145796015      -13.8522257466       21.8022553365  WZ4       1585            0.0000000000
     25080      8360  TIP3      H2             16.0013596015      -15.2776757466       21.3051153365  WZ4       1585            0.0000000000
     25081      8361  TIP3      OH2            17.2728496015      -12.5361357466       23.9464053365  WZ4       1586            0.0000000000
     25082      8361  TIP3      H1             17.4861996015      -13.3059757466       24.4737053365  WZ4       1586            0.0000000000
     25083      8361  TIP3      H2             18.0106096015      -12.4464657466       23.3431653365  WZ4       1586            0.0000000000
     25084      8362  TIP3      OH2            27.4779496015       -4.3792457466       24.8133753365  WZ4       1587            0.0000000000
     25085      8362  TIP3      H1             28.0975896015       -5.0557757466       24.5402953365  WZ4       1587            0.0000000000
     25086      8362  TIP3      H2             27.2696896015       -4.5971657466       25.7218653365  WZ4       1587            0.0000000000
     25087      8363  TIP3      OH2            25.0498196015       -9.9903157466       26.7059253365  WZ4       1588            0.0000000000
     25088      8363  TIP3      H1             25.3536096015      -10.6761757466       26.1113353365  WZ4       1588            0.0000000000
     25089      8363  TIP3      H2             25.7712196015       -9.8714457466       27.3237253365  WZ4       1588            0.0000000000
     25090      8364  TIP3      OH2            28.1905196015      -15.5960757466       27.0334053365  WZ4       1590            0.0000000000
     25091      8364  TIP3      H1             28.3331096015      -16.5423757466       27.0535653365  WZ4       1590            0.0000000000
     25092      8364  TIP3      H2             28.0844196015      -15.3890957466       26.1048953365  WZ4       1590            0.0000000000
     25093      8365  TIP3      OH2            21.3453496015      -17.4944357466       24.3058853365  WZ4       1591            0.0000000000
     25094      8365  TIP3      H1             21.3884596015      -16.6345857466       23.8875153365  WZ4       1591            0.0000000000
     25095      8365  TIP3      H2             20.8877596015      -18.0469657466       23.6722053365  WZ4       1591            0.0000000000
     25096      8366  TIP3      OH2            29.0676196015      -17.3638757466       22.7067153365  WZ4       1592            0.0000000000
     25097      8366  TIP3      H1             29.7140496015      -17.6925557466       23.3314753365  WZ4       1592            0.0000000000
     25098      8366  TIP3      H2             29.5775596015      -16.8459757466       22.0838553365  WZ4       1592            0.0000000000
     25099      8367  TIP3      OH2            17.9654996015      -15.0978557466       25.0680253365  WZ4       1593            0.0000000000
     25100      8367  TIP3      H1             18.6191596015      -15.6476857466       25.5000353365  WZ4       1593            0.0000000000
     25101      8367  TIP3      H2             17.9894296015      -15.3719557466       24.1512253365  WZ4       1593            0.0000000000
     25102      8368  TIP3      OH2            23.1219496015      -13.5477257466       24.2831753365  WZ4       1594            0.0000000000
     25103      8368  TIP3      H1             23.7380496015      -14.0741857466       24.7925753365  WZ4       1594            0.0000000000
     25104      8368  TIP3      H2             22.5358296015      -14.1878557466       23.8795353365  WZ4       1594            0.0000000000
     25105      8369  TIP3      OH2            20.1555396015      -18.5765957466       28.3799653365  WZ4       1596            0.0000000000
     25106      8369  TIP3      H1             19.9367096015      -18.0465357466       27.6135653365  WZ4       1596            0.0000000000
     25107      8369  TIP3      H2             19.4876296015      -18.3500457466       29.0271053365  WZ4       1596            0.0000000000
     25108      8370  TIP3      OH2            27.5245196015       -9.0764857466       21.9238753365  WZ4       1597            0.0000000000
     25109      8370  TIP3      H1             27.2290296015       -9.3992557466       21.0725653365  WZ4       1597            0.0000000000
     25110      8370  TIP3      H2             27.2002996015       -8.1768157466       21.9651353365  WZ4       1597            0.0000000000
     25111      8371  TIP3      OH2            22.7246796015      -10.9010257466       28.6673353365  WZ4       1598            0.0000000000
     25112      8371  TIP3      H1             21.9845896015      -10.3028757466       28.7708553365  WZ4       1598            0.0000000000
     25113      8371  TIP3      H2             23.4386296015      -10.3470657466       28.3516953365  WZ4       1598            0.0000000000
     25114      8372  TIP3      OH2            30.8314596015      -18.0729457466       24.6873053365  WZ4       1599            0.0000000000
     25115      8372  TIP3      H1             30.6162596015      -18.8386057466       25.2199053365  WZ4       1599            0.0000000000
     25116      8372  TIP3      H2             31.4871996015      -17.6004857466       25.2001553365  WZ4       1599            0.0000000000
     25117      8373  TIP3      OH2            19.7492696015      -16.6844157466       26.3321853365  WZ4       1600            0.0000000000
     25118      8373  TIP3      H1             20.3628996015      -16.0516557466       26.7054253365  WZ4       1600            0.0000000000
     25119      8373  TIP3      H2             20.2613396015      -17.1569157466       25.6758753365  WZ4       1600            0.0000000000
     25120      8374  TIP3      OH2            21.1321096015       -8.9367257466       29.4544853365  WZ4       1601            0.0000000000
     25121      8374  TIP3      H1             21.1268696015       -8.0573757466       29.0764153365  WZ4       1601            0.0000000000
     25122      8374  TIP3      H2             20.2785196015       -9.0203157466       29.8794753365  WZ4       1601            0.0000000000
     25123      8375  TIP3      OH2            17.2531996015       -9.2659357466       20.2364153365  WZ4       1602            0.0000000000
     25124      8375  TIP3      H1             16.9812896015       -9.0368357466       19.3477053365  WZ4       1602            0.0000000000
     25125      8375  TIP3      H2             17.2987696015       -8.4280557466       20.6969453365  WZ4       1602            0.0000000000
     25126      8376  TIP3      OH2            30.8781696015       -7.6443457466       26.9492653365  WZ4       1603            0.0000000000
     25127      8376  TIP3      H1             29.9365396015       -7.5859557466       27.1109553365  WZ4       1603            0.0000000000
     25128      8376  TIP3      H2             31.1547796015       -6.7382957466       26.8122353365  WZ4       1603            0.0000000000
     25129      8377  TIP3      OH2            24.1820096015      -21.2710857466       25.8324553365  WZ4       1605            0.0000000000
     25130      8377  TIP3      H1             24.0644296015      -22.2194857466       25.7782853365  WZ4       1605            0.0000000000
     25131      8377  TIP3      H2             23.3270196015      -20.9384757466       26.1055653365  WZ4       1605            0.0000000000
     25132      8378  TIP3      OH2            29.1302896015       -5.8629957466       23.5744253365  WZ4       1606            0.0000000000
     25133      8378  TIP3      H1             29.5555196015       -6.5702057466       23.0893853365  WZ4       1606            0.0000000000
     25134      8378  TIP3      H2             29.4472896015       -5.0617257466       23.1576453365  WZ4       1606            0.0000000000
     25135      8379  TIP3      OH2            30.2899396015       -7.9621457466       22.0830853365  WZ4       1607            0.0000000000
     25136      8379  TIP3      H1             30.0324196015       -8.6521357466       21.4716753365  WZ4       1607            0.0000000000
     25137      8379  TIP3      H2             30.3610196015       -8.4050257466       22.9286753365  WZ4       1607            0.0000000000
     25138      8380  TIP3      OH2            31.9759596015       -9.3954757466       30.5604353365  WZ4       1608            0.0000000000
     25139      8380  TIP3      H1             32.1155896015       -9.9872257466       29.8211353365  WZ4       1608            0.0000000000
     25140      8380  TIP3      H2             32.1432396015       -8.5228857466       30.2043153365  WZ4       1608            0.0000000000
     25141      8381  TIP3      OH2            26.4484996015      -12.4335257466       20.3330353365  WZ4       1609            0.0000000000
     25142      8381  TIP3      H1             25.7370496015      -11.8985557466       19.9810853365  WZ4       1609            0.0000000000
     25143      8381  TIP3      H2             27.1394596015      -12.3783157466       19.6729253365  WZ4       1609            0.0000000000
     25144      8382  TIP3      OH2            26.5024196015      -13.9760957466       17.3715353365  WZ4       1610            0.0000000000
     25145      8382  TIP3      H1             27.2034096015      -13.9534057466       18.0229353365  WZ4       1610            0.0000000000
     25146      8382  TIP3      H2             26.8047096015      -14.6041257466       16.7154653365  WZ4       1610            0.0000000000
     25147      8383  TIP3      OH2            33.8178896015      -13.0556757466       28.6264753365  WZ4       1611            0.0000000000
     25148      8383  TIP3      H1             33.1652996015      -12.3611157466       28.7155653365  WZ4       1611            0.0000000000
     25149      8383  TIP3      H2             34.2829196015      -12.8455857466       27.8166353365  WZ4       1611            0.0000000000
     25150      8384  TIP3      OH2            29.8542696015      -12.2241957466       21.2846253365  WZ4       1612            0.0000000000
     25151      8384  TIP3      H1             29.1223696015      -11.9958257466       21.8576853365  WZ4       1612            0.0000000000
     25152      8384  TIP3      H2             30.3014896015      -12.9379257466       21.7393753365  WZ4       1612            0.0000000000
     25153      8385  TIP3      OH2            29.7516196015      -14.0499357466       30.3523253365  WZ4       1613            0.0000000000
     25154      8385  TIP3      H1             29.8315296015      -13.2864957466       30.9241753365  WZ4       1613            0.0000000000
     25155      8385  TIP3      H2             29.1503896015      -13.7706957466       29.6618353365  WZ4       1613            0.0000000000
     25156      8386  TIP3      OH2            21.4996396015      -11.5935757466       23.1671253365  WZ4       1614            0.0000000000
     25157      8386  TIP3      H1             21.1691596015      -11.9642357466       22.3488253365  WZ4       1614            0.0000000000
     25158      8386  TIP3      H2             22.0880496015      -12.2641757466       23.5139553365  WZ4       1614            0.0000000000
     25159      8387  TIP3      OH2            22.8663896015       -8.1655157466       25.8483453365  WZ4       1615            0.0000000000
     25160      8387  TIP3      H1             22.7715196015       -8.7442057466       25.0918053365  WZ4       1615            0.0000000000
     25161      8387  TIP3      H2             23.5957496015       -8.5369457466       26.3446253365  WZ4       1615            0.0000000000
     25162      8388  TIP3      OH2            21.8661896015      -12.8250157466       26.8006253365  WZ4       1616            0.0000000000
     25163      8388  TIP3      H1             22.4314396015      -12.7035957466       26.0377453365  WZ4       1616            0.0000000000
     25164      8388  TIP3      H2             22.1850796015      -12.1875157466       27.4394753365  WZ4       1616            0.0000000000
     25165      8389  TIP3      OH2            28.1754096015       -7.3218257466       27.5346753365  WZ4       1617            0.0000000000
     25166      8389  TIP3      H1             27.9350696015       -6.6595157466       28.1825953365  WZ4       1617            0.0000000000
     25167      8389  TIP3      H2             27.9772296015       -8.1563057466       27.9596353365  WZ4       1617            0.0000000000
     25168      8390  TIP3      OH2            22.7462596015       -8.4257457466       31.5178153365  WZ4       1618            0.0000000000
     25169      8390  TIP3      H1             22.4350096015       -7.6434257466       31.9731353365  WZ4       1618            0.0000000000
     25170      8390  TIP3      H2             22.0962796015       -8.5788357466       30.8320153365  WZ4       1618            0.0000000000
     25171      8391  TIP3      OH2            28.7252196015      -13.0619057466       18.9697453365  WZ4       1619            0.0000000000
     25172      8391  TIP3      H1             29.3047696015      -12.9118757466       19.7166353365  WZ4       1619            0.0000000000
     25173      8391  TIP3      H2             29.1392196015      -12.5911657466       18.2463853365  WZ4       1619            0.0000000000
     25174      8392  TIP3      OH2            19.6662496015      -12.2276357466       30.7463853365  WZ4       1620            0.0000000000
     25175      8392  TIP3      H1             19.7365696015      -11.5769557466       31.4448853365  WZ4       1620            0.0000000000
     25176      8392  TIP3      H2             18.7754696015      -12.1248857466       30.4114753365  WZ4       1620            0.0000000000
     25177      8393  TIP3      OH2            26.4517096015       -6.3250557466       22.4050553365  WZ4       1621            0.0000000000
     25178      8393  TIP3      H1             26.9254696015       -6.0294257466       23.1824753365  WZ4       1621            0.0000000000
     25179      8393  TIP3      H2             25.8886396015       -5.5868957466       22.1720153365  WZ4       1621            0.0000000000
     25180      8394  TIP3      OH2            20.9858496015       -6.3542457466       32.2811953365  WZ4       1622            0.0000000000
     25181      8394  TIP3      H1             20.9933796015       -6.4902757466       31.3337453365  WZ4       1622            0.0000000000
     25182      8394  TIP3      H2             20.0698896015       -6.4714357466       32.5331953365  WZ4       1622            0.0000000000
     25183      8395  TIP3      OH2            20.4899096015      -12.5241457466       20.7564053365  WZ4       1624            0.0000000000
     25184      8395  TIP3      H1             20.1980396015      -11.7559757466       20.2655353365  WZ4       1624            0.0000000000
     25185      8395  TIP3      H2             19.8154296015      -13.1835257466       20.5935453365  WZ4       1624            0.0000000000
     25186      8396  TIP3      OH2            33.6131996015       -6.9456257466       17.1591053365  WZ4       1625            0.0000000000
     25187      8396  TIP3      H1             33.6865496015       -6.0066057466       17.3296353365  WZ4       1625            0.0000000000
     25188      8396  TIP3      H2             34.5187096015       -7.2507657466       17.1028353365  WZ4       1625            0.0000000000
     25189      8397  TIP3      OH2            16.5829196015      -10.1612257466       29.5713853365  WZ4       1626            0.0000000000
     25190      8397  TIP3      H1             16.0817596015      -10.1892857466       28.7563553365  WZ4       1626            0.0000000000
     25191      8397  TIP3      H2             16.5882896015      -11.0669057466       29.8811153365  WZ4       1626            0.0000000000
     25192      8398  TIP3      OH2            16.3331896015       -7.3808457466       26.4554053365  WZ4       1627            0.0000000000
     25193      8398  TIP3      H1             17.2792496015       -7.5251457466       26.4363553365  WZ4       1627            0.0000000000
     25194      8398  TIP3      H2             16.2208196015       -6.5965657466       26.9925253365  WZ4       1627            0.0000000000
     25195      8399  TIP3      OH2            25.5094396015       -7.1409557466       31.0139153365  WZ4       1629            0.0000000000
     25196      8399  TIP3      H1             25.5968996015       -6.3144957466       31.4888253365  WZ4       1629            0.0000000000
     25197      8399  TIP3      H2             24.6459496015       -7.4705757466       31.2628453365  WZ4       1629            0.0000000000
     25198      8400  TIP3      OH2            25.9240196015       -3.3685857466       20.8199753365  WZ4       1630            0.0000000000
     25199      8400  TIP3      H1             25.8486196015       -3.4898657466       19.8734953365  WZ4       1630            0.0000000000
     25200      8400  TIP3      H2             25.9568896015       -2.4193157466       20.9384353365  WZ4       1630            0.0000000000
     25201      8401  TIP3      OH2            19.5773996015       -4.5798857466       22.6008753365  WZ4       1631            0.0000000000
     25202      8401  TIP3      H1             19.7294396015       -4.9278457466       23.4795253365  WZ4       1631            0.0000000000
     25203      8401  TIP3      H2             18.7264396015       -4.9361557466       22.3455953365  WZ4       1631            0.0000000000
     25204      8402  TIP3      OH2            29.0256196015       -4.2145657466       17.8222153365  WZ4       1632            0.0000000000
     25205      8402  TIP3      H1             29.4004596015       -4.9589557466       17.3514753365  WZ4       1632            0.0000000000
     25206      8402  TIP3      H2             29.0299896015       -4.4845057466       18.7405453365  WZ4       1632            0.0000000000
     25207      8403  TIP3      OH2            28.6944296015       -4.2888557466       20.5714353365  WZ4       1633            0.0000000000
     25208      8403  TIP3      H1             27.7594096015       -4.1886657466       20.7501353365  WZ4       1633            0.0000000000
     25209      8403  TIP3      H2             28.9746196015       -4.9982557466       21.1497553365  WZ4       1633            0.0000000000
     25210      8404  TIP3      OH2            18.8319696015       -8.8376857466       30.6146653365  WZ4       1635            0.0000000000
     25211      8404  TIP3      H1             19.0480996015       -9.1991257466       31.4742453365  WZ4       1635            0.0000000000
     25212      8404  TIP3      H2             17.9764396015       -9.2123057466       30.4050153365  WZ4       1635            0.0000000000
     25213      8405  TIP3      OH2            21.4507696015      -20.3676357466       26.6100853365  WZ4       1636            0.0000000000
     25214      8405  TIP3      H1             20.5891396015      -20.4548157466       26.2023753365  WZ4       1636            0.0000000000
     25215      8405  TIP3      H2             21.4283396015      -19.5116257466       27.0378453365  WZ4       1636            0.0000000000
     25216      8406  TIP3      OH2            30.2025296015      -12.0290757466       16.5995353365  WZ4       1639            0.0000000000
     25217      8406  TIP3      H1             30.2446096015      -12.2516857466       15.6695353365  WZ4       1639            0.0000000000
     25218      8406  TIP3      H2             31.0517396015      -11.6303657466       16.7895253365  WZ4       1639            0.0000000000
     25219      8407  TIP3      OH2            25.7752796015      -18.1532557466       17.2698653365  WZ4       1640            0.0000000000
     25220      8407  TIP3      H1             25.5217596015      -18.1340957466       18.1926753365  WZ4       1640            0.0000000000
     25221      8407  TIP3      H2             25.5184896015      -19.0247157466       16.9684853365  WZ4       1640            0.0000000000
     25222      8408  TIP3      OH2            21.5417796015      -15.4021857466       27.7051053365  WZ4       1641            0.0000000000
     25223      8408  TIP3      H1             20.8999896015      -15.4424557466       28.4141153365  WZ4       1641            0.0000000000
     25224      8408  TIP3      H2             21.5789796015      -14.4757157466       27.4674053365  WZ4       1641            0.0000000000
     25225      8409  TIP3      OH2            21.5386896015      -15.1811757466       22.6171053365  WZ4       1642            0.0000000000
     25226      8409  TIP3      H1             20.6459796015      -15.5215657466       22.5584853365  WZ4       1642            0.0000000000
     25227      8409  TIP3      H2             21.9893496015      -15.5580857466       21.8614253365  WZ4       1642            0.0000000000
     25228      8410  TIP3      OH2            27.0742396015      -14.7651457466       21.4341853365  WZ4       1643            0.0000000000
     25229      8410  TIP3      H1             26.6652696015      -13.9502857466       21.1426653365  WZ4       1643            0.0000000000
     25230      8410  TIP3      H2             27.7948596015      -14.9051357466       20.8198953365  WZ4       1643            0.0000000000
     25231      8411  TIP3      OH2            28.0790096015      -15.3191057466       24.2481553365  WZ4       1645            0.0000000000
     25232      8411  TIP3      H1             27.8834596015      -14.7134257466       23.5332153365  WZ4       1645            0.0000000000
     25233      8411  TIP3      H2             28.2602696015      -16.1525857466       23.8137853365  WZ4       1645            0.0000000000
     25234      8412  TIP3      OH2            19.2918296015      -15.0818357466       29.5723053365  WZ4       1646            0.0000000000
     25235      8412  TIP3      H1             19.2537696015      -14.6816757466       30.4410153365  WZ4       1646            0.0000000000
     25236      8412  TIP3      H2             18.8009396015      -15.8985957466       29.6625953365  WZ4       1646            0.0000000000
     25237      8413  TIP3      OH2            22.6575696015      -17.7076057466       16.3709053365  WZ4       1647            0.0000000000
     25238      8413  TIP3      H1             22.2266396015      -18.1525957466       17.1006453365  WZ4       1647            0.0000000000
     25239      8413  TIP3      H2             21.9394396015      -17.3359757466       15.8586553365  WZ4       1647            0.0000000000
     25240      8414  TIP3      OH2            15.8999096015      -17.9656557466       23.4227753365  WZ4       1648            0.0000000000
     25241      8414  TIP3      H1             16.5306796015      -17.9944457466       24.1421653365  WZ4       1648            0.0000000000
     25242      8414  TIP3      H2             16.3493396015      -18.3907857466       22.6923653365  WZ4       1648            0.0000000000
     25243      8415  TIP3      OH2            17.1741196015      -17.2194557466       18.8468153365  WZ4       1649            0.0000000000
     25244      8415  TIP3      H1             17.6482896015      -16.6284657466       18.2619053365  WZ4       1649            0.0000000000
     25245      8415  TIP3      H2             16.4567596015      -16.6891657466       19.1938253365  WZ4       1649            0.0000000000
     25246      8416  TIP3      OH2            27.3429296015      -13.6809757466       28.9193953365  WZ4       1650            0.0000000000
     25247      8416  TIP3      H1             27.6664096015      -14.3120057466       28.2764453365  WZ4       1650            0.0000000000
     25248      8416  TIP3      H2             26.9028596015      -14.2157557466       29.5801353365  WZ4       1650            0.0000000000
     25249      8417  TIP3      OH2            24.1202196015      -17.7534257466       23.7035153365  WZ4       1651            0.0000000000
     25250      8417  TIP3      H1             23.2093296015      -17.6967457466       23.9921153365  WZ4       1651            0.0000000000
     25251      8417  TIP3      H2             24.6255096015      -17.8138757466       24.5142353365  WZ4       1651            0.0000000000
     25252      8418  TIP3      OH2            18.9485596015      -16.1247957466       22.5302753365  WZ4       1652            0.0000000000
     25253      8418  TIP3      H1             18.0593596015      -16.0252457466       22.1902353365  WZ4       1652            0.0000000000
     25254      8418  TIP3      H2             19.2450496015      -16.9664957466       22.1840653365  WZ4       1652            0.0000000000
     25255      8419  TIP3      OH2            22.6017396015      -16.1245357466       20.1867353365  WZ4       1653            0.0000000000
     25256      8419  TIP3      H1             23.5332896015      -15.9955357466       20.3650453365  WZ4       1653            0.0000000000
     25257      8419  TIP3      H2             22.3867696015      -15.4551057466       19.5372053365  WZ4       1653            0.0000000000
     25258      8420  TIP3      OH2            28.5254096015      -18.5187957466       26.9676953365  WZ4       1654            0.0000000000
     25259      8420  TIP3      H1             27.8485696015      -18.3874857466       27.6316653365  WZ4       1654            0.0000000000
     25260      8420  TIP3      H2             28.0398996015      -18.6738457466       26.1574653365  WZ4       1654            0.0000000000
     25261      8421  TIP3      OH2            21.2757596015      -14.9303157466       17.7533453365  WZ4       1655            0.0000000000
     25262      8421  TIP3      H1             20.7332696015      -15.3099357466       17.0621053365  WZ4       1655            0.0000000000
     25263      8421  TIP3      H2             22.1092496015      -14.7358457466       17.3247553365  WZ4       1655            0.0000000000
     25264      8422  TIP3      OH2            19.4108996015      -10.3731257466       32.8525053365  WZ4       1657            0.0000000000
     25265      8422  TIP3      H1             20.1431396015      -10.1185357466       33.4139553365  WZ4       1657            0.0000000000
     25266      8422  TIP3      H2             18.6307696015      -10.1685857466       33.3680453365  WZ4       1657            0.0000000000
     25267      8423  TIP3      OH2            25.4401896015      -14.9661257466       25.5904753365  WZ4       1658            0.0000000000
     25268      8423  TIP3      H1             26.0045296015      -15.5124657466       25.0434353365  WZ4       1658            0.0000000000
     25269      8423  TIP3      H2             25.2925296015      -15.4879357466       26.3792353365  WZ4       1658            0.0000000000
     25270      8424  TIP3      OH2            20.4421596015      -18.8295157466       22.0089553365  WZ4       1659            0.0000000000
     25271      8424  TIP3      H1             20.1251096015      -19.7319857466       21.9734953365  WZ4       1659            0.0000000000
     25272      8424  TIP3      H2             21.2235696015      -18.8277757466       21.4561153365  WZ4       1659            0.0000000000
     25273      8425  TIP3      OH2            24.0667796015      -16.5775157466       28.0045153365  WZ4       1660            0.0000000000
     25274      8425  TIP3      H1             23.2313096015      -16.1235657466       28.1147553365  WZ4       1660            0.0000000000
     25275      8425  TIP3      H2             24.5908396015      -16.3016657466       28.7565053365  WZ4       1660            0.0000000000
     25276      8426  TIP3      OH2            24.6110396015      -10.3647457466       19.6891553365  WZ4       1661            0.0000000000
     25277      8426  TIP3      H1             23.8661396015      -10.8722157466       19.3669453365  WZ4       1661            0.0000000000
     25278      8426  TIP3      H2             24.4767596015      -10.3159457466       20.6356353365  WZ4       1661            0.0000000000
     25279      8427  TIP3      OH2            31.7609296015      -11.2319257466       28.4759153365  WZ4       1662            0.0000000000
     25280      8427  TIP3      H1             32.4028096015      -10.7752957466       27.9321353365  WZ4       1662            0.0000000000
     25281      8427  TIP3      H2             30.9306196015      -11.1186857466       28.0133253365  WZ4       1662            0.0000000000
     25282      8428  TIP3      OH2            28.5087196015      -17.5507557466       17.8884153365  WZ4       1663            0.0000000000
     25283      8428  TIP3      H1             27.5701396015      -17.4391957466       17.7372953365  WZ4       1663            0.0000000000
     25284      8428  TIP3      H2             28.8059296015      -16.6940657466       18.1949853365  WZ4       1663            0.0000000000
     25285      8429  TIP3      OH2            26.1302496015      -10.1804157466       30.9260653365  WZ4       1664            0.0000000000
     25286      8429  TIP3      H1             25.7848596015      -10.5621757466       31.7330253365  WZ4       1664            0.0000000000
     25287      8429  TIP3      H2             25.9302596015       -9.2470557466       30.9973553365  WZ4       1664            0.0000000000
     25288      8430  TIP3      OH2            29.2270696015      -15.6834857466       19.5491553365  WZ4       1665            0.0000000000
     25289      8430  TIP3      H1             30.1189696015      -15.8209857466       19.8682753365  WZ4       1665            0.0000000000
     25290      8430  TIP3      H2             29.2834296015      -14.8928757466       19.0125053365  WZ4       1665            0.0000000000
     25291      8431  TIP3      OH2            19.7358696015      -11.0697457466       25.4589453365  WZ4       1666            0.0000000000
     25292      8431  TIP3      H1             20.4805896015      -11.0721757466       24.8575953365  WZ4       1666            0.0000000000
     25293      8431  TIP3      H2             19.8135296015      -11.8933657466       25.9404553365  WZ4       1666            0.0000000000
     25294      8432  TIP3      OH2            26.7364496015       -8.9063157466       18.7146153365  WZ4       1667            0.0000000000
     25295      8432  TIP3      H1             26.4412896015       -8.0795257466       19.0960953365  WZ4       1667            0.0000000000
     25296      8432  TIP3      H2             26.0334496015       -9.5256257466       18.9107553365  WZ4       1667            0.0000000000
     25297      8433  TIP3      OH2            16.7438396015      -12.6090557466       30.7737953365  WZ4       1668            0.0000000000
     25298      8433  TIP3      H1             16.9666996015      -13.0270957466       31.6055453365  WZ4       1668            0.0000000000
     25299      8433  TIP3      H2             16.1418496015      -13.2215557466       30.3510753365  WZ4       1668            0.0000000000
     25300      8434  TIP3      OH2            23.7603296015      -13.0920657466       32.9867653365  WZ4       1669            0.0000000000
     25301      8434  TIP3      H1             23.4644096015      -13.2577657466       32.0916753365  WZ4       1669            0.0000000000
     25302      8434  TIP3      H2             24.6918496015      -13.3120357466       32.9761553365  WZ4       1669            0.0000000000
     25303      8435  TIP3      OH2            28.3806096015       -7.7188657466       30.8765653365  WZ4       1670            0.0000000000
     25304      8435  TIP3      H1             27.4800396015       -7.5356057466       30.6089553365  WZ4       1670            0.0000000000
     25305      8435  TIP3      H2             28.4147196015       -7.4599357466       31.7974453365  WZ4       1670            0.0000000000
     25306      8436  TIP3      OH2            32.4071096015       -6.6880357466       19.7090353365  WZ4       1673            0.0000000000
     25307      8436  TIP3      H1             32.0342196015       -7.5136557466       20.0180953365  WZ4       1673            0.0000000000
     25308      8436  TIP3      H2             32.6844596015       -6.8710957466       18.8113753365  WZ4       1673            0.0000000000
     25309      8437  TIP3      OH2            29.5674996015      -11.8800857466       26.7302253365  WZ4       1674            0.0000000000
     25310      8437  TIP3      H1             28.6391896015      -12.1118957466       26.7031553365  WZ4       1674            0.0000000000
     25311      8437  TIP3      H2             30.0186096015      -12.6571057466       26.4001053365  WZ4       1674            0.0000000000
     25312      8438  TIP3      OH2            22.1108096015       -7.5519257466       22.8630953365  WZ4       1675            0.0000000000
     25313      8438  TIP3      H1             22.6380296015       -6.7784857466       22.6629753365  WZ4       1675            0.0000000000
     25314      8438  TIP3      H2             21.2306596015       -7.3270057466       22.5614953365  WZ4       1675            0.0000000000
     25315      8439  TIP3      OH2            17.8655796015      -12.6895157466       17.4503353365  WZ4       1676            0.0000000000
     25316      8439  TIP3      H1             18.4815696015      -12.0627957466       17.8298153365  WZ4       1676            0.0000000000
     25317      8439  TIP3      H2             17.0038396015      -12.3735357466       17.7219853365  WZ4       1676            0.0000000000
     25318      8440  TIP3      OH2            23.5380396015       -9.8889357466       22.4395253365  WZ4       1677            0.0000000000
     25319      8440  TIP3      H1             23.2970396015       -8.9634957466       22.4810553365  WZ4       1677            0.0000000000
     25320      8440  TIP3      H2             22.7973996015      -10.3478057466       22.8359153365  WZ4       1677            0.0000000000
     25321      8441  TIP3      OH2            24.0526996015       -5.7395757466       28.7546353365  WZ4       1678            0.0000000000
     25322      8441  TIP3      H1             24.4151696015       -4.8850157466       28.5210753365  WZ4       1678            0.0000000000
     25323      8441  TIP3      H2             24.5842196015       -6.0314157466       29.4952653365  WZ4       1678            0.0000000000
     25324      8442  TIP3      OH2            22.2211196015       -4.8671757466       21.9847453365  WZ4       1679            0.0000000000
     25325      8442  TIP3      H1             21.2711696015       -4.7614357466       22.0360753365  WZ4       1679            0.0000000000
     25326      8442  TIP3      H2             22.5729296015       -4.0464357466       22.3294953365  WZ4       1679            0.0000000000
     25327      8443  TIP3      OH2            27.5967796015       -9.6405057466       28.4551953365  WZ4       1680            0.0000000000
     25328      8443  TIP3      H1             27.1709096015       -9.8683357466       29.2815953365  WZ4       1680            0.0000000000
     25329      8443  TIP3      H2             28.1773596015      -10.3793257466       28.2727253365  WZ4       1680            0.0000000000
     25330      8444  TIP3      OH2            29.7996696015       -8.7114557466       17.5290953365  WZ4       1681            0.0000000000
     25331      8444  TIP3      H1             30.1529796015       -9.0914757466       18.3334453365  WZ4       1681            0.0000000000
     25332      8444  TIP3      H2             28.8510196015       -8.8049757466       17.6160253365  WZ4       1681            0.0000000000
     25333      8445  TIP3      OH2            34.3031096015       -4.2322057466       17.7301153365  WZ4       1683            0.0000000000
     25334      8445  TIP3      H1             35.0468996015       -3.6461557466       17.5902753365  WZ4       1683            0.0000000000
     25335      8445  TIP3      H2             33.6089196015       -3.6636257466       18.0633553365  WZ4       1683            0.0000000000
     25336      8446  TIP3      OH2            18.3777896015      -17.8557857466       30.3319353365  WZ4       1684            0.0000000000
     25337      8446  TIP3      H1             17.4850196015      -17.5172457466       30.2643353365  WZ4       1684            0.0000000000
     25338      8446  TIP3      H2             18.2790696015      -18.7111757466       30.7500153365  WZ4       1684            0.0000000000
     25339      8447  TIP3      OH2            30.6655996015      -10.0392557466       19.7558853365  WZ4       1685            0.0000000000
     25340      8447  TIP3      H1             30.3883596015      -10.7673257466       20.3119953365  WZ4       1685            0.0000000000
     25341      8447  TIP3      H2             31.5928996015       -9.9200557466       19.9611453365  WZ4       1685            0.0000000000
     25342      8448  TIP3      OH2            18.0289896015       -6.0513457466       28.7668753365  WZ4       1686            0.0000000000
     25343      8448  TIP3      H1             18.2460196015       -6.9831057466       28.7358453365  WZ4       1686            0.0000000000
     25344      8448  TIP3      H2             18.2753396015       -5.7768457466       29.6501553365  WZ4       1686            0.0000000000
     25345      8449  TIP3      OH2            23.8904496015       -7.5998457466       15.9760953365  WZ4       1687            0.0000000000
     25346      8449  TIP3      H1             24.1294296015       -8.3480357466       15.4289853365  WZ4       1687            0.0000000000
     25347      8449  TIP3      H2             23.6215796015       -7.9876757466       16.8088753365  WZ4       1687            0.0000000000
     25348      8450  TIP3      OH2            22.8275096015       -8.0294657466       18.4323553365  WZ4       1688            0.0000000000
     25349      8450  TIP3      H1             22.9743096015       -8.5494857466       19.2224453365  WZ4       1688            0.0000000000
     25350      8450  TIP3      H2             22.8246796015       -7.1227057466       18.7389453365  WZ4       1688            0.0000000000
     25351      8451  TIP3      OH2            19.2806196015      -10.7771357466       18.9428953365  WZ4       1689            0.0000000000
     25352      8451  TIP3      H1             18.5945496015      -10.4248857466       19.5098653365  WZ4       1689            0.0000000000
     25353      8451  TIP3      H2             19.8034096015      -10.0141757466       18.6963253365  WZ4       1689            0.0000000000
     25354      8452  TIP3      OH2            27.1121296015      -18.1147557466       29.2217953365  WZ4       1690            0.0000000000
     25355      8452  TIP3      H1             27.8109196015      -18.0408857466       29.8717653365  WZ4       1690            0.0000000000
     25356      8452  TIP3      H2             26.7312696015      -18.9792557466       29.3760853365  WZ4       1690            0.0000000000
     25357      8453  TIP3      OH2            27.8966196015      -18.4625857466       20.3190253365  WZ4       1691            0.0000000000
     25358      8453  TIP3      H1             28.1164496015      -17.9910457466       19.5155653365  WZ4       1691            0.0000000000
     25359      8453  TIP3      H2             28.4550196015      -18.0683257466       20.9890853365  WZ4       1691            0.0000000000
     25360      8454  TIP3      OH2            25.5652296015       -6.3321057466       19.1817753365  WZ4       1692            0.0000000000
     25361      8454  TIP3      H1             24.7488396015       -5.8351357466       19.2342053365  WZ4       1692            0.0000000000
     25362      8454  TIP3      H2             26.0948596015       -5.8567557466       18.5416553365  WZ4       1692            0.0000000000
     25363      8455  TIP3      OH2            25.0966096015      -16.7347057466       21.1538653365  WZ4       1693            0.0000000000
     25364      8455  TIP3      H1             25.9088696015      -16.2303857466       21.2000353365  WZ4       1693            0.0000000000
     25365      8455  TIP3      H2             24.8519096015      -16.8797357466       22.0678253365  WZ4       1693            0.0000000000
     25366      8456  TIP3      OH2            25.6322496015      -15.7484357466       30.3385253365  WZ4       1694            0.0000000000
     25367      8456  TIP3      H1             25.7512796015      -15.1748957466       31.0955653365  WZ4       1694            0.0000000000
     25368      8456  TIP3      H2             26.2877096015      -16.4364957466       30.4533053365  WZ4       1694            0.0000000000
     25369      8457  TIP3      OH2            25.9802796015      -19.6534057466       22.0919753365  WZ4       1695            0.0000000000
     25370      8457  TIP3      H1             25.6336296015      -19.0363457466       22.7364053365  WZ4       1695            0.0000000000
     25371      8457  TIP3      H2             26.6389696015      -19.1528357466       21.6105253365  WZ4       1695            0.0000000000
     25372      8458  TIP3      OH2            22.9035396015       -5.2883857466       19.1634653365  WZ4       1696            0.0000000000
     25373      8458  TIP3      H1             23.0644096015       -4.4886357466       18.6627253365  WZ4       1696            0.0000000000
     25374      8458  TIP3      H2             22.7063196015       -4.9817857466       20.0485253365  WZ4       1696            0.0000000000
     25375      8459  TIP3      OH2            21.6379796015      -18.5904657466       18.7792253365  WZ4       1697            0.0000000000
     25376      8459  TIP3      H1             21.5544596015      -17.7021557466       19.1258653365  WZ4       1697            0.0000000000
     25377      8459  TIP3      H2             22.5280096015      -18.8557957466       19.0109053365  WZ4       1697            0.0000000000
     25378      8460  TIP3      OH2            30.4389296015      -14.0913057466       25.2692253365  WZ4       1699            0.0000000000
     25379      8460  TIP3      H1             29.6413696015      -14.5062857466       24.9407253365  WZ4       1699            0.0000000000
     25380      8460  TIP3      H2             30.8840396015      -14.7819357466       25.7602753365  WZ4       1699            0.0000000000
     25381      8461  TIP3      OH2            19.8965096015       -8.1632457466       17.8396753365  WZ4       1700            0.0000000000
     25382      8461  TIP3      H1             20.4886596015       -7.4637657466       18.1159153365  WZ4       1700            0.0000000000
     25383      8461  TIP3      H2             20.3558096015       -8.5962957466       17.1201353365  WZ4       1700            0.0000000000
     25384      8462  TIP3      OH2            18.2124296015      -15.4989457466       16.9556153365  WZ4       1701            0.0000000000
     25385      8462  TIP3      H1             18.1676896015      -14.5596357466       17.1343153365  WZ4       1701            0.0000000000
     25386      8462  TIP3      H2             17.3247496015      -15.7344557466       16.6858253365  WZ4       1701            0.0000000000
     25387      8463  TIP3      OH2            31.5253896015       -4.8350557466       26.8915753365  WZ4       1702            0.0000000000
     25388      8463  TIP3      H1             31.3698196015       -4.1566157466       26.2345053365  WZ4       1702            0.0000000000
     25389      8463  TIP3      H2             32.4580296015       -4.7631257466       27.0946353365  WZ4       1702            0.0000000000
     25390      8464  TIP3      OH2            19.0206296015      -20.7172857466       25.6287153365  WZ4       1703            0.0000000000
     25391      8464  TIP3      H1             18.7916096015      -20.6580357466       24.7012153365  WZ4       1703            0.0000000000
     25392      8464  TIP3      H2             18.5779696015      -21.5087357466       25.9351253365  WZ4       1703            0.0000000000
     25393      8465  TIP3      OH2            17.9509596015       -6.7765757466       21.7892953365  WZ4       1704            0.0000000000
     25394      8465  TIP3      H1             17.1188196015       -6.3043057466       21.8164353365  WZ4       1704            0.0000000000
     25395      8465  TIP3      H2             18.4967896015       -6.2668157466       21.1906053365  WZ4       1704            0.0000000000
     25396      8466  TIP3      OH2            17.2393296015       -4.1642057466       33.1190953365  WZ4       1705            0.0000000000
     25397      8466  TIP3      H1             17.7795496015       -4.3808057466       33.8790153365  WZ4       1705            0.0000000000
     25398      8466  TIP3      H2             16.7581296015       -4.9696057466       32.9293453365  WZ4       1705            0.0000000000
     25399      8467  TIP3      OH2            21.8366696015       -5.2447657466       34.7395153365  WZ4       1706            0.0000000000
     25400      8467  TIP3      H1             22.6043896015       -5.7036857466       35.0804353365  WZ4       1706            0.0000000000
     25401      8467  TIP3      H2             21.8152896015       -5.4707857466       33.8096353365  WZ4       1706            0.0000000000
     25402      8468  TIP3      OH2            25.9286296015       -5.7367057466       16.1146953365  WZ4       1707            0.0000000000
     25403      8468  TIP3      H1             25.2847296015       -6.3678457466       16.4360653365  WZ4       1707            0.0000000000
     25404      8468  TIP3      H2             26.6904596015       -6.2679057466       15.8830453365  WZ4       1707            0.0000000000
     25405      8469  TIP3      OH2            30.5329196015       -5.9197157466       16.3484953365  WZ4       1709            0.0000000000
     25406      8469  TIP3      H1             30.8159596015       -6.7141957466       16.8011853365  WZ4       1709            0.0000000000
     25407      8469  TIP3      H2             31.2727096015       -5.6866157466       15.7876053365  WZ4       1709            0.0000000000
     25408      8470  TIP3      OH2            17.1462796015      -10.3537957466       34.0735253365  WZ4       1710            0.0000000000
     25409      8470  TIP3      H1             17.2903296015      -11.2557257466       33.7871953365  WZ4       1710            0.0000000000
     25410      8470  TIP3      H2             16.3740196015      -10.0675857466       33.5857553365  WZ4       1710            0.0000000000
     25411      8471  TIP3      OH2            21.4876496015      -10.0102257466       16.2059853365  WZ4       1711            0.0000000000
     25412      8471  TIP3      H1             21.5520596015      -10.8042657466       16.7366253365  WZ4       1711            0.0000000000
     25413      8471  TIP3      H2             22.1405696015      -10.1289457466       15.5161853365  WZ4       1711            0.0000000000
     25414      8472  TIP3      OH2            23.8018896015      -10.3839857466       33.5061653365  WZ4       1712            0.0000000000
     25415      8472  TIP3      H1             23.4732696015      -10.1131757466       32.6489053365  WZ4       1712            0.0000000000
     25416      8472  TIP3      H2             23.9537096015      -11.3250057466       33.4186653365  WZ4       1712            0.0000000000
     25417      8473  TIP3      OH2            26.8399896015       -8.9630557466       15.9417853365  WZ4       1713            0.0000000000
     25418      8473  TIP3      H1             26.5713996015       -8.7828457466       16.8426753365  WZ4       1713            0.0000000000
     25419      8473  TIP3      H2             26.6335496015       -9.8884357466       15.8103653365  WZ4       1713            0.0000000000
     25420      8474  TIP3      OH2            29.5364096015      -10.4682557466       30.8893953365  WZ4       1714            0.0000000000
     25421      8474  TIP3      H1             30.2818896015       -9.8798857466       30.7697953365  WZ4       1714            0.0000000000
     25422      8474  TIP3      H2             28.7790896015       -9.8862857466       30.9527053365  WZ4       1714            0.0000000000
     25423      8475  TIP3      OH2            17.9789296015      -13.1534657466       33.4934553365  WZ4       1715            0.0000000000
     25424      8475  TIP3      H1             18.3870496015      -14.0108057466       33.3725153365  WZ4       1715            0.0000000000
     25425      8475  TIP3      H2             17.7186896015      -13.1393357466       34.4144853365  WZ4       1715            0.0000000000
     25426      8476  TIP3      OH2            22.6370296015      -12.0376057466       18.5117853365  WZ4       1716            0.0000000000
     25427      8476  TIP3      H1             22.1772296015      -12.5217757466       19.1976353365  WZ4       1716            0.0000000000
     25428      8476  TIP3      H2             22.8918996015      -12.7060657466       17.8758353365  WZ4       1716            0.0000000000
     25429      8477  TIP3      OH2            21.9259596015      -14.1448957466       30.8677453365  WZ4       1717            0.0000000000
     25430      8477  TIP3      H1             21.3075696015      -13.4702357466       31.1482153365  WZ4       1717            0.0000000000
     25431      8477  TIP3      H2             22.2700796015      -13.8235057466       30.0343653365  WZ4       1717            0.0000000000
     25432      8478  TIP3      OH2            23.7080696015      -13.7944257466       16.7741053365  WZ4       1718            0.0000000000
     25433      8478  TIP3      H1             23.5275696015      -13.9493057466       15.8469353365  WZ4       1718            0.0000000000
     25434      8478  TIP3      H2             24.6581196015      -13.6865557466       16.8188953365  WZ4       1718            0.0000000000
     25435      8479  TIP3      OH2            26.9457796015      -11.6733657466       34.1452253365  WZ4       1719            0.0000000000
     25436      8479  TIP3      H1             27.8988996015      -11.5894557466       34.1178253365  WZ4       1719            0.0000000000
     25437      8479  TIP3      H2             26.7852396015      -12.3851857466       34.7647153365  WZ4       1719            0.0000000000
     25438      8480  TIP3      OH2            33.0978996015      -11.4400057466       16.2199153365  WZ4       1720            0.0000000000
     25439      8480  TIP3      H1             32.8243796015      -11.8644557466       15.4067453365  WZ4       1720            0.0000000000
     25440      8480  TIP3      H2             33.1373096015      -10.5085557466       16.0029553365  WZ4       1720            0.0000000000
     25441      8481  TIP3      OH2            22.2653296015      -16.7898157466       31.9500553365  WZ4       1721            0.0000000000
     25442      8481  TIP3      H1             22.4154196015      -17.5186857466       31.3480253365  WZ4       1721            0.0000000000
     25443      8481  TIP3      H2             22.2675696015      -16.0126457466       31.3912753365  WZ4       1721            0.0000000000
     25444      8482  TIP3      OH2            22.6778996015      -18.4202357466       29.4427953365  WZ4       1722            0.0000000000
     25445      8482  TIP3      H1             23.2136496015      -17.9685657466       28.7907253365  WZ4       1722            0.0000000000
     25446      8482  TIP3      H2             21.8258596015      -18.5282557466       29.0202053365  WZ4       1722            0.0000000000
     25447      8483  TIP3      OH2            24.2597396015      -12.9806157466       29.6823153365  WZ4       1723            0.0000000000
     25448      8483  TIP3      H1             25.0102196015      -13.1368657466       29.1090953365  WZ4       1723            0.0000000000
     25449      8483  TIP3      H2             23.9205696015      -12.1289557466       29.4068653365  WZ4       1723            0.0000000000
     25450      8484  TIP3      OH2            29.9920796015      -12.3769157466       32.7881153365  WZ4       1725            0.0000000000
     25451      8484  TIP3      H1             29.7105796015      -11.6674557466       32.2104953365  WZ4       1725            0.0000000000
     25452      8484  TIP3      H2             30.9345096015      -12.4496157466       32.6372353365  WZ4       1725            0.0000000000
     25453      8485  TIP3      OH2            20.7439596015      -15.5914657466       33.8616153365  WZ4       1726            0.0000000000
     25454      8485  TIP3      H1             19.9768596015      -16.1239857466       33.6513753365  WZ4       1726            0.0000000000
     25455      8485  TIP3      H2             21.4228596015      -15.9014257466       33.2622453365  WZ4       1726            0.0000000000
     25456      8486  TIP3      OH2            23.4834496015      -20.9636657466       29.8741553365  WZ4       1727            0.0000000000
     25457      8486  TIP3      H1             23.3854096015      -20.0173457466       29.7687753365  WZ4       1727            0.0000000000
     25458      8486  TIP3      H2             22.7410696015      -21.3362857466       29.3985053365  WZ4       1727            0.0000000000
     25459      8487  TIP3      OH2            18.9242396015      -17.6710857466       33.5660853365  WZ4       1731            0.0000000000
     25460      8487  TIP3      H1             19.1359796015      -18.3774757466       32.9558353365  WZ4       1731            0.0000000000
     25461      8487  TIP3      H2             18.8129896015      -18.1084857466       34.4102053365  WZ4       1731            0.0000000000
     25462      8488  TIP3      OH2            23.6052396015       -3.1040557466       17.7754653365  WZ4       1734            0.0000000000
     25463      8488  TIP3      H1             24.5383096015       -2.9461857466       17.9193053365  WZ4       1734            0.0000000000
     25464      8488  TIP3      H2             23.3411196015       -2.4287557466       17.1506153365  WZ4       1734            0.0000000000
     25465      8489  TIP3      OH2            17.1737296015       -8.4676757466       17.2582753365  WZ4       1735            0.0000000000
     25466      8489  TIP3      H1             18.0876496015       -8.3887857466       17.5316653365  WZ4       1735            0.0000000000
     25467      8489  TIP3      H2             17.1810396015       -9.1547157466       16.5918353365  WZ4       1735            0.0000000000
     25468      8490  TIP3      OH2            15.8227896015       -3.0748257466       22.3356653365  WZ4       1736            0.0000000000
     25469      8490  TIP3      H1             15.1754996015       -3.5366557466       21.8027853365  WZ4       1736            0.0000000000
     25470      8490  TIP3      H2             16.1772496015       -3.7464957466       22.9182853365  WZ4       1736            0.0000000000
     25471      8491  TIP3      OH2            16.6927096015       -4.9941257466       24.1402853365  WZ4       1737            0.0000000000
     25472      8491  TIP3      H1             16.3583896015       -5.8743957466       24.3123053365  WZ4       1737            0.0000000000
     25473      8491  TIP3      H2             16.9149496015       -4.6486257466       25.0048453365  WZ4       1737            0.0000000000
     25474      8492  TIP3      OH2            33.5561796015      -10.5711957466       20.1949553365  WZ4       1741            0.0000000000
     25475      8492  TIP3      H1             34.4063196015      -10.1501057466       20.3221153365  WZ4       1741            0.0000000000
     25476      8492  TIP3      H2             33.5616896015      -11.3111857466       20.8020953365  WZ4       1741            0.0000000000
     25477      8493  TIP3      OH2            33.9507396015      -12.5174557466       22.0185253365  WZ4       1742            0.0000000000
     25478      8493  TIP3      H1             33.2241996015      -12.9971957466       22.4162853365  WZ4       1742            0.0000000000
     25479      8493  TIP3      H2             34.5320696015      -12.3119857466       22.7506853365  WZ4       1742            0.0000000000
     25480      8494  TIP3      OH2            33.7098596015       -9.7327057466       26.9662853365  WZ4       1743            0.0000000000
     25481      8494  TIP3      H1             34.5432796015      -10.1107057466       26.6856453365  WZ4       1743            0.0000000000
     25482      8494  TIP3      H2             33.8218896015       -8.7895857466       26.8471953365  WZ4       1743            0.0000000000
     25483      8495  TIP3      OH2            32.1960896015       -6.8549557466       29.2731253365  WZ4       1744            0.0000000000
     25484      8495  TIP3      H1             31.5486196015       -6.5298057466       29.8986453365  WZ4       1744            0.0000000000
     25485      8495  TIP3      H2             31.6784896015       -7.2951857466       28.5989553365  WZ4       1744            0.0000000000
     25486      8496  TIP3      OH2            34.2190496015      -12.6166057466       18.4096553365  WZ4       1745            0.0000000000
     25487      8496  TIP3      H1             33.6971596015      -12.2601957466       17.6907453365  WZ4       1745            0.0000000000
     25488      8496  TIP3      H2             34.1859696015      -11.9418257466       19.0877453365  WZ4       1745            0.0000000000
     25489      8497  TIP3      OH2            32.5679496015      -15.3770457466       16.9603653365  WZ4       1746            0.0000000000
     25490      8497  TIP3      H1             32.6643896015      -14.7103457466       16.2803353365  WZ4       1746            0.0000000000
     25491      8497  TIP3      H2             32.4279096015      -16.1924157466       16.4789153365  WZ4       1746            0.0000000000
     25492      8498  TIP3      OH2            31.7374196015      -13.9968057466       22.5813953365  WZ4       1747            0.0000000000
     25493      8498  TIP3      H1             31.5872996015      -14.9419457466       22.5611753365  WZ4       1747            0.0000000000
     25494      8498  TIP3      H2             31.3838696015      -13.7156657466       23.4253053365  WZ4       1747            0.0000000000
     25495      8499  TIP3      OH2            16.7726596015      -11.9185857466       26.5917753365  WZ4       1748            0.0000000000
     25496      8499  TIP3      H1             16.9569496015      -12.0004157466       25.6560653365  WZ4       1748            0.0000000000
     25497      8499  TIP3      H2             17.6219496015      -12.0428857466       27.0154153365  WZ4       1748            0.0000000000
     25498      8500  TIP3      OH2            31.8153296015      -17.9690657466       16.0779153365  WZ4       1751            0.0000000000
     25499      8500  TIP3      H1             32.4259096015      -18.3403857466       16.7147353365  WZ4       1751            0.0000000000
     25500      8500  TIP3      H2             30.9784796015      -18.3903757466       16.2739153365  WZ4       1751            0.0000000000
     25501      8501  TIP3      OH2            31.4478996015      -16.4142257466       21.0439053365  WZ4       1752            0.0000000000
     25502      8501  TIP3      H1             31.7276096015      -17.3211857466       21.1680753365  WZ4       1752            0.0000000000
     25503      8501  TIP3      H2             32.2070696015      -15.9800757466       20.6548253365  WZ4       1752            0.0000000000
     25504      8502  TIP3      OH2            32.0597296015      -15.8324857466       26.4797953365  WZ4       1753            0.0000000000
     25505      8502  TIP3      H1             32.9925296015      -15.6204957466       26.4453953365  WZ4       1753            0.0000000000
     25506      8502  TIP3      H2             31.8244796015      -15.7312757466       27.4020953365  WZ4       1753            0.0000000000
     25507      8503  TIP3      OH2            32.0889196015      -15.0959557466       29.2557353365  WZ4       1754            0.0000000000
     25508      8503  TIP3      H1             31.2460496015      -14.8279157466       29.6217153365  WZ4       1754            0.0000000000
     25509      8503  TIP3      H2             32.5313496015      -14.2737657466       29.0448453365  WZ4       1754            0.0000000000
     25510      8504  TIP3      OH2            16.3701396015      -16.6480857466       32.7326553365  WZ4       1755            0.0000000000
     25511      8504  TIP3      H1             17.2896296015      -16.7702557466       32.9689653365  WZ4       1755            0.0000000000
     25512      8504  TIP3      H2             15.9205896015      -17.3981157466       33.1220053365  WZ4       1755            0.0000000000
     25513      8505  TIP3      OH2            32.0613796015      -19.1512957466       21.0921053365  WZ4       1757            0.0000000000
     25514      8505  TIP3      H1             32.2438796015      -19.6001457466       21.9176053365  WZ4       1757            0.0000000000
     25515      8505  TIP3      H2             31.4616696015      -19.7358557466       20.6285653365  WZ4       1757            0.0000000000
     25516      8506  TIP3      OH2            17.5913896015      -18.3359257466       25.6239453365  WZ4       1758            0.0000000000
     25517      8506  TIP3      H1             18.0365496015      -19.1276757466       25.9259153365  WZ4       1758            0.0000000000
     25518      8506  TIP3      H2             18.0576896015      -17.6194057466       26.0545053365  WZ4       1758            0.0000000000
     25519      8507  TIP3      OH2            15.8954196015      -15.3366257466       26.6929653365  WZ4       1759            0.0000000000
     25520      8507  TIP3      H1             16.3873996015      -15.5575757466       25.9021653365  WZ4       1759            0.0000000000
     25521      8507  TIP3      H2             16.2575096015      -14.4962857466       26.9739153365  WZ4       1759            0.0000000000
     25522      8508  TIP3      OH2            16.2090696015      -19.0787157466       20.7472053365  WZ4       1762            0.0000000000
     25523      8508  TIP3      H1             15.2839096015      -18.8700557466       20.6177553365  WZ4       1762            0.0000000000
     25524      8508  TIP3      H2             16.6630596015      -18.5946357466       20.0574353365  WZ4       1762            0.0000000000
     25525      8509  TIP3      OH2            30.9797896015       -4.0945457466       22.6929453365  WZ4       1763            0.0000000000
     25526      8509  TIP3      H1             31.6320796015       -4.4423357466       22.0848553365  WZ4       1763            0.0000000000
     25527      8509  TIP3      H2             31.4901696015       -3.6062257466       23.3389153365  WZ4       1763            0.0000000000
     25528      8510  TIP3      OH2            16.1726096015      -20.3408157466       29.0914553365  WZ4       1764            0.0000000000
     25529      8510  TIP3      H1             15.5076596015      -20.5867857466       29.7345453365  WZ4       1764            0.0000000000
     25530      8510  TIP3      H2             15.7297396015      -19.7187757466       28.5142553365  WZ4       1764            0.0000000000
     25531      8511  TIP3      OH2            18.3645396015       -7.1654057466       33.2360353365  WZ4       1765            0.0000000000
     25532      8511  TIP3      H1             17.5437896015       -6.9907557466       32.7755053365  WZ4       1765            0.0000000000
     25533      8511  TIP3      H2             18.1123196015       -7.2389357466       34.1564753365  WZ4       1765            0.0000000000
     25534      8512  TIP3      OH2            21.3188296015       -6.1912857466       29.4944353365  WZ4       1766            0.0000000000
     25535      8512  TIP3      H1             20.8939396015       -5.3814357466       29.2118953365  WZ4       1766            0.0000000000
     25536      8512  TIP3      H2             22.2231096015       -6.1058757466       29.1924153365  WZ4       1766            0.0000000000
     25537      8513  TIP3      OH2            18.7204996015       -2.9348957466       29.5419653365  WZ4       1770            0.0000000000
     25538      8513  TIP3      H1             18.0001396015       -2.4947957466       29.0907353365  WZ4       1770            0.0000000000
     25539      8513  TIP3      H2             18.3548996015       -3.1854257466       30.3903653365  WZ4       1770            0.0000000000
     25540      8514  TIP3      OH2            21.1877596015       -3.3345057466       28.5716853365  WZ4       1771            0.0000000000
     25541      8514  TIP3      H1             20.3229796015       -3.2626557466       28.9756953365  WZ4       1771            0.0000000000
     25542      8514  TIP3      H2             21.1326596015       -2.7877757466       27.7879353365  WZ4       1771            0.0000000000
     25543      8515  TIP3      OH2            25.8983196015       -3.4466157466       27.7472853365  WZ4       1772            0.0000000000
     25544      8515  TIP3      H1             25.4417196015       -2.9176457466       27.0931253365  WZ4       1772            0.0000000000
     25545      8515  TIP3      H2             26.0611196015       -2.8434757466       28.4725153365  WZ4       1772            0.0000000000
     25546      8516  TIP3      OH2            28.2259496015       -4.5686557466       28.6923153365  WZ4       1773            0.0000000000
     25547      8516  TIP3      H1             27.3213196015       -4.4036357466       28.4265253365  WZ4       1773            0.0000000000
     25548      8516  TIP3      H2             28.6548096015       -3.7154357466       28.6266553365  WZ4       1773            0.0000000000
     25549      8517  TIP3      OH2            30.8301396015       -2.9987457466       28.9870953365  WZ4       1774            0.0000000000
     25550      8517  TIP3      H1             30.6483396015       -2.0828557466       28.7765853365  WZ4       1774            0.0000000000
     25551      8517  TIP3      H2             31.0069196015       -3.4090357466       28.1405553365  WZ4       1774            0.0000000000
     25552      8518  TIP3      OH2            18.1353096015       -4.3116457466       26.4521453365  WZ4       1775            0.0000000000
     25553      8518  TIP3      H1             18.1169096015       -4.7371357466       27.3093753365  WZ4       1775            0.0000000000
     25554      8518  TIP3      H2             18.9400996015       -4.6301457466       26.0433653365  WZ4       1775            0.0000000000
     25555      8519  TIP3      OH2            20.2766196015       -5.6017757466       25.1071353365  WZ4       1776            0.0000000000
     25556      8519  TIP3      H1             20.0576896015       -6.5180357466       25.2767353365  WZ4       1776            0.0000000000
     25557      8519  TIP3      H2             21.1008396015       -5.4617357466       25.5732753365  WZ4       1776            0.0000000000
     25558      8520  TIP3      OH2            22.8138696015       -5.1318457466       25.9559353365  WZ4       1777            0.0000000000
     25559      8520  TIP3      H1             23.0264396015       -6.0199457466       25.6690253365  WZ4       1777            0.0000000000
     25560      8520  TIP3      H2             22.8783796015       -5.1660757466       26.9103353365  WZ4       1777            0.0000000000
     25561      8521  TIP3      OH2            26.3222396015      -19.4677857466       25.1002653365  WZ4       1778            0.0000000000
     25562      8521  TIP3      H1             25.6479196015      -20.0972257466       25.3558453365  WZ4       1778            0.0000000000
     25563      8521  TIP3      H2             26.8861596015      -19.9518957466       24.4970553365  WZ4       1778            0.0000000000
     25564      8522  TIP3      OH2            31.4649596015      -21.3603857466       25.2129753365  WZ4       1779            0.0000000000
     25565      8522  TIP3      H1             32.0687196015      -20.8128457466       24.7110753365  WZ4       1779            0.0000000000
     25566      8522  TIP3      H2             30.5951596015      -21.0413457466       24.9723853365  WZ4       1779            0.0000000000
     25567      8523  TIP3      OH2            18.6489896015      -20.8337557466       22.9222553365  WZ4       1781            0.0000000000
     25568      8523  TIP3      H1             17.8719696015      -21.0682657466       22.4148453365  WZ4       1781            0.0000000000
     25569      8523  TIP3      H2             19.1793496015      -21.6305457466       22.9310553365  WZ4       1781            0.0000000000
     25570      8524  TIP3      OH2            17.4853296015      -21.0359457466       18.7258653365  WZ4       1782            0.0000000000
     25571      8524  TIP3      H1             17.9243996015      -20.4248957466       18.1342153365  WZ4       1782            0.0000000000
     25572      8524  TIP3      H2             16.8515696015      -20.4975357466       19.1998653365  WZ4       1782            0.0000000000
     25573      8525  TIP3      OH2            23.2282496015      -20.9070457466       22.7355653365  WZ4       1783            0.0000000000
     25574      8525  TIP3      H1             24.1025896015      -20.5186157466       22.7059953365  WZ4       1783            0.0000000000
     25575      8525  TIP3      H2             23.0923296015      -21.1222657466       23.6582853365  WZ4       1783            0.0000000000
     25576      8526  TIP3      OH2            28.7850896015      -20.8770657466       24.3847353365  WZ4       1784            0.0000000000
     25577      8526  TIP3      H1             28.8612496015      -20.7819057466       23.4353353365  WZ4       1784            0.0000000000
     25578      8526  TIP3      H2             28.5100096015      -21.7847757466       24.5136453365  WZ4       1784            0.0000000000
     25579      8527  TIP3      OH2            30.1383496015      -20.8512857466       20.0772353365  WZ4       1785            0.0000000000
     25580      8527  TIP3      H1             29.4354596015      -20.2363657466       19.8673753365  WZ4       1785            0.0000000000
     25581      8527  TIP3      H2             29.6934896015      -21.6886157466       20.2083253365  WZ4       1785            0.0000000000
     25582      8528  TIP3      OH2            17.3862796015       -5.0877257466       19.6233753365  WZ4       1786            0.0000000000
     25583      8528  TIP3      H1             16.7012696015       -5.1258357466       18.9558853365  WZ4       1786            0.0000000000
     25584      8528  TIP3      H2             17.3899996015       -4.1749657466       19.9115853365  WZ4       1786            0.0000000000
     25585      8529  TIP3      OH2            19.3462396015      -19.1197957466       17.1682753365  WZ4       1787            0.0000000000
     25586      8529  TIP3      H1             19.8375796015      -19.7495557466       16.6408253365  WZ4       1787            0.0000000000
     25587      8529  TIP3      H2             19.9698696015      -18.8238557466       17.8313953365  WZ4       1787            0.0000000000
     25588      8530  TIP3      OH2            24.3722496015      -18.8266457466       19.6253253365  WZ4       1788            0.0000000000
     25589      8530  TIP3      H1             24.5503796015      -19.4733257466       20.3081853365  WZ4       1788            0.0000000000
     25590      8530  TIP3      H2             24.3188696015      -17.9928757466       20.0924353365  WZ4       1788            0.0000000000
     25591      8531  TIP3      OH2            26.2506296015       -3.8782357466       18.0209953365  WZ4       1789            0.0000000000
     25592      8531  TIP3      H1             27.1166496015       -3.5114957466       17.8428153365  WZ4       1789            0.0000000000
     25593      8531  TIP3      H2             26.0039096015       -4.3174357466       17.2070753365  WZ4       1789            0.0000000000
     25594      8532  TIP3      OH2            32.9595896015       -4.3152057466       20.7001053365  WZ4       1790            0.0000000000
     25595      8532  TIP3      H1             32.7652996015       -5.0629957466       20.1350653365  WZ4       1790            0.0000000000
     25596      8532  TIP3      H2             32.9205996015       -3.5571957466       20.1168953365  WZ4       1790            0.0000000000
     25597      8533  TIP3      OH2            19.2043996015       -4.1676457466       16.6485853365  WZ4       1793            0.0000000000
     25598      8533  TIP3      H1             18.9368596015       -3.8813557466       17.5218953365  WZ4       1793            0.0000000000
     25599      8533  TIP3      H2             19.9756596015       -4.7137257466       16.8008353365  WZ4       1793            0.0000000000
     25600      8534  TIP3      OH2            36.1091996015       -9.2659357466       20.2364153365  WZ4       1805            0.0000000000
     25601      8534  TIP3      H1             35.8372896015       -9.0368357466       19.3477053365  WZ4       1805            0.0000000000
     25602      8534  TIP3      H2             36.1547696015       -8.4280557466       20.6969453365  WZ4       1805            0.0000000000
     25603      8535  TIP3      OH2            35.1891896015       -7.3808457466       26.4554053365  WZ4       1811            0.0000000000
     25604      8535  TIP3      H1             36.1352496015       -7.5251457466       26.4363553365  WZ4       1811            0.0000000000
     25605      8535  TIP3      H2             35.0768196015       -6.5965657466       26.9925253365  WZ4       1811            0.0000000000
     25606      8536  TIP3      OH2            36.8069596015       -6.7765757466       21.7892953365  WZ4       1834            0.0000000000
     25607      8536  TIP3      H1             35.9748196015       -6.3043057466       21.8164353365  WZ4       1834            0.0000000000
     25608      8536  TIP3      H2             37.3527896015       -6.2668157466       21.1906053365  WZ4       1834            0.0000000000
     25609      8537  TIP3      OH2            34.6787896015       -3.0748257466       22.3356653365  WZ4       1842            0.0000000000
     25610      8537  TIP3      H1             34.0314996015       -3.5366557466       21.8027853365  WZ4       1842            0.0000000000
     25611      8537  TIP3      H2             35.0332496015       -3.7464957466       22.9182853365  WZ4       1842            0.0000000000
     25612      8538  TIP3      OH2            35.5487096015       -4.9941257466       24.1402853365  WZ4       1843            0.0000000000
     25613      8538  TIP3      H1             35.2143896015       -5.8743957466       24.3123053365  WZ4       1843            0.0000000000
     25614      8538  TIP3      H2             35.7709496015       -4.6486257466       25.0048453365  WZ4       1843            0.0000000000
     25615      8539  TIP3      OH2            36.2422796015       -5.0877257466       19.6233753365  WZ4       1858            0.0000000000
     25616      8539  TIP3      H1             35.5572696015       -5.1258357466       18.9558853365  WZ4       1858            0.0000000000
     25617      8539  TIP3      H2             36.2459996015       -4.1749657466       19.9115853365  WZ4       1858            0.0000000000
     25618      8540  TIP3      OH2           -28.8407503985        7.1784742534       22.8810053365  WZ4       1863            0.0000000000
     25619      8540  TIP3      H1            -28.7516403985        8.1222942534       22.7487153365  WZ4       1863            0.0000000000
     25620      8540  TIP3      H2            -29.4789903985        6.9031142534       22.2229453365  WZ4       1863            0.0000000000
     25621      8541  TIP3      OH2           -29.9076203985        6.4335442534       26.2998253365  WZ4       1864            0.0000000000
     25622      8541  TIP3      H1            -29.9458703985        5.7871742534       27.0047853365  WZ4       1864            0.0000000000
     25623      8541  TIP3      H2            -30.2299703985        5.9669842534       25.5286953365  WZ4       1864            0.0000000000
     25624      8542  TIP3      OH2           -26.2016003985        9.3725842534       24.6013353365  WZ4       1866            0.0000000000
     25625      8542  TIP3      H1            -26.6423303985        8.6521842534       25.0518953365  WZ4       1866            0.0000000000
     25626      8542  TIP3      H2            -26.2146303985       10.0933042534       25.2311053365  WZ4       1866            0.0000000000
     25627      8543  TIP3      OH2           -29.0900503985       14.4767542534       24.8133753365  WZ4       1870            0.0000000000
     25628      8543  TIP3      H1            -28.4704103985       13.8002242534       24.5402953365  WZ4       1870            0.0000000000
     25629      8543  TIP3      H2            -29.2983103985       14.2588342534       25.7218653365  WZ4       1870            0.0000000000
     25630      8544  TIP3      OH2           -31.5181803985        8.8656842534       26.7059253365  WZ4       1871            0.0000000000
     25631      8544  TIP3      H1            -31.2143903985        8.1798242534       26.1113353365  WZ4       1871            0.0000000000
     25632      8544  TIP3      H2            -30.7967803985        8.9845542534       27.3237253365  WZ4       1871            0.0000000000
     25633      8545  TIP3      OH2           -22.8552003985        0.4672142534       27.5665453365  WZ4       1872            0.0000000000
     25634      8545  TIP3      H1            -22.8059803985        1.0773342534       28.3024553365  WZ4       1872            0.0000000000
     25635      8545  TIP3      H2            -22.4296903985        0.9283042534       26.8436553365  WZ4       1872            0.0000000000
     25636      8546  TIP3      OH2           -28.3774803985        3.2599242534       27.0334053365  WZ4       1873            0.0000000000
     25637      8546  TIP3      H1            -28.2348903985        2.3136242534       27.0535653365  WZ4       1873            0.0000000000
     25638      8546  TIP3      H2            -28.4835803985        3.4669042534       26.1048953365  WZ4       1873            0.0000000000
     25639      8547  TIP3      OH2           -35.2226503985        1.3615642534       24.3058853365  WZ4       1874            0.0000000000
     25640      8547  TIP3      H1            -35.1795403985        2.2214142534       23.8875153365  WZ4       1874            0.0000000000
     25641      8547  TIP3      H2            -35.6802403985        0.8090342534       23.6722053365  WZ4       1874            0.0000000000
     25642      8548  TIP3      OH2           -27.5003803985        1.4921242534       22.7067153365  WZ4       1875            0.0000000000
     25643      8548  TIP3      H1            -26.8539503985        1.1634442534       23.3314753365  WZ4       1875            0.0000000000
     25644      8548  TIP3      H2            -26.9904403985        2.0100242534       22.0838553365  WZ4       1875            0.0000000000
     25645      8549  TIP3      OH2           -33.4460503985        5.3082742534       24.2831753365  WZ4       1877            0.0000000000
     25646      8549  TIP3      H1            -32.8299503985        4.7818142534       24.7925753365  WZ4       1877            0.0000000000
     25647      8549  TIP3      H2            -34.0321703985        4.6681442534       23.8795353365  WZ4       1877            0.0000000000
     25648      8550  TIP3      OH2           -22.4637403985        1.9451342534       29.8025253365  WZ4       1878            0.0000000000
     25649      8550  TIP3      H1            -23.1522803985        2.6032042534       29.7071853365  WZ4       1878            0.0000000000
     25650      8550  TIP3      H2            -22.4482803985        1.7479242534       30.7390653365  WZ4       1878            0.0000000000
     25651      8551  TIP3      OH2           -29.0434803985        9.7795142534       21.9238753365  WZ4       1880            0.0000000000
     25652      8551  TIP3      H1            -29.3389703985        9.4567442534       21.0725653365  WZ4       1880            0.0000000000
     25653      8551  TIP3      H2            -29.3677003985       10.6791842534       21.9651353365  WZ4       1880            0.0000000000
     25654      8552  TIP3      OH2           -33.8433203985        7.9549742534       28.6673353365  WZ4       1881            0.0000000000
     25655      8552  TIP3      H1            -34.5834103985        8.5531242534       28.7708553365  WZ4       1881            0.0000000000
     25656      8552  TIP3      H2            -33.1293703985        8.5089342534       28.3516953365  WZ4       1881            0.0000000000
     25657      8553  TIP3      OH2           -25.7365403985        0.7830542534       24.6873053365  WZ4       1882            0.0000000000
     25658      8553  TIP3      H1            -25.9517403985        0.0173942534       25.2199053365  WZ4       1882            0.0000000000
     25659      8553  TIP3      H2            -25.0808003985        1.2555142534       25.2001553365  WZ4       1882            0.0000000000
     25660      8554  TIP3      OH2           -25.6898303985       11.2116542534       26.9492653365  WZ4       1886            0.0000000000
     25661      8554  TIP3      H1            -26.6314603985       11.2700442534       27.1109553365  WZ4       1886            0.0000000000
     25662      8554  TIP3      H2            -25.4132203985       12.1177042534       26.8122353365  WZ4       1886            0.0000000000
     25663      8555  TIP3      OH2           -25.3891303985       -0.5018157466       28.3666553365  WZ4       1887            0.0000000000
     25664      8555  TIP3      H1            -26.1252103985        0.1088942534       28.3287853365  WZ4       1887            0.0000000000
     25665      8555  TIP3      H2            -24.7057303985       -0.0869157466       27.8402953365  WZ4       1887            0.0000000000
     25666      8556  TIP3      OH2           -27.4377103985       12.9930042534       23.5744253365  WZ4       1889            0.0000000000
     25667      8556  TIP3      H1            -27.0124803985       12.2857942534       23.0893853365  WZ4       1889            0.0000000000
     25668      8556  TIP3      H2            -27.1207103985       13.7942742534       23.1576453365  WZ4       1889            0.0000000000
     25669      8557  TIP3      OH2           -26.2780603985       10.8938542534       22.0830853365  WZ4       1890            0.0000000000
     25670      8557  TIP3      H1            -26.5355803985       10.2038642534       21.4716753365  WZ4       1890            0.0000000000
     25671      8557  TIP3      H2            -26.2069803985       10.4509742534       22.9286753365  WZ4       1890            0.0000000000
     25672      8558  TIP3      OH2           -24.5920403985        9.4605242534       30.5604353365  WZ4       1891            0.0000000000
     25673      8558  TIP3      H1            -24.4524103985        8.8687742534       29.8211353365  WZ4       1891            0.0000000000
     25674      8558  TIP3      H2            -24.4247603985       10.3331142534       30.2043153365  WZ4       1891            0.0000000000
     25675      8559  TIP3      OH2           -30.1195003985        6.4224742534       20.3330353365  WZ4       1892            0.0000000000
     25676      8559  TIP3      H1            -30.8309503985        6.9574442534       19.9810853365  WZ4       1892            0.0000000000
     25677      8559  TIP3      H2            -29.4285403985        6.4776842534       19.6729253365  WZ4       1892            0.0000000000
     25678      8560  TIP3      OH2           -30.0655803985        4.8799042534       17.3715353365  WZ4       1893            0.0000000000
     25679      8560  TIP3      H1            -29.3645903985        4.9025942534       18.0229353365  WZ4       1893            0.0000000000
     25680      8560  TIP3      H2            -29.7632903985        4.2518742534       16.7154653365  WZ4       1893            0.0000000000
     25681      8561  TIP3      OH2           -22.7501103985        5.8003242534       28.6264753365  WZ4       1894            0.0000000000
     25682      8561  TIP3      H1            -23.4027003985        6.4948842534       28.7155653365  WZ4       1894            0.0000000000
     25683      8561  TIP3      H2            -22.2850803985        6.0104142534       27.8166353365  WZ4       1894            0.0000000000
     25684      8562  TIP3      OH2           -26.7137303985        6.6318042534       21.2846253365  WZ4       1895            0.0000000000
     25685      8562  TIP3      H1            -27.4456303985        6.8601742534       21.8576853365  WZ4       1895            0.0000000000
     25686      8562  TIP3      H2            -26.2665103985        5.9180742534       21.7393753365  WZ4       1895            0.0000000000
     25687      8563  TIP3      OH2           -26.8163803985        4.8060642534       30.3523253365  WZ4       1896            0.0000000000
     25688      8563  TIP3      H1            -26.7364703985        5.5695042534       30.9241753365  WZ4       1896            0.0000000000
     25689      8563  TIP3      H2            -27.4176103985        5.0853042534       29.6618353365  WZ4       1896            0.0000000000
     25690      8564  TIP3      OH2           -35.0683603985        7.2624242534       23.1671253365  WZ4       1897            0.0000000000
     25691      8564  TIP3      H1            -35.3988403985        6.8917642534       22.3488253365  WZ4       1897            0.0000000000
     25692      8564  TIP3      H2            -34.4799503985        6.5918242534       23.5139553365  WZ4       1897            0.0000000000
     25693      8565  TIP3      OH2           -33.7016103985       10.6904842534       25.8483453365  WZ4       1898            0.0000000000
     25694      8565  TIP3      H1            -33.7964803985       10.1117942534       25.0918053365  WZ4       1898            0.0000000000
     25695      8565  TIP3      H2            -32.9722503985       10.3190542534       26.3446253365  WZ4       1898            0.0000000000
     25696      8566  TIP3      OH2           -34.7018103985        6.0309842534       26.8006253365  WZ4       1899            0.0000000000
     25697      8566  TIP3      H1            -34.1365603985        6.1524042534       26.0377453365  WZ4       1899            0.0000000000
     25698      8566  TIP3      H2            -34.3829203985        6.6684842534       27.4394753365  WZ4       1899            0.0000000000
     25699      8567  TIP3      OH2           -28.3925903985       11.5341742534       27.5346753365  WZ4       1900            0.0000000000
     25700      8567  TIP3      H1            -28.6329303985       12.1964842534       28.1825953365  WZ4       1900            0.0000000000
     25701      8567  TIP3      H2            -28.5907703985       10.6996942534       27.9596353365  WZ4       1900            0.0000000000
     25702      8568  TIP3      OH2           -27.8427803985        5.7940942534       18.9697453365  WZ4       1902            0.0000000000
     25703      8568  TIP3      H1            -27.2632303985        5.9441242534       19.7166353365  WZ4       1902            0.0000000000
     25704      8568  TIP3      H2            -27.4287803985        6.2648342534       18.2463853365  WZ4       1902            0.0000000000
     25705      8569  TIP3      OH2           -30.1162903985       12.5309442534       22.4050553365  WZ4       1904            0.0000000000
     25706      8569  TIP3      H1            -29.6425303985       12.8265742534       23.1824753365  WZ4       1904            0.0000000000
     25707      8569  TIP3      H2            -30.6793603985       13.2691042534       22.1720153365  WZ4       1904            0.0000000000
     25708      8570  TIP3      OH2           -24.1439403985       -2.4558657466       18.7827153365  WZ4       1906            0.0000000000
     25709      8570  TIP3      H1            -25.0438703985       -2.3169657466       19.0777753365  WZ4       1906            0.0000000000
     25710      8570  TIP3      H2            -23.8921003985       -1.6244057466       18.3808853365  WZ4       1906            0.0000000000
     25711      8571  TIP3      OH2           -36.0780903985        6.3318542534       20.7564053365  WZ4       1907            0.0000000000
     25712      8571  TIP3      H1            -36.3699603985        7.1000242534       20.2655353365  WZ4       1907            0.0000000000
     25713      8571  TIP3      H2            -36.7525703985        5.6724742534       20.5935453365  WZ4       1907            0.0000000000
     25714      8572  TIP3      OH2           -22.9548003985       11.9103742534       17.1591053365  WZ4       1908            0.0000000000
     25715      8572  TIP3      H1            -22.8814503985       12.8493942534       17.3296353365  WZ4       1908            0.0000000000
     25716      8572  TIP3      H2            -22.0492903985       11.6052342534       17.1028353365  WZ4       1908            0.0000000000
     25717      8573  TIP3      OH2           -22.0369603985       12.1411242534       32.1377753365  WZ4       1911            0.0000000000
     25718      8573  TIP3      H1            -22.0862803985       11.1859342534       32.1005353365  WZ4       1911            0.0000000000
     25719      8573  TIP3      H2            -22.8637303985       12.4086542534       32.5391553365  WZ4       1911            0.0000000000
     25720      8574  TIP3      OH2           -31.0585603985       11.7150442534       31.0139153365  WZ4       1912            0.0000000000
     25721      8574  TIP3      H1            -30.9711003985       12.5415042534       31.4888253365  WZ4       1912            0.0000000000
     25722      8574  TIP3      H2            -31.9220503985       11.3854242534       31.2628453365  WZ4       1912            0.0000000000
     25723      8575  TIP3      OH2           -30.6439803985       15.4874142534       20.8199753365  WZ4       1913            0.0000000000
     25724      8575  TIP3      H1            -30.7193803985       15.3661342534       19.8734953365  WZ4       1913            0.0000000000
     25725      8575  TIP3      H2            -30.6111103985       16.4366842534       20.9384353365  WZ4       1913            0.0000000000
     25726      8576  TIP3      OH2           -27.5423803985       14.6414342534       17.8222153365  WZ4       1915            0.0000000000
     25727      8576  TIP3      H1            -27.1675403985       13.8970442534       17.3514753365  WZ4       1915            0.0000000000
     25728      8576  TIP3      H2            -27.5380103985       14.3714942534       18.7405453365  WZ4       1915            0.0000000000
     25729      8577  TIP3      OH2           -27.8735703985       14.5671442534       20.5714353365  WZ4       1916            0.0000000000
     25730      8577  TIP3      H1            -28.8085903985       14.6673342534       20.7501353365  WZ4       1916            0.0000000000
     25731      8577  TIP3      H2            -27.5933803985       13.8577442534       21.1497553365  WZ4       1916            0.0000000000
     25732      8578  TIP3      OH2           -24.8849803985        3.6343742534       32.6179953365  WZ4       1917            0.0000000000
     25733      8578  TIP3      H1            -25.2923003985        4.1149342534       31.8973253365  WZ4       1917            0.0000000000
     25734      8578  TIP3      H2            -24.8444103985        2.7289742534       32.3100753365  WZ4       1917            0.0000000000
     25735      8579  TIP3      OH2           -26.3654703985        6.8269242534       16.5995353365  WZ4       1922            0.0000000000
     25736      8579  TIP3      H1            -26.3233903985        6.6043142534       15.6695353365  WZ4       1922            0.0000000000
     25737      8579  TIP3      H2            -25.5162603985        7.2256342534       16.7895253365  WZ4       1922            0.0000000000
     25738      8580  TIP3      OH2           -30.7927203985        0.7027442534       17.2698653365  WZ4       1923            0.0000000000
     25739      8580  TIP3      H1            -31.0462403985        0.7219042534       18.1926753365  WZ4       1923            0.0000000000
     25740      8580  TIP3      H2            -31.0495103985       -0.1687157466       16.9684853365  WZ4       1923            0.0000000000
     25741      8581  TIP3      OH2           -35.0293103985        3.6748242534       22.6171053365  WZ4       1925            0.0000000000
     25742      8581  TIP3      H1            -35.9220203985        3.3344342534       22.5584853365  WZ4       1925            0.0000000000
     25743      8581  TIP3      H2            -34.5786503985        3.2979142534       21.8614253365  WZ4       1925            0.0000000000
     25744      8582  TIP3      OH2           -29.4937603985        4.0908542534       21.4341853365  WZ4       1926            0.0000000000
     25745      8582  TIP3      H1            -29.9027303985        4.9057142534       21.1426653365  WZ4       1926            0.0000000000
     25746      8582  TIP3      H2            -28.7731403985        3.9508642534       20.8198953365  WZ4       1926            0.0000000000
     25747      8583  TIP3      OH2           -28.4889903985        3.5368942534       24.2481553365  WZ4       1928            0.0000000000
     25748      8583  TIP3      H1            -28.6845403985        4.1425742534       23.5332153365  WZ4       1928            0.0000000000
     25749      8583  TIP3      H2            -28.3077303985        2.7034142534       23.8137853365  WZ4       1928            0.0000000000
     25750      8584  TIP3      OH2           -33.9104303985        1.1483942534       16.3709053365  WZ4       1930            0.0000000000
     25751      8584  TIP3      H1            -34.3413603985        0.7034042534       17.1006453365  WZ4       1930            0.0000000000
     25752      8584  TIP3      H2            -34.6285603985        1.5200242534       15.8586553365  WZ4       1930            0.0000000000
     25753      8585  TIP3      OH2           -29.2250703985        5.1750242534       28.9193953365  WZ4       1933            0.0000000000
     25754      8585  TIP3      H1            -28.9015903985        4.5439942534       28.2764453365  WZ4       1933            0.0000000000
     25755      8585  TIP3      H2            -29.6651403985        4.6402442534       29.5801353365  WZ4       1933            0.0000000000
     25756      8586  TIP3      OH2           -32.4477803985        1.1025742534       23.7035153365  WZ4       1934            0.0000000000
     25757      8586  TIP3      H1            -33.3586703985        1.1592542534       23.9921153365  WZ4       1934            0.0000000000
     25758      8586  TIP3      H2            -31.9424903985        1.0421242534       24.5142353365  WZ4       1934            0.0000000000
     25759      8587  TIP3      OH2           -37.6194403985        2.7312042534       22.5302753365  WZ4       1935            0.0000000000
     25760      8587  TIP3      H1            -38.5086403985        2.8307542534       22.1902353365  WZ4       1935            0.0000000000
     25761      8587  TIP3      H2            -37.3229503985        1.8895042534       22.1840653365  WZ4       1935            0.0000000000
     25762      8588  TIP3      OH2           -33.9662603985        2.7314642534       20.1867353365  WZ4       1936            0.0000000000
     25763      8588  TIP3      H1            -33.0347103985        2.8604642534       20.3650453365  WZ4       1936            0.0000000000
     25764      8588  TIP3      H2            -34.1812303985        3.4008942534       19.5372053365  WZ4       1936            0.0000000000
     25765      8589  TIP3      OH2           -28.0425903985        0.3372042534       26.9676953365  WZ4       1937            0.0000000000
     25766      8589  TIP3      H1            -28.7194303985        0.4685142534       27.6316653365  WZ4       1937            0.0000000000
     25767      8589  TIP3      H2            -28.5281003985        0.1821542534       26.1574653365  WZ4       1937            0.0000000000
     25768      8590  TIP3      OH2           -35.2922403985        3.9256842534       17.7533453365  WZ4       1938            0.0000000000
     25769      8590  TIP3      H1            -35.8347303985        3.5460642534       17.0621053365  WZ4       1938            0.0000000000
     25770      8590  TIP3      H2            -34.4587503985        4.1201542534       17.3247553365  WZ4       1938            0.0000000000
     25771      8591  TIP3      OH2           -31.1278103985        3.8898742534       25.5904753365  WZ4       1941            0.0000000000
     25772      8591  TIP3      H1            -30.5634703985        3.3435342534       25.0434353365  WZ4       1941            0.0000000000
     25773      8591  TIP3      H2            -31.2754703985        3.3680642534       26.3792353365  WZ4       1941            0.0000000000
     25774      8592  TIP3      OH2           -36.1258403985        0.0264842534       22.0089553365  WZ4       1942            0.0000000000
     25775      8592  TIP3      H1            -36.4428903985       -0.8759857466       21.9734953365  WZ4       1942            0.0000000000
     25776      8592  TIP3      H2            -35.3444303985        0.0282242534       21.4561153365  WZ4       1942            0.0000000000
     25777      8593  TIP3      OH2           -31.9569603985        8.4912542534       19.6891553365  WZ4       1944            0.0000000000
     25778      8593  TIP3      H1            -32.7018603985        7.9837842534       19.3669453365  WZ4       1944            0.0000000000
     25779      8593  TIP3      H2            -32.0912403985        8.5400542534       20.6356353365  WZ4       1944            0.0000000000
     25780      8594  TIP3      OH2           -24.8070703985        7.6240742534       28.4759153365  WZ4       1945            0.0000000000
     25781      8594  TIP3      H1            -24.1651903985        8.0807042534       27.9321353365  WZ4       1945            0.0000000000
     25782      8594  TIP3      H2            -25.6373803985        7.7373142534       28.0133253365  WZ4       1945            0.0000000000
     25783      8595  TIP3      OH2           -28.0592803985        1.3052442534       17.8884153365  WZ4       1946            0.0000000000
     25784      8595  TIP3      H1            -28.9978603985        1.4168042534       17.7372953365  WZ4       1946            0.0000000000
     25785      8595  TIP3      H2            -27.7620703985        2.1619342534       18.1949853365  WZ4       1946            0.0000000000
     25786      8596  TIP3      OH2           -27.3409303985        3.1725142534       19.5491553365  WZ4       1948            0.0000000000
     25787      8596  TIP3      H1            -26.4490303985        3.0350142534       19.8682753365  WZ4       1948            0.0000000000
     25788      8596  TIP3      H2            -27.2845703985        3.9631242534       19.0125053365  WZ4       1948            0.0000000000
     25789      8597  TIP3      OH2           -36.8321303985        7.7862542534       25.4589453365  WZ4       1949            0.0000000000
     25790      8597  TIP3      H1            -36.0874103985        7.7838242534       24.8575953365  WZ4       1949            0.0000000000
     25791      8597  TIP3      H2            -36.7544703985        6.9626342534       25.9404553365  WZ4       1949            0.0000000000
     25792      8598  TIP3      OH2           -29.8315503985        9.9496842534       18.7146153365  WZ4       1950            0.0000000000
     25793      8598  TIP3      H1            -30.1267103985       10.7764742534       19.0960953365  WZ4       1950            0.0000000000
     25794      8598  TIP3      H2            -30.5345503985        9.3303742534       18.9107553365  WZ4       1950            0.0000000000
     25795      8599  TIP3      OH2           -28.1873903985       11.1371342534       30.8765653365  WZ4       1953            0.0000000000
     25796      8599  TIP3      H1            -29.0879603985       11.3203942534       30.6089553365  WZ4       1953            0.0000000000
     25797      8599  TIP3      H2            -28.1532803985       11.3960642534       31.7974453365  WZ4       1953            0.0000000000
     25798      8600  TIP3      OH2           -22.4560603985        3.3819242534       19.2438253365  WZ4       1954            0.0000000000
     25799      8600  TIP3      H1            -23.0104303985        2.9857242534       18.5715753365  WZ4       1954            0.0000000000
     25800      8600  TIP3      H2            -22.3557003985        4.2924442534       18.9661553365  WZ4       1954            0.0000000000
     25801      8601  TIP3      OH2           -22.4928603985        9.1820942534       32.0809753365  WZ4       1955            0.0000000000
     25802      8601  TIP3      H1            -23.3440103985        9.4204742534       31.7136153365  WZ4       1955            0.0000000000
     25803      8601  TIP3      H2            -21.9025203985        9.1654142534       31.3276853365  WZ4       1955            0.0000000000
     25804      8602  TIP3      OH2           -24.1608903985       12.1679642534       19.7090353365  WZ4       1956            0.0000000000
     25805      8602  TIP3      H1            -24.5337803985       11.3423442534       20.0180953365  WZ4       1956            0.0000000000
     25806      8602  TIP3      H2            -23.8835403985       11.9849042534       18.8113753365  WZ4       1956            0.0000000000
     25807      8603  TIP3      OH2           -27.0005003985        6.9759142534       26.7302253365  WZ4       1957            0.0000000000
     25808      8603  TIP3      H1            -27.9288103985        6.7441042534       26.7031553365  WZ4       1957            0.0000000000
     25809      8603  TIP3      H2            -26.5493903985        6.1988942534       26.4001053365  WZ4       1957            0.0000000000
     25810      8604  TIP3      OH2           -34.4571903985       11.3040742534       22.8630953365  WZ4       1958            0.0000000000
     25811      8604  TIP3      H1            -33.9299703985       12.0775142534       22.6629753365  WZ4       1958            0.0000000000
     25812      8604  TIP3      H2            -35.3373403985       11.5289942534       22.5614953365  WZ4       1958            0.0000000000
     25813      8605  TIP3      OH2           -33.0299603985        8.9670642534       22.4395253365  WZ4       1960            0.0000000000
     25814      8605  TIP3      H1            -33.2709603985        9.8925042534       22.4810553365  WZ4       1960            0.0000000000
     25815      8605  TIP3      H2            -33.7706003985        8.5081942534       22.8359153365  WZ4       1960            0.0000000000
     25816      8606  TIP3      OH2           -32.5153003985       13.1164242534       28.7546353365  WZ4       1961            0.0000000000
     25817      8606  TIP3      H1            -32.1528303985       13.9709842534       28.5210753365  WZ4       1961            0.0000000000
     25818      8606  TIP3      H2            -31.9837803985       12.8245842534       29.4952653365  WZ4       1961            0.0000000000
     25819      8607  TIP3      OH2           -28.9712203985        9.2154942534       28.4551953365  WZ4       1963            0.0000000000
     25820      8607  TIP3      H1            -29.3970903985        8.9876642534       29.2815953365  WZ4       1963            0.0000000000
     25821      8607  TIP3      H2            -28.3906403985        8.4766742534       28.2727253365  WZ4       1963            0.0000000000
     25822      8608  TIP3      OH2           -26.7683303985       10.1445442534       17.5290953365  WZ4       1964            0.0000000000
     25823      8608  TIP3      H1            -26.4150203985        9.7645242534       18.3334453365  WZ4       1964            0.0000000000
     25824      8608  TIP3      H2            -27.7169803985       10.0510242534       17.6160253365  WZ4       1964            0.0000000000
     25825      8609  TIP3      OH2           -26.3128003985       13.7674442534       30.9246753365  WZ4       1965            0.0000000000
     25826      8609  TIP3      H1            -26.9144803985       13.2117342534       30.4293053365  WZ4       1965            0.0000000000
     25827      8609  TIP3      H2            -26.0314303985       14.4344242534       30.2984153365  WZ4       1965            0.0000000000
     25828      8610  TIP3      OH2           -22.2648903985       14.6237942534       17.7301153365  WZ4       1966            0.0000000000
     25829      8610  TIP3      H1            -21.5211003985       15.2098442534       17.5902753365  WZ4       1966            0.0000000000
     25830      8610  TIP3      H2            -22.9590803985       15.1923742534       18.0633553365  WZ4       1966            0.0000000000
     25831      8611  TIP3      OH2           -25.9024003985        8.8167442534       19.7558853365  WZ4       1968            0.0000000000
     25832      8611  TIP3      H1            -26.1796403985        8.0886742534       20.3119953365  WZ4       1968            0.0000000000
     25833      8611  TIP3      H2            -24.9751003985        8.9359442534       19.9611453365  WZ4       1968            0.0000000000
     25834      8612  TIP3      OH2           -32.6775503985       11.2561542534       15.9760953365  WZ4       1970            0.0000000000
     25835      8612  TIP3      H1            -32.4385703985       10.5079642534       15.4289853365  WZ4       1970            0.0000000000
     25836      8612  TIP3      H2            -32.9464203985       10.8683242534       16.8088753365  WZ4       1970            0.0000000000
     25837      8613  TIP3      OH2           -33.7404903985       10.8265342534       18.4323553365  WZ4       1971            0.0000000000
     25838      8613  TIP3      H1            -33.5936903985       10.3065142534       19.2224453365  WZ4       1971            0.0000000000
     25839      8613  TIP3      H2            -33.7433203985       11.7332942534       18.7389453365  WZ4       1971            0.0000000000
     25840      8614  TIP3      OH2           -28.6713803985        0.3934142534       20.3190253365  WZ4       1974            0.0000000000
     25841      8614  TIP3      H1            -28.4515503985        0.8649542534       19.5155653365  WZ4       1974            0.0000000000
     25842      8614  TIP3      H2            -28.1129803985        0.7876742534       20.9890853365  WZ4       1974            0.0000000000
     25843      8615  TIP3      OH2           -31.0027703985       12.5238942534       19.1817753365  WZ4       1975            0.0000000000
     25844      8615  TIP3      H1            -31.8191603985       13.0208642534       19.2342053365  WZ4       1975            0.0000000000
     25845      8615  TIP3      H2            -30.4731403985       12.9992442534       18.5416553365  WZ4       1975            0.0000000000
     25846      8616  TIP3      OH2           -31.4713903985        2.1212942534       21.1538653365  WZ4       1976            0.0000000000
     25847      8616  TIP3      H1            -30.6591303985        2.6256142534       21.2000353365  WZ4       1976            0.0000000000
     25848      8616  TIP3      H2            -31.7160903985        1.9762642534       22.0678253365  WZ4       1976            0.0000000000
     25849      8617  TIP3      OH2           -30.5877203985       -0.7974057466       22.0919753365  WZ4       1978            0.0000000000
     25850      8617  TIP3      H1            -30.9343703985       -0.1803457466       22.7364053365  WZ4       1978            0.0000000000
     25851      8617  TIP3      H2            -29.9290303985       -0.2968357466       21.6105253365  WZ4       1978            0.0000000000
     25852      8618  TIP3      OH2           -33.6644603985       13.5676142534       19.1634653365  WZ4       1979            0.0000000000
     25853      8618  TIP3      H1            -33.5035903985       14.3673642534       18.6627253365  WZ4       1979            0.0000000000
     25854      8618  TIP3      H2            -33.8616803985       13.8742142534       20.0485253365  WZ4       1979            0.0000000000
     25855      8619  TIP3      OH2           -34.9300203985        0.2655342534       18.7792253365  WZ4       1980            0.0000000000
     25856      8619  TIP3      H1            -35.0135403985        1.1538442534       19.1258653365  WZ4       1980            0.0000000000
     25857      8619  TIP3      H2            -34.0399903985        0.0002042534       19.0109053365  WZ4       1980            0.0000000000
     25858      8620  TIP3      OH2           -24.7311703985        1.0145942534       31.1734953365  WZ4       1981            0.0000000000
     25859      8620  TIP3      H1            -25.6475903985        1.2767642534       31.0858653365  WZ4       1981            0.0000000000
     25860      8620  TIP3      H2            -24.3956703985        1.0114942534       30.2770253365  WZ4       1981            0.0000000000
     25861      8621  TIP3      OH2           -26.1290703985        4.7646942534       25.2692253365  WZ4       1982            0.0000000000
     25862      8621  TIP3      H1            -26.9266303985        4.3497142534       24.9407253365  WZ4       1982            0.0000000000
     25863      8621  TIP3      H2            -25.6839603985        4.0740642534       25.7602753365  WZ4       1982            0.0000000000
     25864      8622  TIP3      OH2           -25.0426103985       14.0209442534       26.8915753365  WZ4       1985            0.0000000000
     25865      8622  TIP3      H1            -25.1981803985       14.6993842534       26.2345053365  WZ4       1985            0.0000000000
     25866      8622  TIP3      H2            -24.1099703985       14.0928742534       27.0946353365  WZ4       1985            0.0000000000
     25867      8623  TIP3      OH2           -30.6393703985       13.1192942534       16.1146953365  WZ4       1990            0.0000000000
     25868      8623  TIP3      H1            -31.2832703985       12.4881542534       16.4360653365  WZ4       1990            0.0000000000
     25869      8623  TIP3      H2            -29.8775403985       12.5880942534       15.8830453365  WZ4       1990            0.0000000000
     25870      8624  TIP3      OH2           -28.1544603985       11.9913442534       33.4686653365  WZ4       1991            0.0000000000
     25871      8624  TIP3      H1            -28.5055103985       11.1346442534       33.7117053365  WZ4       1991            0.0000000000
     25872      8624  TIP3      H2            -27.4281403985       12.1340142534       34.0755653365  WZ4       1991            0.0000000000
     25873      8625  TIP3      OH2           -26.0350803985       12.9362842534       16.3484953365  WZ4       1992            0.0000000000
     25874      8625  TIP3      H1            -25.7520403985       12.1418042534       16.8011853365  WZ4       1992            0.0000000000
     25875      8625  TIP3      H2            -25.2952903985       13.1693842534       15.7876053365  WZ4       1992            0.0000000000
     25876      8626  TIP3      OH2           -35.0803503985        8.8457742534       16.2059853365  WZ4       1994            0.0000000000
     25877      8626  TIP3      H1            -35.0159403985        8.0517342534       16.7366253365  WZ4       1994            0.0000000000
     25878      8626  TIP3      H2            -34.4274303985        8.7270542534       15.5161853365  WZ4       1994            0.0000000000
     25879      8627  TIP3      OH2           -29.7280103985        9.8929442534       15.9417853365  WZ4       1996            0.0000000000
     25880      8627  TIP3      H1            -29.9966003985       10.0731542534       16.8426753365  WZ4       1996            0.0000000000
     25881      8627  TIP3      H2            -29.9344503985        8.9675642534       15.8103653365  WZ4       1996            0.0000000000
     25882      8628  TIP3      OH2           -27.0315903985        8.3877442534       30.8893953365  WZ4       1997            0.0000000000
     25883      8628  TIP3      H1            -26.2861103985        8.9761142534       30.7697953365  WZ4       1997            0.0000000000
     25884      8628  TIP3      H2            -27.7889103985        8.9697142534       30.9527053365  WZ4       1997            0.0000000000
     25885      8629  TIP3      OH2           -33.9309703985        6.8183942534       18.5117853365  WZ4       1999            0.0000000000
     25886      8629  TIP3      H1            -34.3907703985        6.3342242534       19.1976353365  WZ4       1999            0.0000000000
     25887      8629  TIP3      H2            -33.6761003985        6.1499342534       17.8758353365  WZ4       1999            0.0000000000
     25888      8630  TIP3      OH2           -32.8599303985        5.0615742534       16.7741053365  WZ4       2001            0.0000000000
     25889      8630  TIP3      H1            -33.0404303985        4.9066942534       15.8469353365  WZ4       2001            0.0000000000
     25890      8630  TIP3      H2            -31.9098803985        5.1694442534       16.8188953365  WZ4       2001            0.0000000000
     25891      8631  TIP3      OH2           -23.4701003985        7.4159942534       16.2199153365  WZ4       2003            0.0000000000
     25892      8631  TIP3      H1            -23.7436203985        6.9915442534       15.4067453365  WZ4       2003            0.0000000000
     25893      8631  TIP3      H2            -23.4306903985        8.3474442534       16.0029553365  WZ4       2003            0.0000000000
     25894      8632  TIP3      OH2           -26.5759203985        6.4790842534       32.7881153365  WZ4       2008            0.0000000000
     25895      8632  TIP3      H1            -26.8574203985        7.1885442534       32.2104953365  WZ4       2008            0.0000000000
     25896      8632  TIP3      H2            -25.6334903985        6.4063842534       32.6372353365  WZ4       2008            0.0000000000
     25897      8633  TIP3      OH2           -32.9627603985       15.7519442534       17.7754653365  WZ4       2017            0.0000000000
     25898      8633  TIP3      H1            -32.0296903985       15.9098142534       17.9193053365  WZ4       2017            0.0000000000
     25899      8633  TIP3      H2            -33.2268803985       16.4272442534       17.1506153365  WZ4       2017            0.0000000000
     25900      8634  TIP3      OH2           -22.3268103985       14.6715142534       27.1207653365  WZ4       2021            0.0000000000
     25901      8634  TIP3      H1            -22.3481403985       14.8563542534       28.0597053365  WZ4       2021            0.0000000000
     25902      8634  TIP3      H2            -21.6361903985       15.2399142534       26.7799053365  WZ4       2021            0.0000000000
     25903      8635  TIP3      OH2           -22.7635203985       14.2386242534       30.0426753365  WZ4       2022            0.0000000000
     25904      8635  TIP3      H1            -23.2506503985       13.5030342534       29.6714153365  WZ4       2022            0.0000000000
     25905      8635  TIP3      H2            -22.2142503985       13.8450142534       30.7206153365  WZ4       2022            0.0000000000
     25906      8636  TIP3      OH2           -24.3127903985       10.0284342534       34.6807053365  WZ4       2023            0.0000000000
     25907      8636  TIP3      H1            -25.1786803985        9.9234042534       35.0749353365  WZ4       2023            0.0000000000
     25908      8636  TIP3      H2            -23.9362003985       10.7867642534       35.1271753365  WZ4       2023            0.0000000000
     25909      8637  TIP3      OH2           -23.0118203985        8.2848042534       20.1949553365  WZ4       2024            0.0000000000
     25910      8637  TIP3      H1            -22.1616803985        8.7058942534       20.3221153365  WZ4       2024            0.0000000000
     25911      8637  TIP3      H2            -23.0063103985        7.5448142534       20.8020953365  WZ4       2024            0.0000000000
     25912      8638  TIP3      OH2           -22.6172603985        6.3385442534       22.0185253365  WZ4       2025            0.0000000000
     25913      8638  TIP3      H1            -23.3438003985        5.8588042534       22.4162853365  WZ4       2025            0.0000000000
     25914      8638  TIP3      H2            -22.0359303985        6.5440142534       22.7506853365  WZ4       2025            0.0000000000
     25915      8639  TIP3      OH2           -22.8581403985        9.1232942534       26.9662853365  WZ4       2026            0.0000000000
     25916      8639  TIP3      H1            -22.0247203985        8.7452942534       26.6856453365  WZ4       2026            0.0000000000
     25917      8639  TIP3      H2            -22.7461103985       10.0664142534       26.8471953365  WZ4       2026            0.0000000000
     25918      8640  TIP3      OH2           -24.3719103985       12.0010442534       29.2731253365  WZ4       2027            0.0000000000
     25919      8640  TIP3      H1            -25.0193803985       12.3261942534       29.8986453365  WZ4       2027            0.0000000000
     25920      8640  TIP3      H2            -24.8895103985       11.5608142534       28.5989553365  WZ4       2027            0.0000000000
     25921      8641  TIP3      OH2           -22.3489503985        6.2393942534       18.4096553365  WZ4       2028            0.0000000000
     25922      8641  TIP3      H1            -22.8708403985        6.5958042534       17.6907453365  WZ4       2028            0.0000000000
     25923      8641  TIP3      H2            -22.3820303985        6.9141742534       19.0877453365  WZ4       2028            0.0000000000
     25924      8642  TIP3      OH2           -24.0000503985        3.4789542534       16.9603653365  WZ4       2029            0.0000000000
     25925      8642  TIP3      H1            -23.9036103985        4.1456542534       16.2803353365  WZ4       2029            0.0000000000
     25926      8642  TIP3      H2            -24.1400903985        2.6635842534       16.4789153365  WZ4       2029            0.0000000000
     25927      8643  TIP3      OH2           -24.8305803985        4.8591942534       22.5813953365  WZ4       2030            0.0000000000
     25928      8643  TIP3      H1            -24.9807003985        3.9140542534       22.5611753365  WZ4       2030            0.0000000000
     25929      8643  TIP3      H2            -25.1841303985        5.1403342534       23.4253053365  WZ4       2030            0.0000000000
     25930      8644  TIP3      OH2           -23.9742903985        6.8295242534       32.2202253365  WZ4       2032            0.0000000000
     25931      8644  TIP3      H1            -23.3915603985        6.0947542534       32.4119453365  WZ4       2032            0.0000000000
     25932      8644  TIP3      H2            -23.4103603985        7.6015542534       32.2668053365  WZ4       2032            0.0000000000
     25933      8645  TIP3      OH2           -22.4775803985        4.7321042534       32.9047653365  WZ4       2033            0.0000000000
     25934      8645  TIP3      H1            -23.3409103985        4.3533142534       32.7392353365  WZ4       2033            0.0000000000
     25935      8645  TIP3      H2            -21.8732103985        3.9935842534       32.8303453365  WZ4       2033            0.0000000000
     25936      8646  TIP3      OH2           -24.7526703985        0.8869342534       16.0779153365  WZ4       2034            0.0000000000
     25937      8646  TIP3      H1            -24.1420903985        0.5156142534       16.7147353365  WZ4       2034            0.0000000000
     25938      8646  TIP3      H2            -25.5895203985        0.4656242534       16.2739153365  WZ4       2034            0.0000000000
     25939      8647  TIP3      OH2           -25.1201003985        2.4417742534       21.0439053365  WZ4       2035            0.0000000000
     25940      8647  TIP3      H1            -24.8403903985        1.5348142534       21.1680753365  WZ4       2035            0.0000000000
     25941      8647  TIP3      H2            -24.3609303985        2.8759242534       20.6548253365  WZ4       2035            0.0000000000
     25942      8648  TIP3      OH2           -24.5082703985        3.0235142534       26.4797953365  WZ4       2036            0.0000000000
     25943      8648  TIP3      H1            -23.5754703985        3.2355042534       26.4453953365  WZ4       2036            0.0000000000
     25944      8648  TIP3      H2            -24.7435203985        3.1247242534       27.4020953365  WZ4       2036            0.0000000000
     25945      8649  TIP3      OH2           -24.4790803985        3.7600442534       29.2557353365  WZ4       2037            0.0000000000
     25946      8649  TIP3      H1            -25.3219503985        4.0280842534       29.6217153365  WZ4       2037            0.0000000000
     25947      8649  TIP3      H2            -24.0366503985        4.5822342534       29.0448453365  WZ4       2037            0.0000000000
     25948      8650  TIP3      OH2           -24.5066203985       -0.2952957466       21.0921053365  WZ4       2040            0.0000000000
     25949      8650  TIP3      H1            -24.3241203985       -0.7441457466       21.9176053365  WZ4       2040            0.0000000000
     25950      8650  TIP3      H2            -25.1063303985       -0.8798557466       20.6285653365  WZ4       2040            0.0000000000
     25951      8651  TIP3      OH2           -22.6400003985       -0.2274857466       17.6201353365  WZ4       2044            0.0000000000
     25952      8651  TIP3      H1            -22.2277403985       -0.9489157466       17.1449353365  WZ4       2044            0.0000000000
     25953      8651  TIP3      H2            -21.9583503985        0.4419742534       17.6785653365  WZ4       2044            0.0000000000
     25954      8652  TIP3      OH2           -25.5882103985       14.7614542534       22.6929453365  WZ4       2046            0.0000000000
     25955      8652  TIP3      H1            -24.9359203985       14.4136642534       22.0848553365  WZ4       2046            0.0000000000
     25956      8652  TIP3      H2            -25.0778303985       15.2497742534       23.3389153365  WZ4       2046            0.0000000000
     25957      8653  TIP3      OH2           -23.6756103985       -2.0608457466       30.7774453365  WZ4       2052            0.0000000000
     25958      8653  TIP3      H1            -24.4882603985       -1.7358157466       30.3899153365  WZ4       2052            0.0000000000
     25959      8653  TIP3      H2            -23.4427603985       -2.8209957466       30.2443553365  WZ4       2052            0.0000000000
     25960      8654  TIP3      OH2           -30.6696803985       15.4093842534       27.7472853365  WZ4       2055            0.0000000000
     25961      8654  TIP3      H1            -31.1262803985       15.9383542534       27.0931253365  WZ4       2055            0.0000000000
     25962      8654  TIP3      H2            -30.5068803985       16.0125242534       28.4725153365  WZ4       2055            0.0000000000
     25963      8655  TIP3      OH2           -28.3420503985       14.2873442534       28.6923153365  WZ4       2056            0.0000000000
     25964      8655  TIP3      H1            -29.2466803985       14.4523642534       28.4265253365  WZ4       2056            0.0000000000
     25965      8655  TIP3      H2            -27.9131903985       15.1405642534       28.6266553365  WZ4       2056            0.0000000000
     25966      8656  TIP3      OH2           -25.7378603985       15.8572542534       28.9870953365  WZ4       2057            0.0000000000
     25967      8656  TIP3      H1            -25.9196603985       16.7731442534       28.7765853365  WZ4       2057            0.0000000000
     25968      8656  TIP3      H2            -25.5610803985       15.4469642534       28.1405553365  WZ4       2057            0.0000000000
     25969      8657  TIP3      OH2           -33.7541303985       13.7241542534       25.9559353365  WZ4       2060            0.0000000000
     25970      8657  TIP3      H1            -33.5415603985       12.8360542534       25.6690253365  WZ4       2060            0.0000000000
     25971      8657  TIP3      H2            -33.6896203985       13.6899242534       26.9103353365  WZ4       2060            0.0000000000
     25972      8658  TIP3      OH2           -30.2457603985       -0.6117857466       25.1002653365  WZ4       2061            0.0000000000
     25973      8658  TIP3      H1            -30.9200803985       -1.2412257466       25.3558453365  WZ4       2061            0.0000000000
     25974      8658  TIP3      H2            -29.6818403985       -1.0958957466       24.4970553365  WZ4       2061            0.0000000000
     25975      8659  TIP3      OH2           -25.1030403985       -2.5043857466       25.2129753365  WZ4       2062            0.0000000000
     25976      8659  TIP3      H1            -24.4992803985       -1.9568457466       24.7110753365  WZ4       2062            0.0000000000
     25977      8659  TIP3      H2            -25.9728403985       -2.1853457466       24.9723853365  WZ4       2062            0.0000000000
     25978      8660  TIP3      OH2           -23.3760003985       -1.3655157466       23.5460653365  WZ4       2063            0.0000000000
     25979      8660  TIP3      H1            -22.7642503985       -1.8799457466       23.0194253365  WZ4       2063            0.0000000000
     25980      8660  TIP3      H2            -22.9936603985       -0.4883057466       23.5695053365  WZ4       2063            0.0000000000
     25981      8661  TIP3      OH2           -39.0826703985       -2.1799457466       18.7258653365  WZ4       2065            0.0000000000
     25982      8661  TIP3      H1            -38.6436003985       -1.5688957466       18.1342153365  WZ4       2065            0.0000000000
     25983      8661  TIP3      H2            -39.7164303985       -1.6415357466       19.1998653365  WZ4       2065            0.0000000000
     25984      8662  TIP3      OH2           -33.3397503985       -2.0510457466       22.7355653365  WZ4       2066            0.0000000000
     25985      8662  TIP3      H1            -32.4654103985       -1.6626157466       22.7059953365  WZ4       2066            0.0000000000
     25986      8662  TIP3      H2            -33.4756703985       -2.2662657466       23.6582853365  WZ4       2066            0.0000000000
     25987      8663  TIP3      OH2           -27.7829103985       -2.0210657466       24.3847353365  WZ4       2067            0.0000000000
     25988      8663  TIP3      H1            -27.7067503985       -1.9259057466       23.4353353365  WZ4       2067            0.0000000000
     25989      8663  TIP3      H2            -28.0579903985       -2.9287757466       24.5136453365  WZ4       2067            0.0000000000
     25990      8664  TIP3      OH2           -26.4296503985       -1.9952857466       20.0772353365  WZ4       2068            0.0000000000
     25991      8664  TIP3      H1            -27.1325403985       -1.3803657466       19.8673753365  WZ4       2068            0.0000000000
     25992      8664  TIP3      H2            -26.8745103985       -2.8326157466       20.2083253365  WZ4       2068            0.0000000000
     25993      8665  TIP3      OH2           -37.2217603985       -0.2637957466       17.1682753365  WZ4       2070            0.0000000000
     25994      8665  TIP3      H1            -36.7304203985       -0.8935557466       16.6408253365  WZ4       2070            0.0000000000
     25995      8665  TIP3      H2            -36.5981303985        0.0321442534       17.8313953365  WZ4       2070            0.0000000000
     25996      8666  TIP3      OH2           -32.1957503985        0.0293542534       19.6253253365  WZ4       2071            0.0000000000
     25997      8666  TIP3      H1            -32.0176203985       -0.6173257466       20.3081853365  WZ4       2071            0.0000000000
     25998      8666  TIP3      H2            -32.2491303985        0.8631242534       20.0924353365  WZ4       2071            0.0000000000
     25999      8667  TIP3      OH2           -30.3173703985       14.9777642534       18.0209953365  WZ4       2072            0.0000000000
     26000      8667  TIP3      H1            -29.4513503985       15.3445042534       17.8428153365  WZ4       2072            0.0000000000
     26001      8667  TIP3      H2            -30.5640903985       14.5385642534       17.2070753365  WZ4       2072            0.0000000000
     26002      8668  TIP3      OH2           -23.6084103985       14.5407942534       20.7001053365  WZ4       2073            0.0000000000
     26003      8668  TIP3      H1            -23.8027003985       13.7930042534       20.1350653365  WZ4       2073            0.0000000000
     26004      8668  TIP3      H2            -23.6474003985       15.2988042534       20.1168953365  WZ4       2073            0.0000000000
     26005      8669  TIP3      OH2           -24.3907903985       13.2920342534       32.8502853365  WZ4       2078            0.0000000000
     26006      8669  TIP3      H1            -25.1726003985       13.1058342534       32.3303453365  WZ4       2078            0.0000000000
     26007      8669  TIP3      H2            -24.4628003985       14.2214642534       33.0675353365  WZ4       2078            0.0000000000
     26008      8670  TIP3      OH2            -9.9847503985        7.1784742534       22.8810053365  WZ4       2079            0.0000000000
     26009      8670  TIP3      H1             -9.8956403985        8.1222942534       22.7487153365  WZ4       2079            0.0000000000
     26010      8670  TIP3      H2            -10.6229903985        6.9031142534       22.2229453365  WZ4       2079            0.0000000000
     26011      8671  TIP3      OH2           -11.0516203985        6.4335442534       26.2998253365  WZ4       2080            0.0000000000
     26012      8671  TIP3      H1            -11.0898703985        5.7871742534       27.0047853365  WZ4       2080            0.0000000000
     26013      8671  TIP3      H2            -11.3739703985        5.9669842534       25.5286953365  WZ4       2080            0.0000000000
     26014      8672  TIP3      OH2           -18.6831203985        6.0477542534       27.8928153365  WZ4       2081            0.0000000000
     26015      8672  TIP3      H1            -18.6419103985        5.4220842534       28.6160553365  WZ4       2081            0.0000000000
     26016      8672  TIP3      H2            -17.9803503985        6.6716142534       28.0748553365  WZ4       2081            0.0000000000
     26017      8673  TIP3      OH2            -7.3456003985        9.3725842534       24.6013353365  WZ4       2082            0.0000000000
     26018      8673  TIP3      H1             -7.7863303985        8.6521842534       25.0518953365  WZ4       2082            0.0000000000
     26019      8673  TIP3      H2             -7.3586303985       10.0933042534       25.2311053365  WZ4       2082            0.0000000000
     26020      8674  TIP3      OH2           -17.7598103985       10.4976442534       26.4277253365  WZ4       2083            0.0000000000
     26021      8674  TIP3      H1            -18.1292903985        9.6956942534       26.0581553365  WZ4       2083            0.0000000000
     26022      8674  TIP3      H2            -16.8187003985       10.3291342534       26.4740653365  WZ4       2083            0.0000000000
     26023      8675  TIP3      OH2           -21.1497603985        4.1579042534       21.8206053365  WZ4       2084            0.0000000000
     26024      8675  TIP3      H1            -21.5974203985        5.0037742534       21.8022553365  WZ4       2084            0.0000000000
     26025      8675  TIP3      H2            -21.7106403985        3.5783242534       21.3051153365  WZ4       2084            0.0000000000
     26026      8676  TIP3      OH2           -20.4391503985        6.3198642534       23.9464053365  WZ4       2085            0.0000000000
     26027      8676  TIP3      H1            -20.2258003985        5.5500242534       24.4737053365  WZ4       2085            0.0000000000
     26028      8676  TIP3      H2            -19.7013903985        6.4095342534       23.3431653365  WZ4       2085            0.0000000000
     26029      8677  TIP3      OH2           -10.2340503985       14.4767542534       24.8133753365  WZ4       2086            0.0000000000
     26030      8677  TIP3      H1             -9.6144103985       13.8002242534       24.5402953365  WZ4       2086            0.0000000000
     26031      8677  TIP3      H2            -10.4423103985       14.2588342534       25.7218653365  WZ4       2086            0.0000000000
     26032      8678  TIP3      OH2           -12.6621803985        8.8656842534       26.7059253365  WZ4       2087            0.0000000000
     26033      8678  TIP3      H1            -12.3583903985        8.1798242534       26.1113353365  WZ4       2087            0.0000000000
     26034      8678  TIP3      H2            -11.9407803985        8.9845542534       27.3237253365  WZ4       2087            0.0000000000
     26035      8679  TIP3      OH2            -3.9992003985        0.4672142534       27.5665453365  WZ4       2088            0.0000000000
     26036      8679  TIP3      H1             -3.9499803985        1.0773342534       28.3024553365  WZ4       2088            0.0000000000
     26037      8679  TIP3      H2             -3.5736903985        0.9283042534       26.8436553365  WZ4       2088            0.0000000000
     26038      8680  TIP3      OH2            -9.5214803985        3.2599242534       27.0334053365  WZ4       2089            0.0000000000
     26039      8680  TIP3      H1             -9.3788903985        2.3136242534       27.0535653365  WZ4       2089            0.0000000000
     26040      8680  TIP3      H2             -9.6275803985        3.4669042534       26.1048953365  WZ4       2089            0.0000000000
     26041      8681  TIP3      OH2           -16.3666503985        1.3615642534       24.3058853365  WZ4       2090            0.0000000000
     26042      8681  TIP3      H1            -16.3235403985        2.2214142534       23.8875153365  WZ4       2090            0.0000000000
     26043      8681  TIP3      H2            -16.8242403985        0.8090342534       23.6722053365  WZ4       2090            0.0000000000
     26044      8682  TIP3      OH2            -8.6443803985        1.4921242534       22.7067153365  WZ4       2091            0.0000000000
     26045      8682  TIP3      H1             -7.9979503985        1.1634442534       23.3314753365  WZ4       2091            0.0000000000
     26046      8682  TIP3      H2             -8.1344403985        2.0100242534       22.0838553365  WZ4       2091            0.0000000000
     26047      8683  TIP3      OH2           -19.7465003985        3.7581442534       25.0680253365  WZ4       2092            0.0000000000
     26048      8683  TIP3      H1            -19.0928403985        3.2083142534       25.5000353365  WZ4       2092            0.0000000000
     26049      8683  TIP3      H2            -19.7225703985        3.4840442534       24.1512253365  WZ4       2092            0.0000000000
     26050      8684  TIP3      OH2           -14.5900503985        5.3082742534       24.2831753365  WZ4       2093            0.0000000000
     26051      8684  TIP3      H1            -13.9739503985        4.7818142534       24.7925753365  WZ4       2093            0.0000000000
     26052      8684  TIP3      H2            -15.1761703985        4.6681442534       23.8795353365  WZ4       2093            0.0000000000
     26053      8685  TIP3      OH2            -3.6077403985        1.9451342534       29.8025253365  WZ4       2094            0.0000000000
     26054      8685  TIP3      H1             -4.2962803985        2.6032042534       29.7071853365  WZ4       2094            0.0000000000
     26055      8685  TIP3      H2             -3.5922803985        1.7479242534       30.7390653365  WZ4       2094            0.0000000000
     26056      8686  TIP3      OH2           -17.5564603985        0.2794042534       28.3799653365  WZ4       2095            0.0000000000
     26057      8686  TIP3      H1            -17.7752903985        0.8094642534       27.6135653365  WZ4       2095            0.0000000000
     26058      8686  TIP3      H2            -18.2243703985        0.5059542534       29.0271053365  WZ4       2095            0.0000000000
     26059      8687  TIP3      OH2           -10.1874803985        9.7795142534       21.9238753365  WZ4       2096            0.0000000000
     26060      8687  TIP3      H1            -10.4829703985        9.4567442534       21.0725653365  WZ4       2096            0.0000000000
     26061      8687  TIP3      H2            -10.5117003985       10.6791842534       21.9651353365  WZ4       2096            0.0000000000
     26062      8688  TIP3      OH2           -14.9873203985        7.9549742534       28.6673353365  WZ4       2097            0.0000000000
     26063      8688  TIP3      H1            -15.7274103985        8.5531242534       28.7708553365  WZ4       2097            0.0000000000
     26064      8688  TIP3      H2            -14.2733703985        8.5089342534       28.3516953365  WZ4       2097            0.0000000000
     26065      8689  TIP3      OH2            -6.8805403985        0.7830542534       24.6873053365  WZ4       2098            0.0000000000
     26066      8689  TIP3      H1             -7.0957403985        0.0173942534       25.2199053365  WZ4       2098            0.0000000000
     26067      8689  TIP3      H2             -6.2248003985        1.2555142534       25.2001553365  WZ4       2098            0.0000000000
     26068      8690  TIP3      OH2           -17.9627303985        2.1715842534       26.3321853365  WZ4       2099            0.0000000000
     26069      8690  TIP3      H1            -17.3491003985        2.8043442534       26.7054253365  WZ4       2099            0.0000000000
     26070      8690  TIP3      H2            -17.4506603985        1.6990842534       25.6758753365  WZ4       2099            0.0000000000
     26071      8691  TIP3      OH2           -16.5798903985        9.9192742534       29.4544853365  WZ4       2100            0.0000000000
     26072      8691  TIP3      H1            -16.5851303985       10.7986242534       29.0764153365  WZ4       2100            0.0000000000
     26073      8691  TIP3      H2            -17.4334803985        9.8356842534       29.8794753365  WZ4       2100            0.0000000000
     26074      8692  TIP3      OH2           -20.4588003985        9.5900642534       20.2364153365  WZ4       2101            0.0000000000
     26075      8692  TIP3      H1            -20.7307103985        9.8191642534       19.3477053365  WZ4       2101            0.0000000000
     26076      8692  TIP3      H2            -20.4132303985       10.4279442534       20.6969453365  WZ4       2101            0.0000000000
     26077      8693  TIP3      OH2            -6.8338303985       11.2116542534       26.9492653365  WZ4       2102            0.0000000000
     26078      8693  TIP3      H1             -7.7754603985       11.2700442534       27.1109553365  WZ4       2102            0.0000000000
     26079      8693  TIP3      H2             -6.5572203985       12.1177042534       26.8122353365  WZ4       2102            0.0000000000
     26080      8694  TIP3      OH2            -6.5331303985       -0.5018157466       28.3666553365  WZ4       2103            0.0000000000
     26081      8694  TIP3      H1             -7.2692103985        0.1088942534       28.3287853365  WZ4       2103            0.0000000000
     26082      8694  TIP3      H2             -5.8497303985       -0.0869157466       27.8402953365  WZ4       2103            0.0000000000
     26083      8695  TIP3      OH2           -13.5299903985       -2.4150857466       25.8324553365  WZ4       2104            0.0000000000
     26084      8695  TIP3      H1            -13.6475703985       -3.3634857466       25.7782853365  WZ4       2104            0.0000000000
     26085      8695  TIP3      H2            -14.3849803985       -2.0824757466       26.1055653365  WZ4       2104            0.0000000000
     26086      8696  TIP3      OH2            -8.5817103985       12.9930042534       23.5744253365  WZ4       2105            0.0000000000
     26087      8696  TIP3      H1             -8.1564803985       12.2857942534       23.0893853365  WZ4       2105            0.0000000000
     26088      8696  TIP3      H2             -8.2647103985       13.7942742534       23.1576453365  WZ4       2105            0.0000000000
     26089      8697  TIP3      OH2            -7.4220603985       10.8938542534       22.0830853365  WZ4       2106            0.0000000000
     26090      8697  TIP3      H1             -7.6795803985       10.2038642534       21.4716753365  WZ4       2106            0.0000000000
     26091      8697  TIP3      H2             -7.3509803985       10.4509742534       22.9286753365  WZ4       2106            0.0000000000
     26092      8698  TIP3      OH2            -5.7360403985        9.4605242534       30.5604353365  WZ4       2107            0.0000000000
     26093      8698  TIP3      H1             -5.5964103985        8.8687742534       29.8211353365  WZ4       2107            0.0000000000
     26094      8698  TIP3      H2             -5.5687603985       10.3331142534       30.2043153365  WZ4       2107            0.0000000000
     26095      8699  TIP3      OH2           -11.2635003985        6.4224742534       20.3330353365  WZ4       2108            0.0000000000
     26096      8699  TIP3      H1            -11.9749503985        6.9574442534       19.9810853365  WZ4       2108            0.0000000000
     26097      8699  TIP3      H2            -10.5725403985        6.4776842534       19.6729253365  WZ4       2108            0.0000000000
     26098      8700  TIP3      OH2           -11.2095803985        4.8799042534       17.3715353365  WZ4       2109            0.0000000000
     26099      8700  TIP3      H1            -10.5085903985        4.9025942534       18.0229353365  WZ4       2109            0.0000000000
     26100      8700  TIP3      H2            -10.9072903985        4.2518742534       16.7154653365  WZ4       2109            0.0000000000
     26101      8701  TIP3      OH2            -3.8941103985        5.8003242534       28.6264753365  WZ4       2110            0.0000000000
     26102      8701  TIP3      H1             -4.5467003985        6.4948842534       28.7155653365  WZ4       2110            0.0000000000
     26103      8701  TIP3      H2             -3.4290803985        6.0104142534       27.8166353365  WZ4       2110            0.0000000000
     26104      8702  TIP3      OH2            -7.8577303985        6.6318042534       21.2846253365  WZ4       2111            0.0000000000
     26105      8702  TIP3      H1             -8.5896303985        6.8601742534       21.8576853365  WZ4       2111            0.0000000000
     26106      8702  TIP3      H2             -7.4105103985        5.9180742534       21.7393753365  WZ4       2111            0.0000000000
     26107      8703  TIP3      OH2            -7.9603803985        4.8060642534       30.3523253365  WZ4       2112            0.0000000000
     26108      8703  TIP3      H1             -7.8804703985        5.5695042534       30.9241753365  WZ4       2112            0.0000000000
     26109      8703  TIP3      H2             -8.5616103985        5.0853042534       29.6618353365  WZ4       2112            0.0000000000
     26110      8704  TIP3      OH2           -16.2123603985        7.2624242534       23.1671253365  WZ4       2113            0.0000000000
     26111      8704  TIP3      H1            -16.5428403985        6.8917642534       22.3488253365  WZ4       2113            0.0000000000
     26112      8704  TIP3      H2            -15.6239503985        6.5918242534       23.5139553365  WZ4       2113            0.0000000000
     26113      8705  TIP3      OH2           -14.8456103985       10.6904842534       25.8483453365  WZ4       2114            0.0000000000
     26114      8705  TIP3      H1            -14.9404803985       10.1117942534       25.0918053365  WZ4       2114            0.0000000000
     26115      8705  TIP3      H2            -14.1162503985       10.3190542534       26.3446253365  WZ4       2114            0.0000000000
     26116      8706  TIP3      OH2           -15.8458103985        6.0309842534       26.8006253365  WZ4       2115            0.0000000000
     26117      8706  TIP3      H1            -15.2805603985        6.1524042534       26.0377453365  WZ4       2115            0.0000000000
     26118      8706  TIP3      H2            -15.5269203985        6.6684842534       27.4394753365  WZ4       2115            0.0000000000
     26119      8707  TIP3      OH2            -9.5365903985       11.5341742534       27.5346753365  WZ4       2116            0.0000000000
     26120      8707  TIP3      H1             -9.7769303985       12.1964842534       28.1825953365  WZ4       2116            0.0000000000
     26121      8707  TIP3      H2             -9.7347703985       10.6996942534       27.9596353365  WZ4       2116            0.0000000000
     26122      8708  TIP3      OH2           -14.9657403985       10.4302542534       31.5178153365  WZ4       2117            0.0000000000
     26123      8708  TIP3      H1            -15.2769903985       11.2125742534       31.9731353365  WZ4       2117            0.0000000000
     26124      8708  TIP3      H2            -15.6157203985       10.2771642534       30.8320153365  WZ4       2117            0.0000000000
     26125      8709  TIP3      OH2            -8.9867803985        5.7940942534       18.9697453365  WZ4       2118            0.0000000000
     26126      8709  TIP3      H1             -8.4072303985        5.9441242534       19.7166353365  WZ4       2118            0.0000000000
     26127      8709  TIP3      H2             -8.5727803985        6.2648342534       18.2463853365  WZ4       2118            0.0000000000
     26128      8710  TIP3      OH2           -18.0457503985        6.6283642534       30.7463853365  WZ4       2119            0.0000000000
     26129      8710  TIP3      H1            -17.9754303985        7.2790442534       31.4448853365  WZ4       2119            0.0000000000
     26130      8710  TIP3      H2            -18.9365303985        6.7311142534       30.4114753365  WZ4       2119            0.0000000000
     26131      8711  TIP3      OH2           -11.2602903985       12.5309442534       22.4050553365  WZ4       2120            0.0000000000
     26132      8711  TIP3      H1            -10.7865303985       12.8265742534       23.1824753365  WZ4       2120            0.0000000000
     26133      8711  TIP3      H2            -11.8233603985       13.2691042534       22.1720153365  WZ4       2120            0.0000000000
     26134      8712  TIP3      OH2           -16.7261503985       12.5017542534       32.2811953365  WZ4       2121            0.0000000000
     26135      8712  TIP3      H1            -16.7186203985       12.3657242534       31.3337453365  WZ4       2121            0.0000000000
     26136      8712  TIP3      H2            -17.6421103985       12.3845642534       32.5331953365  WZ4       2121            0.0000000000
     26137      8713  TIP3      OH2            -5.2879403985       -2.4558657466       18.7827153365  WZ4       2122            0.0000000000
     26138      8713  TIP3      H1             -6.1878703985       -2.3169657466       19.0777753365  WZ4       2122            0.0000000000
     26139      8713  TIP3      H2             -5.0361003985       -1.6244057466       18.3808853365  WZ4       2122            0.0000000000
     26140      8714  TIP3      OH2           -17.2220903985        6.3318542534       20.7564053365  WZ4       2123            0.0000000000
     26141      8714  TIP3      H1            -17.5139603985        7.1000242534       20.2655353365  WZ4       2123            0.0000000000
     26142      8714  TIP3      H2            -17.8965703985        5.6724742534       20.5935453365  WZ4       2123            0.0000000000
     26143      8715  TIP3      OH2            -4.0988003985       11.9103742534       17.1591053365  WZ4       2124            0.0000000000
     26144      8715  TIP3      H1             -4.0254503985       12.8493942534       17.3296353365  WZ4       2124            0.0000000000
     26145      8715  TIP3      H2             -3.1932903985       11.6052342534       17.1028353365  WZ4       2124            0.0000000000
     26146      8716  TIP3      OH2           -21.1290803985        8.6947742534       29.5713853365  WZ4       2125            0.0000000000
     26147      8716  TIP3      H1            -21.6302403985        8.6667142534       28.7563553365  WZ4       2125            0.0000000000
     26148      8716  TIP3      H2            -21.1237103985        7.7890942534       29.8811153365  WZ4       2125            0.0000000000
     26149      8717  TIP3      OH2           -21.3788103985       11.4751542534       26.4554053365  WZ4       2126            0.0000000000
     26150      8717  TIP3      H1            -20.4327503985       11.3308542534       26.4363553365  WZ4       2126            0.0000000000
     26151      8717  TIP3      H2            -21.4911803985       12.2594342534       26.9925253365  WZ4       2126            0.0000000000
     26152      8718  TIP3      OH2            -3.1809603985       12.1411242534       32.1377753365  WZ4       2127            0.0000000000
     26153      8718  TIP3      H1             -3.2302803985       11.1859342534       32.1005353365  WZ4       2127            0.0000000000
     26154      8718  TIP3      H2             -4.0077303985       12.4086542534       32.5391553365  WZ4       2127            0.0000000000
     26155      8719  TIP3      OH2           -12.2025603985       11.7150442534       31.0139153365  WZ4       2128            0.0000000000
     26156      8719  TIP3      H1            -12.1151003985       12.5415042534       31.4888253365  WZ4       2128            0.0000000000
     26157      8719  TIP3      H2            -13.0660503985       11.3854242534       31.2628453365  WZ4       2128            0.0000000000
     26158      8720  TIP3      OH2           -11.7879803985       15.4874142534       20.8199753365  WZ4       2129            0.0000000000
     26159      8720  TIP3      H1            -11.8633803985       15.3661342534       19.8734953365  WZ4       2129            0.0000000000
     26160      8720  TIP3      H2            -11.7551103985       16.4366842534       20.9384353365  WZ4       2129            0.0000000000
     26161      8721  TIP3      OH2           -18.1346003985       14.2761142534       22.6008753365  WZ4       2130            0.0000000000
     26162      8721  TIP3      H1            -17.9825603985       13.9281542534       23.4795253365  WZ4       2130            0.0000000000
     26163      8721  TIP3      H2            -18.9855603985       13.9198442534       22.3455953365  WZ4       2130            0.0000000000
     26164      8722  TIP3      OH2            -8.6863803985       14.6414342534       17.8222153365  WZ4       2131            0.0000000000
     26165      8722  TIP3      H1             -8.3115403985       13.8970442534       17.3514753365  WZ4       2131            0.0000000000
     26166      8722  TIP3      H2             -8.6820103985       14.3714942534       18.7405453365  WZ4       2131            0.0000000000
     26167      8723  TIP3      OH2            -9.0175703985       14.5671442534       20.5714353365  WZ4       2132            0.0000000000
     26168      8723  TIP3      H1             -9.9525903985       14.6673342534       20.7501353365  WZ4       2132            0.0000000000
     26169      8723  TIP3      H2             -8.7373803985       13.8577442534       21.1497553365  WZ4       2132            0.0000000000
     26170      8724  TIP3      OH2            -6.0289803985        3.6343742534       32.6179953365  WZ4       2133            0.0000000000
     26171      8724  TIP3      H1             -6.4363003985        4.1149342534       31.8973253365  WZ4       2133            0.0000000000
     26172      8724  TIP3      H2             -5.9884103985        2.7289742534       32.3100753365  WZ4       2133            0.0000000000
     26173      8725  TIP3      OH2           -18.8800303985       10.0183142534       30.6146653365  WZ4       2134            0.0000000000
     26174      8725  TIP3      H1            -18.6639003985        9.6568742534       31.4742453365  WZ4       2134            0.0000000000
     26175      8725  TIP3      H2            -19.7355603985        9.6436942534       30.4050153365  WZ4       2134            0.0000000000
     26176      8726  TIP3      OH2           -16.2612303985       -1.5116357466       26.6100853365  WZ4       2135            0.0000000000
     26177      8726  TIP3      H1            -17.1228603985       -1.5988157466       26.2023753365  WZ4       2135            0.0000000000
     26178      8726  TIP3      H2            -16.2836603985       -0.6556257466       27.0378453365  WZ4       2135            0.0000000000
     26179      8727  TIP3      OH2           -11.5984503985       -1.7895957466       29.9847853365  WZ4       2136            0.0000000000
     26180      8727  TIP3      H1            -11.1781403985       -2.2048857466       30.7378453365  WZ4       2136            0.0000000000
     26181      8727  TIP3      H2            -12.5314903985       -1.9682657466       30.1019853365  WZ4       2136            0.0000000000
     26182      8728  TIP3      OH2            -8.2719603985        1.9659242534       30.8382353365  WZ4       2137            0.0000000000
     26183      8728  TIP3      H1             -8.7860103985        1.8401442534       31.6358353365  WZ4       2137            0.0000000000
     26184      8728  TIP3      H2             -8.4274903985        2.8782342534       30.5938553365  WZ4       2137            0.0000000000
     26185      8729  TIP3      OH2            -7.5094703985        6.8269242534       16.5995353365  WZ4       2138            0.0000000000
     26186      8729  TIP3      H1             -7.4673903985        6.6043142534       15.6695353365  WZ4       2138            0.0000000000
     26187      8729  TIP3      H2             -6.6602603985        7.2256342534       16.7895253365  WZ4       2138            0.0000000000
     26188      8730  TIP3      OH2           -11.9367203985        0.7027442534       17.2698653365  WZ4       2139            0.0000000000
     26189      8730  TIP3      H1            -12.1902403985        0.7219042534       18.1926753365  WZ4       2139            0.0000000000
     26190      8730  TIP3      H2            -12.1935103985       -0.1687157466       16.9684853365  WZ4       2139            0.0000000000
     26191      8731  TIP3      OH2           -16.1702203985        3.4538142534       27.7051053365  WZ4       2140            0.0000000000
     26192      8731  TIP3      H1            -16.8120103985        3.4135442534       28.4141153365  WZ4       2140            0.0000000000
     26193      8731  TIP3      H2            -16.1330203985        4.3802842534       27.4674053365  WZ4       2140            0.0000000000
     26194      8732  TIP3      OH2           -16.1733103985        3.6748242534       22.6171053365  WZ4       2141            0.0000000000
     26195      8732  TIP3      H1            -17.0660203985        3.3344342534       22.5584853365  WZ4       2141            0.0000000000
     26196      8732  TIP3      H2            -15.7226503985        3.2979142534       21.8614253365  WZ4       2141            0.0000000000
     26197      8733  TIP3      OH2           -10.6377603985        4.0908542534       21.4341853365  WZ4       2142            0.0000000000
     26198      8733  TIP3      H1            -11.0467303985        4.9057142534       21.1426653365  WZ4       2142            0.0000000000
     26199      8733  TIP3      H2             -9.9171403985        3.9508642534       20.8198953365  WZ4       2142            0.0000000000
     26200      8734  TIP3      OH2           -11.5356003985        4.2664942534       32.9222553365  WZ4       2143            0.0000000000
     26201      8734  TIP3      H1            -12.0982203985        3.5616542534       33.2430353365  WZ4       2143            0.0000000000
     26202      8734  TIP3      H2            -10.7092603985        4.1456842534       33.3900153365  WZ4       2143            0.0000000000
     26203      8735  TIP3      OH2            -9.6329903985        3.5368942534       24.2481553365  WZ4       2144            0.0000000000
     26204      8735  TIP3      H1             -9.8285403985        4.1425742534       23.5332153365  WZ4       2144            0.0000000000
     26205      8735  TIP3      H2             -9.4517303985        2.7034142534       23.8137853365  WZ4       2144            0.0000000000
     26206      8736  TIP3      OH2           -18.4201703985        3.7741642534       29.5723053365  WZ4       2145            0.0000000000
     26207      8736  TIP3      H1            -18.4582303985        4.1743242534       30.4410153365  WZ4       2145            0.0000000000
     26208      8736  TIP3      H2            -18.9110603985        2.9574042534       29.6625953365  WZ4       2145            0.0000000000
     26209      8737  TIP3      OH2           -15.0544303985        1.1483942534       16.3709053365  WZ4       2146            0.0000000000
     26210      8737  TIP3      H1            -15.4853603985        0.7034042534       17.1006453365  WZ4       2146            0.0000000000
     26211      8737  TIP3      H2            -15.7725603985        1.5200242534       15.8586553365  WZ4       2146            0.0000000000
     26212      8738  TIP3      OH2           -21.8120903985        0.8903442534       23.4227753365  WZ4       2147            0.0000000000
     26213      8738  TIP3      H1            -21.1813203985        0.8615542534       24.1421653365  WZ4       2147            0.0000000000
     26214      8738  TIP3      H2            -21.3626603985        0.4652142534       22.6923653365  WZ4       2147            0.0000000000
     26215      8739  TIP3      OH2           -20.5378803985        1.6365442534       18.8468153365  WZ4       2148            0.0000000000
     26216      8739  TIP3      H1            -20.0637103985        2.2275342534       18.2619053365  WZ4       2148            0.0000000000
     26217      8739  TIP3      H2            -21.2552403985        2.1668342534       19.1938253365  WZ4       2148            0.0000000000
     26218      8740  TIP3      OH2           -10.3690703985        5.1750242534       28.9193953365  WZ4       2149            0.0000000000
     26219      8740  TIP3      H1            -10.0455903985        4.5439942534       28.2764453365  WZ4       2149            0.0000000000
     26220      8740  TIP3      H2            -10.8091403985        4.6402442534       29.5801353365  WZ4       2149            0.0000000000
     26221      8741  TIP3      OH2           -13.5917803985        1.1025742534       23.7035153365  WZ4       2150            0.0000000000
     26222      8741  TIP3      H1            -14.5026703985        1.1592542534       23.9921153365  WZ4       2150            0.0000000000
     26223      8741  TIP3      H2            -13.0864903985        1.0421242534       24.5142353365  WZ4       2150            0.0000000000
     26224      8742  TIP3      OH2           -18.7634403985        2.7312042534       22.5302753365  WZ4       2151            0.0000000000
     26225      8742  TIP3      H1            -19.6526403985        2.8307542534       22.1902353365  WZ4       2151            0.0000000000
     26226      8742  TIP3      H2            -18.4669503985        1.8895042534       22.1840653365  WZ4       2151            0.0000000000
     26227      8743  TIP3      OH2           -15.1102603985        2.7314642534       20.1867353365  WZ4       2152            0.0000000000
     26228      8743  TIP3      H1            -14.1787103985        2.8604642534       20.3650453365  WZ4       2152            0.0000000000
     26229      8743  TIP3      H2            -15.3252303985        3.4008942534       19.5372053365  WZ4       2152            0.0000000000
     26230      8744  TIP3      OH2            -9.1865903985        0.3372042534       26.9676953365  WZ4       2153            0.0000000000
     26231      8744  TIP3      H1             -9.8634303985        0.4685142534       27.6316653365  WZ4       2153            0.0000000000
     26232      8744  TIP3      H2             -9.6721003985        0.1821542534       26.1574653365  WZ4       2153            0.0000000000
     26233      8745  TIP3      OH2           -16.4362403985        3.9256842534       17.7533453365  WZ4       2154            0.0000000000
     26234      8745  TIP3      H1            -16.9787303985        3.5460642534       17.0621053365  WZ4       2154            0.0000000000
     26235      8745  TIP3      H2            -15.6027503985        4.1201542534       17.3247553365  WZ4       2154            0.0000000000
     26236      8746  TIP3      OH2            -5.8990803985       16.0087442534       33.2444553365  WZ4       2155            0.0000000000
     26237      8746  TIP3      H1             -5.6992103985       16.4329342534       32.4099853365  WZ4       2155            0.0000000000
     26238      8746  TIP3      H2             -5.2437103985       16.3525642534       33.8514953365  WZ4       2155            0.0000000000
     26239      8747  TIP3      OH2           -18.3011003985        8.4828742534       32.8525053365  WZ4       2156            0.0000000000
     26240      8747  TIP3      H1            -17.5688603985        8.7374642534       33.4139553365  WZ4       2156            0.0000000000
     26241      8747  TIP3      H2            -19.0812303985        8.6874142534       33.3680453365  WZ4       2156            0.0000000000
     26242      8748  TIP3      OH2           -12.2718103985        3.8898742534       25.5904753365  WZ4       2157            0.0000000000
     26243      8748  TIP3      H1            -11.7074703985        3.3435342534       25.0434353365  WZ4       2157            0.0000000000
     26244      8748  TIP3      H2            -12.4194703985        3.3680642534       26.3792353365  WZ4       2157            0.0000000000
     26245      8749  TIP3      OH2           -17.2698403985        0.0264842534       22.0089553365  WZ4       2158            0.0000000000
     26246      8749  TIP3      H1            -17.5868903985       -0.8759857466       21.9734953365  WZ4       2158            0.0000000000
     26247      8749  TIP3      H2            -16.4884303985        0.0282242534       21.4561153365  WZ4       2158            0.0000000000
     26248      8750  TIP3      OH2           -13.6452203985        2.2784842534       28.0045153365  WZ4       2159            0.0000000000
     26249      8750  TIP3      H1            -14.4806903985        2.7324342534       28.1147553365  WZ4       2159            0.0000000000
     26250      8750  TIP3      H2            -13.1211603985        2.5543342534       28.7565053365  WZ4       2159            0.0000000000
     26251      8751  TIP3      OH2           -13.1009603985        8.4912542534       19.6891553365  WZ4       2160            0.0000000000
     26252      8751  TIP3      H1            -13.8458603985        7.9837842534       19.3669453365  WZ4       2160            0.0000000000
     26253      8751  TIP3      H2            -13.2352403985        8.5400542534       20.6356353365  WZ4       2160            0.0000000000
     26254      8752  TIP3      OH2            -5.9510703985        7.6240742534       28.4759153365  WZ4       2161            0.0000000000
     26255      8752  TIP3      H1             -5.3091903985        8.0807042534       27.9321353365  WZ4       2161            0.0000000000
     26256      8752  TIP3      H2             -6.7813803985        7.7373142534       28.0133253365  WZ4       2161            0.0000000000
     26257      8753  TIP3      OH2            -9.2032803985        1.3052442534       17.8884153365  WZ4       2162            0.0000000000
     26258      8753  TIP3      H1            -10.1418603985        1.4168042534       17.7372953365  WZ4       2162            0.0000000000
     26259      8753  TIP3      H2             -8.9060703985        2.1619342534       18.1949853365  WZ4       2162            0.0000000000
     26260      8754  TIP3      OH2           -11.5817503985        8.6755842534       30.9260653365  WZ4       2163            0.0000000000
     26261      8754  TIP3      H1            -11.9271403985        8.2938242534       31.7330253365  WZ4       2163            0.0000000000
     26262      8754  TIP3      H2            -11.7817403985        9.6089442534       30.9973553365  WZ4       2163            0.0000000000
     26263      8755  TIP3      OH2            -8.4849303985        3.1725142534       19.5491553365  WZ4       2164            0.0000000000
     26264      8755  TIP3      H1             -7.5930303985        3.0350142534       19.8682753365  WZ4       2164            0.0000000000
     26265      8755  TIP3      H2             -8.4285703985        3.9631242534       19.0125053365  WZ4       2164            0.0000000000
     26266      8756  TIP3      OH2           -17.9761303985        7.7862542534       25.4589453365  WZ4       2165            0.0000000000
     26267      8756  TIP3      H1            -17.2314103985        7.7838242534       24.8575953365  WZ4       2165            0.0000000000
     26268      8756  TIP3      H2            -17.8984703985        6.9626342534       25.9404553365  WZ4       2165            0.0000000000
     26269      8757  TIP3      OH2           -10.9755503985        9.9496842534       18.7146153365  WZ4       2166            0.0000000000
     26270      8757  TIP3      H1            -11.2707103985       10.7764742534       19.0960953365  WZ4       2166            0.0000000000
     26271      8757  TIP3      H2            -11.6785503985        9.3303742534       18.9107553365  WZ4       2166            0.0000000000
     26272      8758  TIP3      OH2           -20.9681603985        6.2469442534       30.7737953365  WZ4       2167            0.0000000000
     26273      8758  TIP3      H1            -20.7453003985        5.8289042534       31.6055453365  WZ4       2167            0.0000000000
     26274      8758  TIP3      H2            -21.5701503985        5.6344442534       30.3510753365  WZ4       2167            0.0000000000
     26275      8759  TIP3      OH2           -13.9516703985        5.7639342534       32.9867653365  WZ4       2168            0.0000000000
     26276      8759  TIP3      H1            -14.2475903985        5.5982342534       32.0916753365  WZ4       2168            0.0000000000
     26277      8759  TIP3      H2            -13.0201503985        5.5439642534       32.9761553365  WZ4       2168            0.0000000000
     26278      8760  TIP3      OH2            -9.3313903985       11.1371342534       30.8765653365  WZ4       2169            0.0000000000
     26279      8760  TIP3      H1            -10.2319603985       11.3203942534       30.6089553365  WZ4       2169            0.0000000000
     26280      8760  TIP3      H2             -9.2972803985       11.3960642534       31.7974453365  WZ4       2169            0.0000000000
     26281      8761  TIP3      OH2            -3.6000603985        3.3819242534       19.2438253365  WZ4       2170            0.0000000000
     26282      8761  TIP3      H1             -4.1544303985        2.9857242534       18.5715753365  WZ4       2170            0.0000000000
     26283      8761  TIP3      H2             -3.4997003985        4.2924442534       18.9661553365  WZ4       2170            0.0000000000
     26284      8762  TIP3      OH2            -3.6368603985        9.1820942534       32.0809753365  WZ4       2171            0.0000000000
     26285      8762  TIP3      H1             -4.4880103985        9.4204742534       31.7136153365  WZ4       2171            0.0000000000
     26286      8762  TIP3      H2             -3.0465203985        9.1654142534       31.3276853365  WZ4       2171            0.0000000000
     26287      8763  TIP3      OH2            -5.3048903985       12.1679642534       19.7090353365  WZ4       2172            0.0000000000
     26288      8763  TIP3      H1             -5.6777803985       11.3423442534       20.0180953365  WZ4       2172            0.0000000000
     26289      8763  TIP3      H2             -5.0275403985       11.9849042534       18.8113753365  WZ4       2172            0.0000000000
     26290      8764  TIP3      OH2            -8.1445003985        6.9759142534       26.7302253365  WZ4       2173            0.0000000000
     26291      8764  TIP3      H1             -9.0728103985        6.7441042534       26.7031553365  WZ4       2173            0.0000000000
     26292      8764  TIP3      H2             -7.6933903985        6.1988942534       26.4001053365  WZ4       2173            0.0000000000
     26293      8765  TIP3      OH2           -15.6011903985       11.3040742534       22.8630953365  WZ4       2174            0.0000000000
     26294      8765  TIP3      H1            -15.0739703985       12.0775142534       22.6629753365  WZ4       2174            0.0000000000
     26295      8765  TIP3      H2            -16.4813403985       11.5289942534       22.5614953365  WZ4       2174            0.0000000000
     26296      8766  TIP3      OH2           -19.8464203985        6.1664842534       17.4503353365  WZ4       2175            0.0000000000
     26297      8766  TIP3      H1            -19.2304303985        6.7932042534       17.8298153365  WZ4       2175            0.0000000000
     26298      8766  TIP3      H2            -20.7081603985        6.4824642534       17.7219853365  WZ4       2175            0.0000000000
     26299      8767  TIP3      OH2           -14.1739603985        8.9670642534       22.4395253365  WZ4       2176            0.0000000000
     26300      8767  TIP3      H1            -14.4149603985        9.8925042534       22.4810553365  WZ4       2176            0.0000000000
     26301      8767  TIP3      H2            -14.9146003985        8.5081942534       22.8359153365  WZ4       2176            0.0000000000
     26302      8768  TIP3      OH2           -13.6593003985       13.1164242534       28.7546353365  WZ4       2177            0.0000000000
     26303      8768  TIP3      H1            -13.2968303985       13.9709842534       28.5210753365  WZ4       2177            0.0000000000
     26304      8768  TIP3      H2            -13.1277803985       12.8245842534       29.4952653365  WZ4       2177            0.0000000000
     26305      8769  TIP3      OH2           -15.4908803985       13.9888242534       21.9847453365  WZ4       2178            0.0000000000
     26306      8769  TIP3      H1            -16.4408303985       14.0945642534       22.0360753365  WZ4       2178            0.0000000000
     26307      8769  TIP3      H2            -15.1390703985       14.8095642534       22.3294953365  WZ4       2178            0.0000000000
     26308      8770  TIP3      OH2           -10.1152203985        9.2154942534       28.4551953365  WZ4       2179            0.0000000000
     26309      8770  TIP3      H1            -10.5410903985        8.9876642534       29.2815953365  WZ4       2179            0.0000000000
     26310      8770  TIP3      H2             -9.5346403985        8.4766742534       28.2727253365  WZ4       2179            0.0000000000
     26311      8771  TIP3      OH2            -7.9123303985       10.1445442534       17.5290953365  WZ4       2180            0.0000000000
     26312      8771  TIP3      H1             -7.5590203985        9.7645242534       18.3334453365  WZ4       2180            0.0000000000
     26313      8771  TIP3      H2             -8.8609803985       10.0510242534       17.6160253365  WZ4       2180            0.0000000000
     26314      8772  TIP3      OH2            -7.4568003985       13.7674442534       30.9246753365  WZ4       2181            0.0000000000
     26315      8772  TIP3      H1             -8.0584803985       13.2117342534       30.4293053365  WZ4       2181            0.0000000000
     26316      8772  TIP3      H2             -7.1754303985       14.4344242534       30.2984153365  WZ4       2181            0.0000000000
     26317      8773  TIP3      OH2            -3.4088903985       14.6237942534       17.7301153365  WZ4       2182            0.0000000000
     26318      8773  TIP3      H1             -2.6651003985       15.2098442534       17.5902753365  WZ4       2182            0.0000000000
     26319      8773  TIP3      H2             -4.1030803985       15.1923742534       18.0633553365  WZ4       2182            0.0000000000
     26320      8774  TIP3      OH2           -19.3342103985        1.0002142534       30.3319353365  WZ4       2183            0.0000000000
     26321      8774  TIP3      H1            -20.2269803985        1.3387542534       30.2643353365  WZ4       2183            0.0000000000
     26322      8774  TIP3      H2            -19.4329303985        0.1448242534       30.7500153365  WZ4       2183            0.0000000000
     26323      8775  TIP3      OH2            -7.0464003985        8.8167442534       19.7558853365  WZ4       2184            0.0000000000
     26324      8775  TIP3      H1             -7.3236403985        8.0886742534       20.3119953365  WZ4       2184            0.0000000000
     26325      8775  TIP3      H2             -6.1191003985        8.9359442534       19.9611453365  WZ4       2184            0.0000000000
     26326      8776  TIP3      OH2           -19.6830103985       12.8046542534       28.7668753365  WZ4       2185            0.0000000000
     26327      8776  TIP3      H1            -19.4659803985       11.8728942534       28.7358453365  WZ4       2185            0.0000000000
     26328      8776  TIP3      H2            -19.4366603985       13.0791542534       29.6501553365  WZ4       2185            0.0000000000
     26329      8777  TIP3      OH2           -13.8215503985       11.2561542534       15.9760953365  WZ4       2186            0.0000000000
     26330      8777  TIP3      H1            -13.5825703985       10.5079642534       15.4289853365  WZ4       2186            0.0000000000
     26331      8777  TIP3      H2            -14.0904203985       10.8683242534       16.8088753365  WZ4       2186            0.0000000000
     26332      8778  TIP3      OH2           -14.8844903985       10.8265342534       18.4323553365  WZ4       2187            0.0000000000
     26333      8778  TIP3      H1            -14.7376903985       10.3065142534       19.2224453365  WZ4       2187            0.0000000000
     26334      8778  TIP3      H2            -14.8873203985       11.7332942534       18.7389453365  WZ4       2187            0.0000000000
     26335      8779  TIP3      OH2           -18.4313803985        8.0788642534       18.9428953365  WZ4       2188            0.0000000000
     26336      8779  TIP3      H1            -19.1174503985        8.4311142534       19.5098653365  WZ4       2188            0.0000000000
     26337      8779  TIP3      H2            -17.9085903985        8.8418242534       18.6963253365  WZ4       2188            0.0000000000
     26338      8780  TIP3      OH2           -10.5998703985        0.7412442534       29.2217953365  WZ4       2189            0.0000000000
     26339      8780  TIP3      H1             -9.9010803985        0.8151142534       29.8717653365  WZ4       2189            0.0000000000
     26340      8780  TIP3      H2            -10.9807303985       -0.1232557466       29.3760853365  WZ4       2189            0.0000000000
     26341      8781  TIP3      OH2            -9.8153803985        0.3934142534       20.3190253365  WZ4       2190            0.0000000000
     26342      8781  TIP3      H1             -9.5955503985        0.8649542534       19.5155653365  WZ4       2190            0.0000000000
     26343      8781  TIP3      H2             -9.2569803985        0.7876742534       20.9890853365  WZ4       2190            0.0000000000
     26344      8782  TIP3      OH2           -12.1467703985       12.5238942534       19.1817753365  WZ4       2191            0.0000000000
     26345      8782  TIP3      H1            -12.9631603985       13.0208642534       19.2342053365  WZ4       2191            0.0000000000
     26346      8782  TIP3      H2            -11.6171403985       12.9992442534       18.5416553365  WZ4       2191            0.0000000000
     26347      8783  TIP3      OH2           -12.6153903985        2.1212942534       21.1538653365  WZ4       2192            0.0000000000
     26348      8783  TIP3      H1            -11.8031303985        2.6256142534       21.2000353365  WZ4       2192            0.0000000000
     26349      8783  TIP3      H2            -12.8600903985        1.9762642534       22.0678253365  WZ4       2192            0.0000000000
     26350      8784  TIP3      OH2           -12.0797503985        3.1075642534       30.3385253365  WZ4       2193            0.0000000000
     26351      8784  TIP3      H1            -11.9607203985        3.6811042534       31.0955653365  WZ4       2193            0.0000000000
     26352      8784  TIP3      H2            -11.4242903985        2.4195042534       30.4533053365  WZ4       2193            0.0000000000
     26353      8785  TIP3      OH2           -11.7317203985       -0.7974057466       22.0919753365  WZ4       2194            0.0000000000
     26354      8785  TIP3      H1            -12.0783703985       -0.1803457466       22.7364053365  WZ4       2194            0.0000000000
     26355      8785  TIP3      H2            -11.0730303985       -0.2968357466       21.6105253365  WZ4       2194            0.0000000000
     26356      8786  TIP3      OH2           -14.8084603985       13.5676142534       19.1634653365  WZ4       2195            0.0000000000
     26357      8786  TIP3      H1            -14.6475903985       14.3673642534       18.6627253365  WZ4       2195            0.0000000000
     26358      8786  TIP3      H2            -15.0056803985       13.8742142534       20.0485253365  WZ4       2195            0.0000000000
     26359      8787  TIP3      OH2           -16.0740203985        0.2655342534       18.7792253365  WZ4       2196            0.0000000000
     26360      8787  TIP3      H1            -16.1575403985        1.1538442534       19.1258653365  WZ4       2196            0.0000000000
     26361      8787  TIP3      H2            -15.1839903985        0.0002042534       19.0109053365  WZ4       2196            0.0000000000
     26362      8788  TIP3      OH2            -5.8751703985        1.0145942534       31.1734953365  WZ4       2197            0.0000000000
     26363      8788  TIP3      H1             -6.7915903985        1.2767642534       31.0858653365  WZ4       2197            0.0000000000
     26364      8788  TIP3      H2             -5.5396703985        1.0114942534       30.2770253365  WZ4       2197            0.0000000000
     26365      8789  TIP3      OH2            -7.2730703985        4.7646942534       25.2692253365  WZ4       2198            0.0000000000
     26366      8789  TIP3      H1             -8.0706303985        4.3497142534       24.9407253365  WZ4       2198            0.0000000000
     26367      8789  TIP3      H2             -6.8279603985        4.0740642534       25.7602753365  WZ4       2198            0.0000000000
     26368      8790  TIP3      OH2           -17.8154903985       10.6927542534       17.8396753365  WZ4       2199            0.0000000000
     26369      8790  TIP3      H1            -17.2233403985       11.3922342534       18.1159153365  WZ4       2199            0.0000000000
     26370      8790  TIP3      H2            -17.3561903985       10.2597042534       17.1201353365  WZ4       2199            0.0000000000
     26371      8791  TIP3      OH2           -19.4995703985        3.3570542534       16.9556153365  WZ4       2200            0.0000000000
     26372      8791  TIP3      H1            -19.5443103985        4.2963642534       17.1343153365  WZ4       2200            0.0000000000
     26373      8791  TIP3      H2            -20.3872503985        3.1215442534       16.6858253365  WZ4       2200            0.0000000000
     26374      8792  TIP3      OH2            -6.1866103985       14.0209442534       26.8915753365  WZ4       2201            0.0000000000
     26375      8792  TIP3      H1             -6.3421803985       14.6993842534       26.2345053365  WZ4       2201            0.0000000000
     26376      8792  TIP3      H2             -5.2539703985       14.0928742534       27.0946353365  WZ4       2201            0.0000000000
     26377      8793  TIP3      OH2           -18.6913703985       -1.8612857466       25.6287153365  WZ4       2202            0.0000000000
     26378      8793  TIP3      H1            -18.9203903985       -1.8020357466       24.7012153365  WZ4       2202            0.0000000000
     26379      8793  TIP3      H2            -19.1340303985       -2.6527357466       25.9351253365  WZ4       2202            0.0000000000
     26380      8794  TIP3      OH2           -19.7610403985       12.0794242534       21.7892953365  WZ4       2203            0.0000000000
     26381      8794  TIP3      H1            -20.5931803985       12.5516942534       21.8164353365  WZ4       2203            0.0000000000
     26382      8794  TIP3      H2            -19.2152103985       12.5891842534       21.1906053365  WZ4       2203            0.0000000000
     26383      8795  TIP3      OH2           -20.4726703985       14.6917942534       33.1190953365  WZ4       2204            0.0000000000
     26384      8795  TIP3      H1            -19.9324503985       14.4751942534       33.8790153365  WZ4       2204            0.0000000000
     26385      8795  TIP3      H2            -20.9538703985       13.8863942534       32.9293453365  WZ4       2204            0.0000000000
     26386      8796  TIP3      OH2           -15.8753303985       13.6112342534       34.7395153365  WZ4       2205            0.0000000000
     26387      8796  TIP3      H1            -15.1076103985       13.1523142534       35.0804353365  WZ4       2205            0.0000000000
     26388      8796  TIP3      H2            -15.8967103985       13.3852142534       33.8096353365  WZ4       2205            0.0000000000
     26389      8797  TIP3      OH2           -11.7833703985       13.1192942534       16.1146953365  WZ4       2206            0.0000000000
     26390      8797  TIP3      H1            -12.4272703985       12.4881542534       16.4360653365  WZ4       2206            0.0000000000
     26391      8797  TIP3      H2            -11.0215403985       12.5880942534       15.8830453365  WZ4       2206            0.0000000000
     26392      8798  TIP3      OH2            -9.2984603985       11.9913442534       33.4686653365  WZ4       2207            0.0000000000
     26393      8798  TIP3      H1             -9.6495103985       11.1346442534       33.7117053365  WZ4       2207            0.0000000000
     26394      8798  TIP3      H2             -8.5721403985       12.1340142534       34.0755653365  WZ4       2207            0.0000000000
     26395      8799  TIP3      OH2            -7.1790803985       12.9362842534       16.3484953365  WZ4       2208            0.0000000000
     26396      8799  TIP3      H1             -6.8960403985       12.1418042534       16.8011853365  WZ4       2208            0.0000000000
     26397      8799  TIP3      H2             -6.4392903985       13.1693842534       15.7876053365  WZ4       2208            0.0000000000
     26398      8800  TIP3      OH2           -20.5657203985        8.5022042534       34.0735253365  WZ4       2209            0.0000000000
     26399      8800  TIP3      H1            -20.4216703985        7.6002742534       33.7871953365  WZ4       2209            0.0000000000
     26400      8800  TIP3      H2            -21.3379803985        8.7884142534       33.5857553365  WZ4       2209            0.0000000000
     26401      8801  TIP3      OH2           -16.2243503985        8.8457742534       16.2059853365  WZ4       2210            0.0000000000
     26402      8801  TIP3      H1            -16.1599403985        8.0517342534       16.7366253365  WZ4       2210            0.0000000000
     26403      8801  TIP3      H2            -15.5714303985        8.7270542534       15.5161853365  WZ4       2210            0.0000000000
     26404      8802  TIP3      OH2           -13.9101103985        8.4720142534       33.5061653365  WZ4       2211            0.0000000000
     26405      8802  TIP3      H1            -14.2387303985        8.7428242534       32.6489053365  WZ4       2211            0.0000000000
     26406      8802  TIP3      H2            -13.7582903985        7.5309942534       33.4186653365  WZ4       2211            0.0000000000
     26407      8803  TIP3      OH2           -10.8720103985        9.8929442534       15.9417853365  WZ4       2212            0.0000000000
     26408      8803  TIP3      H1            -11.1406003985       10.0731542534       16.8426753365  WZ4       2212            0.0000000000
     26409      8803  TIP3      H2            -11.0784503985        8.9675642534       15.8103653365  WZ4       2212            0.0000000000
     26410      8804  TIP3      OH2            -8.1755903985        8.3877442534       30.8893953365  WZ4       2213            0.0000000000
     26411      8804  TIP3      H1             -7.4301103985        8.9761142534       30.7697953365  WZ4       2213            0.0000000000
     26412      8804  TIP3      H2             -8.9329103985        8.9697142534       30.9527053365  WZ4       2213            0.0000000000
     26413      8805  TIP3      OH2           -19.7330703985        5.7025342534       33.4934553365  WZ4       2214            0.0000000000
     26414      8805  TIP3      H1            -19.3249503985        4.8451942534       33.3725153365  WZ4       2214            0.0000000000
     26415      8805  TIP3      H2            -19.9933103985        5.7166642534       34.4144853365  WZ4       2214            0.0000000000
     26416      8806  TIP3      OH2           -15.0749703985        6.8183942534       18.5117853365  WZ4       2215            0.0000000000
     26417      8806  TIP3      H1            -15.5347703985        6.3342242534       19.1976353365  WZ4       2215            0.0000000000
     26418      8806  TIP3      H2            -14.8201003985        6.1499342534       17.8758353365  WZ4       2215            0.0000000000
     26419      8807  TIP3      OH2           -15.7860403985        4.7111042534       30.8677453365  WZ4       2216            0.0000000000
     26420      8807  TIP3      H1            -16.4044303985        5.3857642534       31.1482153365  WZ4       2216            0.0000000000
     26421      8807  TIP3      H2            -15.4419203985        5.0324942534       30.0343653365  WZ4       2216            0.0000000000
     26422      8808  TIP3      OH2           -14.0039303985        5.0615742534       16.7741053365  WZ4       2217            0.0000000000
     26423      8808  TIP3      H1            -14.1844303985        4.9066942534       15.8469353365  WZ4       2217            0.0000000000
     26424      8808  TIP3      H2            -13.0538803985        5.1694442534       16.8188953365  WZ4       2217            0.0000000000
     26425      8809  TIP3      OH2           -10.7662203985        7.1826342534       34.1452253365  WZ4       2218            0.0000000000
     26426      8809  TIP3      H1             -9.8131003985        7.2665442534       34.1178253365  WZ4       2218            0.0000000000
     26427      8809  TIP3      H2            -10.9267603985        6.4708142534       34.7647153365  WZ4       2218            0.0000000000
     26428      8810  TIP3      OH2            -4.6141003985        7.4159942534       16.2199153365  WZ4       2219            0.0000000000
     26429      8810  TIP3      H1             -4.8876203985        6.9915442534       15.4067453365  WZ4       2219            0.0000000000
     26430      8810  TIP3      H2             -4.5746903985        8.3474442534       16.0029553365  WZ4       2219            0.0000000000
     26431      8811  TIP3      OH2           -15.4466703985        2.0661842534       31.9500553365  WZ4       2220            0.0000000000
     26432      8811  TIP3      H1            -15.2965803985        1.3373142534       31.3480253365  WZ4       2220            0.0000000000
     26433      8811  TIP3      H2            -15.4444303985        2.8433542534       31.3912753365  WZ4       2220            0.0000000000
     26434      8812  TIP3      OH2           -15.0341003985        0.4357642534       29.4427953365  WZ4       2221            0.0000000000
     26435      8812  TIP3      H1            -14.4983503985        0.8874342534       28.7907253365  WZ4       2221            0.0000000000
     26436      8812  TIP3      H2            -15.8861403985        0.3277442534       29.0202053365  WZ4       2221            0.0000000000
     26437      8813  TIP3      OH2           -13.4522603985        5.8753842534       29.6823153365  WZ4       2222            0.0000000000
     26438      8813  TIP3      H1            -12.7017803985        5.7191342534       29.1090953365  WZ4       2222            0.0000000000
     26439      8813  TIP3      H2            -13.7914303985        6.7270442534       29.4068653365  WZ4       2222            0.0000000000
     26440      8814  TIP3      OH2            -9.0366403985        3.6905642534       34.7108453365  WZ4       2223            0.0000000000
     26441      8814  TIP3      H1             -8.8445103985        2.7595042534       34.5992953365  WZ4       2223            0.0000000000
     26442      8814  TIP3      H2             -8.1790103985        4.1155142534       34.7003853365  WZ4       2223            0.0000000000
     26443      8815  TIP3      OH2            -7.7199203985        6.4790842534       32.7881153365  WZ4       2224            0.0000000000
     26444      8815  TIP3      H1             -8.0014203985        7.1885442534       32.2104953365  WZ4       2224            0.0000000000
     26445      8815  TIP3      H2             -6.7774903985        6.4063842534       32.6372353365  WZ4       2224            0.0000000000
     26446      8816  TIP3      OH2           -16.9680403985        3.2645342534       33.8616153365  WZ4       2225            0.0000000000
     26447      8816  TIP3      H1            -17.7351403985        2.7320142534       33.6513753365  WZ4       2225            0.0000000000
     26448      8816  TIP3      H2            -16.2891403985        2.9545742534       33.2622453365  WZ4       2225            0.0000000000
     26449      8817  TIP3      OH2           -14.2285503985       -2.1076657466       29.8741553365  WZ4       2226            0.0000000000
     26450      8817  TIP3      H1            -14.3265903985       -1.1613457466       29.7687753365  WZ4       2226            0.0000000000
     26451      8817  TIP3      H2            -14.9709303985       -2.4802857466       29.3985053365  WZ4       2226            0.0000000000
     26452      8818  TIP3      OH2           -12.9645003985        2.2138742534       33.4379953365  WZ4       2227            0.0000000000
     26453      8818  TIP3      H1            -13.1999603985        1.9945442534       34.3394853365  WZ4       2227            0.0000000000
     26454      8818  TIP3      H2            -13.7478103985        2.0069942534       32.9282453365  WZ4       2227            0.0000000000
     26455      8819  TIP3      OH2           -10.2488403985        1.3412242534       32.5133453365  WZ4       2228            0.0000000000
     26456      8819  TIP3      H1            -11.1963003985        1.3731942534       32.6456753365  WZ4       2228            0.0000000000
     26457      8819  TIP3      H2             -9.9361703985        0.7159342534       33.1671653365  WZ4       2228            0.0000000000
     26458      8820  TIP3      OH2            -8.6146903985       -0.0246657466       34.5185353365  WZ4       2229            0.0000000000
     26459      8820  TIP3      H1             -8.7115103985       -0.9769357466       34.5127253365  WZ4       2229            0.0000000000
     26460      8820  TIP3      H2             -8.9363803985        0.2440142534       35.3790853365  WZ4       2229            0.0000000000
     26461      8821  TIP3      OH2           -18.7877603985        1.1849142534       33.5660853365  WZ4       2230            0.0000000000
     26462      8821  TIP3      H1            -18.5760203985        0.4785242534       32.9558353365  WZ4       2230            0.0000000000
     26463      8821  TIP3      H2            -18.8990103985        0.7475142534       34.4102053365  WZ4       2230            0.0000000000
     26464      8822  TIP3      OH2           -14.0067403985       -2.8139257466       32.5454353365  WZ4       2231            0.0000000000
     26465      8822  TIP3      H1            -13.2949003985       -3.4537057466       32.5313453365  WZ4       2231            0.0000000000
     26466      8822  TIP3      H2            -14.1077003985       -2.5470957466       31.6317453365  WZ4       2231            0.0000000000
     26467      8823  TIP3      OH2           -13.6529903985       -1.1310857466       34.5990653365  WZ4       2232            0.0000000000
     26468      8823  TIP3      H1            -13.7847703985       -1.6067057466       33.7789153365  WZ4       2232            0.0000000000
     26469      8823  TIP3      H2            -14.2522503985       -0.3867257466       34.5437753365  WZ4       2232            0.0000000000
     26470      8824  TIP3      OH2           -14.1067603985       15.7519442534       17.7754653365  WZ4       2233            0.0000000000
     26471      8824  TIP3      H1            -13.1736903985       15.9098142534       17.9193053365  WZ4       2233            0.0000000000
     26472      8824  TIP3      H2            -14.3708803985       16.4272442534       17.1506153365  WZ4       2233            0.0000000000
     26473      8825  TIP3      OH2           -20.5382703985       10.3883242534       17.2582753365  WZ4       2234            0.0000000000
     26474      8825  TIP3      H1            -19.6243503985       10.4672142534       17.5316653365  WZ4       2234            0.0000000000
     26475      8825  TIP3      H2            -20.5309603985        9.7012842534       16.5918353365  WZ4       2234            0.0000000000
     26476      8826  TIP3      OH2           -21.8892103985       15.7811742534       22.3356653365  WZ4       2235            0.0000000000
     26477      8826  TIP3      H1            -22.5365003985       15.3193442534       21.8027853365  WZ4       2235            0.0000000000
     26478      8826  TIP3      H2            -21.5347503985       15.1095042534       22.9182853365  WZ4       2235            0.0000000000
     26479      8827  TIP3      OH2           -21.0192903985       13.8618742534       24.1402853365  WZ4       2236            0.0000000000
     26480      8827  TIP3      H1            -21.3536103985       12.9816042534       24.3123053365  WZ4       2236            0.0000000000
     26481      8827  TIP3      H2            -20.7970503985       14.2073742534       25.0048453365  WZ4       2236            0.0000000000
     26482      8828  TIP3      OH2            -3.4708103985       14.6715142534       27.1207653365  WZ4       2237            0.0000000000
     26483      8828  TIP3      H1             -3.4921403985       14.8563542534       28.0597053365  WZ4       2237            0.0000000000
     26484      8828  TIP3      H2             -2.7801903985       15.2399142534       26.7799053365  WZ4       2237            0.0000000000
     26485      8829  TIP3      OH2            -3.9075203985       14.2386242534       30.0426753365  WZ4       2238            0.0000000000
     26486      8829  TIP3      H1             -4.3946503985       13.5030342534       29.6714153365  WZ4       2238            0.0000000000
     26487      8829  TIP3      H2             -3.3582503985       13.8450142534       30.7206153365  WZ4       2238            0.0000000000
     26488      8830  TIP3      OH2            -5.4567903985       10.0284342534       34.6807053365  WZ4       2239            0.0000000000
     26489      8830  TIP3      H1             -6.3226803985        9.9234042534       35.0749353365  WZ4       2239            0.0000000000
     26490      8830  TIP3      H2             -5.0802003985       10.7867642534       35.1271753365  WZ4       2239            0.0000000000
     26491      8831  TIP3      OH2            -4.1558203985        8.2848042534       20.1949553365  WZ4       2240            0.0000000000
     26492      8831  TIP3      H1             -3.3056803985        8.7058942534       20.3221153365  WZ4       2240            0.0000000000
     26493      8831  TIP3      H2             -4.1503103985        7.5448142534       20.8020953365  WZ4       2240            0.0000000000
     26494      8832  TIP3      OH2            -3.7612603985        6.3385442534       22.0185253365  WZ4       2241            0.0000000000
     26495      8832  TIP3      H1             -4.4878003985        5.8588042534       22.4162853365  WZ4       2241            0.0000000000
     26496      8832  TIP3      H2             -3.1799303985        6.5440142534       22.7506853365  WZ4       2241            0.0000000000
     26497      8833  TIP3      OH2            -4.0021403985        9.1232942534       26.9662853365  WZ4       2242            0.0000000000
     26498      8833  TIP3      H1             -3.1687203985        8.7452942534       26.6856453365  WZ4       2242            0.0000000000
     26499      8833  TIP3      H2             -3.8901103985       10.0664142534       26.8471953365  WZ4       2242            0.0000000000
     26500      8834  TIP3      OH2            -5.5159103985       12.0010442534       29.2731253365  WZ4       2243            0.0000000000
     26501      8834  TIP3      H1             -6.1633803985       12.3261942534       29.8986453365  WZ4       2243            0.0000000000
     26502      8834  TIP3      H2             -6.0335103985       11.5608142534       28.5989553365  WZ4       2243            0.0000000000
     26503      8835  TIP3      OH2            -3.4929503985        6.2393942534       18.4096553365  WZ4       2244            0.0000000000
     26504      8835  TIP3      H1             -4.0148403985        6.5958042534       17.6907453365  WZ4       2244            0.0000000000
     26505      8835  TIP3      H2             -3.5260303985        6.9141742534       19.0877453365  WZ4       2244            0.0000000000
     26506      8836  TIP3      OH2            -5.1440503985        3.4789542534       16.9603653365  WZ4       2245            0.0000000000
     26507      8836  TIP3      H1             -5.0476103985        4.1456542534       16.2803353365  WZ4       2245            0.0000000000
     26508      8836  TIP3      H2             -5.2840903985        2.6635842534       16.4789153365  WZ4       2245            0.0000000000
     26509      8837  TIP3      OH2            -5.9745803985        4.8591942534       22.5813953365  WZ4       2246            0.0000000000
     26510      8837  TIP3      H1             -6.1247003985        3.9140542534       22.5611753365  WZ4       2246            0.0000000000
     26511      8837  TIP3      H2             -6.3281303985        5.1403342534       23.4253053365  WZ4       2246            0.0000000000
     26512      8838  TIP3      OH2           -20.9393403985        6.9374142534       26.5917753365  WZ4       2247            0.0000000000
     26513      8838  TIP3      H1            -20.7550503985        6.8555842534       25.6560653365  WZ4       2247            0.0000000000
     26514      8838  TIP3      H2            -20.0900503985        6.8131142534       27.0154153365  WZ4       2247            0.0000000000
     26515      8839  TIP3      OH2            -5.1182903985        6.8295242534       32.2202253365  WZ4       2248            0.0000000000
     26516      8839  TIP3      H1             -4.5355603985        6.0947542534       32.4119453365  WZ4       2248            0.0000000000
     26517      8839  TIP3      H2             -4.5543603985        7.6015542534       32.2668053365  WZ4       2248            0.0000000000
     26518      8840  TIP3      OH2            -3.6215803985        4.7321042534       32.9047653365  WZ4       2249            0.0000000000
     26519      8840  TIP3      H1             -4.4849103985        4.3533142534       32.7392353365  WZ4       2249            0.0000000000
     26520      8840  TIP3      H2             -3.0172103985        3.9935842534       32.8303453365  WZ4       2249            0.0000000000
     26521      8841  TIP3      OH2            -5.8966703985        0.8869342534       16.0779153365  WZ4       2250            0.0000000000
     26522      8841  TIP3      H1             -5.2860903985        0.5156142534       16.7147353365  WZ4       2250            0.0000000000
     26523      8841  TIP3      H2             -6.7335203985        0.4656242534       16.2739153365  WZ4       2250            0.0000000000
     26524      8842  TIP3      OH2            -6.2641003985        2.4417742534       21.0439053365  WZ4       2251            0.0000000000
     26525      8842  TIP3      H1             -5.9843903985        1.5348142534       21.1680753365  WZ4       2251            0.0000000000
     26526      8842  TIP3      H2             -5.5049303985        2.8759242534       20.6548253365  WZ4       2251            0.0000000000
     26527      8843  TIP3      OH2            -5.6522703985        3.0235142534       26.4797953365  WZ4       2252            0.0000000000
     26528      8843  TIP3      H1             -4.7194703985        3.2355042534       26.4453953365  WZ4       2252            0.0000000000
     26529      8843  TIP3      H2             -5.8875203985        3.1247242534       27.4020953365  WZ4       2252            0.0000000000
     26530      8844  TIP3      OH2            -5.6230803985        3.7600442534       29.2557353365  WZ4       2253            0.0000000000
     26531      8844  TIP3      H1             -6.4659503985        4.0280842534       29.6217153365  WZ4       2253            0.0000000000
     26532      8844  TIP3      H2             -5.1806503985        4.5822342534       29.0448453365  WZ4       2253            0.0000000000
     26533      8845  TIP3      OH2           -21.3418603985        2.2079142534       32.7326553365  WZ4       2254            0.0000000000
     26534      8845  TIP3      H1            -20.4223703985        2.0857442534       32.9689653365  WZ4       2254            0.0000000000
     26535      8845  TIP3      H2            -21.7914103985        1.4578842534       33.1220053365  WZ4       2254            0.0000000000
     26536      8846  TIP3      OH2            -3.3399203985       -2.2599357466       34.6092353365  WZ4       2255            0.0000000000
     26537      8846  TIP3      H1             -2.9902203985       -2.9135857466       34.0037053365  WZ4       2255            0.0000000000
     26538      8846  TIP3      H2             -3.1929703985       -1.4225257466       34.1694953365  WZ4       2255            0.0000000000
     26539      8847  TIP3      OH2            -5.6506203985       -0.2952957466       21.0921053365  WZ4       2256            0.0000000000
     26540      8847  TIP3      H1             -5.4681203985       -0.7441457466       21.9176053365  WZ4       2256            0.0000000000
     26541      8847  TIP3      H2             -6.2503303985       -0.8798557466       20.6285653365  WZ4       2256            0.0000000000
     26542      8848  TIP3      OH2           -20.1206103985        0.5200742534       25.6239453365  WZ4       2257            0.0000000000
     26543      8848  TIP3      H1            -19.6754503985       -0.2716757466       25.9259153365  WZ4       2257            0.0000000000
     26544      8848  TIP3      H2            -19.6543103985        1.2365942534       26.0545053365  WZ4       2257            0.0000000000
     26545      8849  TIP3      OH2           -21.8165803985        3.5193742534       26.6929653365  WZ4       2258            0.0000000000
     26546      8849  TIP3      H1            -21.3246003985        3.2984242534       25.9021653365  WZ4       2258            0.0000000000
     26547      8849  TIP3      H2            -21.4544903985        4.3597142534       26.9739153365  WZ4       2258            0.0000000000
     26548      8850  TIP3      OH2            -3.8202003985       -0.1504757466       32.9583653365  WZ4       2259            0.0000000000
     26549      8850  TIP3      H1             -4.7376303985        0.1202342534       32.9227153365  WZ4       2259            0.0000000000
     26550      8850  TIP3      H2             -3.6972603985       -0.6856357466       32.1743353365  WZ4       2259            0.0000000000
     26551      8851  TIP3      OH2            -3.7840003985       -0.2274857466       17.6201353365  WZ4       2260            0.0000000000
     26552      8851  TIP3      H1             -3.3717403985       -0.9489157466       17.1449353365  WZ4       2260            0.0000000000
     26553      8851  TIP3      H2             -3.1023503985        0.4419742534       17.6785653365  WZ4       2260            0.0000000000
     26554      8852  TIP3      OH2           -21.5029303985       -0.2227157466       20.7472053365  WZ4       2261            0.0000000000
     26555      8852  TIP3      H1            -22.4280903985       -0.0140557466       20.6177553365  WZ4       2261            0.0000000000
     26556      8852  TIP3      H2            -21.0489403985        0.2613642534       20.0574353365  WZ4       2261            0.0000000000
     26557      8853  TIP3      OH2            -6.7322103985       14.7614542534       22.6929453365  WZ4       2262            0.0000000000
     26558      8853  TIP3      H1             -6.0799203985       14.4136642534       22.0848553365  WZ4       2262            0.0000000000
     26559      8853  TIP3      H2             -6.2218303985       15.2497742534       23.3389153365  WZ4       2262            0.0000000000
     26560      8854  TIP3      OH2           -21.5393903985       -1.4848157466       29.0914553365  WZ4       2263            0.0000000000
     26561      8854  TIP3      H1            -22.2043403985       -1.7307857466       29.7345453365  WZ4       2263            0.0000000000
     26562      8854  TIP3      H2            -21.9822603985       -0.8627757466       28.5142553365  WZ4       2263            0.0000000000
     26563      8855  TIP3      OH2           -19.3474603985       11.6905942534       33.2360353365  WZ4       2264            0.0000000000
     26564      8855  TIP3      H1            -20.1682103985       11.8652442534       32.7755053365  WZ4       2264            0.0000000000
     26565      8855  TIP3      H2            -19.5996803985       11.6170642534       34.1564753365  WZ4       2264            0.0000000000
     26566      8856  TIP3      OH2           -16.3931703985       12.6647142534       29.4944353365  WZ4       2265            0.0000000000
     26567      8856  TIP3      H1            -16.8180603985       13.4745642534       29.2118953365  WZ4       2265            0.0000000000
     26568      8856  TIP3      H2            -15.4888903985       12.7501242534       29.1924153365  WZ4       2265            0.0000000000
     26569      8857  TIP3      OH2           -12.0820303985       14.0637142534       32.4538053365  WZ4       2266            0.0000000000
     26570      8857  TIP3      H1            -11.8972803985       13.7303242534       33.3318353365  WZ4       2266            0.0000000000
     26571      8857  TIP3      H2            -11.2355803985       14.3735742534       32.1317253365  WZ4       2266            0.0000000000
     26572      8858  TIP3      OH2            -9.7369903985       15.3496042534       31.6979453365  WZ4       2267            0.0000000000
     26573      8858  TIP3      H1             -9.0601003985       14.7168342534       31.4578653365  WZ4       2267            0.0000000000
     26574      8858  TIP3      H2             -9.4151103985       15.7506542534       32.5052753365  WZ4       2267            0.0000000000
     26575      8859  TIP3      OH2            -4.8196103985       -2.0608457466       30.7774453365  WZ4       2268            0.0000000000
     26576      8859  TIP3      H1             -5.6322603985       -1.7358157466       30.3899153365  WZ4       2268            0.0000000000
     26577      8859  TIP3      H2             -4.5867603985       -2.8209957466       30.2443553365  WZ4       2268            0.0000000000
     26578      8860  TIP3      OH2           -18.9915003985       15.9211042534       29.5419653365  WZ4       2269            0.0000000000
     26579      8860  TIP3      H1            -19.7118603985       16.3612042534       29.0907353365  WZ4       2269            0.0000000000
     26580      8860  TIP3      H2            -19.3571003985       15.6705742534       30.3903653365  WZ4       2269            0.0000000000
     26581      8861  TIP3      OH2           -16.5242403985       15.5214942534       28.5716853365  WZ4       2270            0.0000000000
     26582      8861  TIP3      H1            -17.3890203985       15.5933442534       28.9756953365  WZ4       2270            0.0000000000
     26583      8861  TIP3      H2            -16.5793403985       16.0682242534       27.7879353365  WZ4       2270            0.0000000000
     26584      8862  TIP3      OH2           -11.8136803985       15.4093842534       27.7472853365  WZ4       2271            0.0000000000
     26585      8862  TIP3      H1            -12.2702803985       15.9383542534       27.0931253365  WZ4       2271            0.0000000000
     26586      8862  TIP3      H2            -11.6508803985       16.0125242534       28.4725153365  WZ4       2271            0.0000000000
     26587      8863  TIP3      OH2            -9.4860503985       14.2873442534       28.6923153365  WZ4       2272            0.0000000000
     26588      8863  TIP3      H1            -10.3906803985       14.4523642534       28.4265253365  WZ4       2272            0.0000000000
     26589      8863  TIP3      H2             -9.0571903985       15.1405642534       28.6266553365  WZ4       2272            0.0000000000
     26590      8864  TIP3      OH2            -6.8818603985       15.8572542534       28.9870953365  WZ4       2273            0.0000000000
     26591      8864  TIP3      H1             -7.0636603985       16.7731442534       28.7765853365  WZ4       2273            0.0000000000
     26592      8864  TIP3      H2             -6.7050803985       15.4469642534       28.1405553365  WZ4       2273            0.0000000000
     26593      8865  TIP3      OH2           -19.5766903985       14.5443542534       26.4521453365  WZ4       2274            0.0000000000
     26594      8865  TIP3      H1            -19.5950903985       14.1188642534       27.3093753365  WZ4       2274            0.0000000000
     26595      8865  TIP3      H2            -18.7719003985       14.2258542534       26.0433653365  WZ4       2274            0.0000000000
     26596      8866  TIP3      OH2           -17.4353803985       13.2542242534       25.1071353365  WZ4       2275            0.0000000000
     26597      8866  TIP3      H1            -17.6543103985       12.3379642534       25.2767353365  WZ4       2275            0.0000000000
     26598      8866  TIP3      H2            -16.6111603985       13.3942642534       25.5732753365  WZ4       2275            0.0000000000
     26599      8867  TIP3      OH2           -14.8981303985       13.7241542534       25.9559353365  WZ4       2276            0.0000000000
     26600      8867  TIP3      H1            -14.6855603985       12.8360542534       25.6690253365  WZ4       2276            0.0000000000
     26601      8867  TIP3      H2            -14.8336203985       13.6899242534       26.9103353365  WZ4       2276            0.0000000000
     26602      8868  TIP3      OH2           -11.3897603985       -0.6117857466       25.1002653365  WZ4       2277            0.0000000000
     26603      8868  TIP3      H1            -12.0640803985       -1.2412257466       25.3558453365  WZ4       2277            0.0000000000
     26604      8868  TIP3      H2            -10.8258403985       -1.0958957466       24.4970553365  WZ4       2277            0.0000000000
     26605      8869  TIP3      OH2            -6.2470403985       -2.5043857466       25.2129753365  WZ4       2278            0.0000000000
     26606      8869  TIP3      H1             -5.6432803985       -1.9568457466       24.7110753365  WZ4       2278            0.0000000000
     26607      8869  TIP3      H2             -7.1168403985       -2.1853457466       24.9723853365  WZ4       2278            0.0000000000
     26608      8870  TIP3      OH2            -4.5200003985       -1.3655157466       23.5460653365  WZ4       2279            0.0000000000
     26609      8870  TIP3      H1             -3.9082503985       -1.8799457466       23.0194253365  WZ4       2279            0.0000000000
     26610      8870  TIP3      H2             -4.1376603985       -0.4883057466       23.5695053365  WZ4       2279            0.0000000000
     26611      8871  TIP3      OH2           -19.0630103985       -1.9777557466       22.9222553365  WZ4       2280            0.0000000000
     26612      8871  TIP3      H1            -19.8400303985       -2.2122657466       22.4148453365  WZ4       2280            0.0000000000
     26613      8871  TIP3      H2            -18.5326503985       -2.7745457466       22.9310553365  WZ4       2280            0.0000000000
     26614      8872  TIP3      OH2           -20.2266703985       -2.1799457466       18.7258653365  WZ4       2281            0.0000000000
     26615      8872  TIP3      H1            -19.7876003985       -1.5688957466       18.1342153365  WZ4       2281            0.0000000000
     26616      8872  TIP3      H2            -20.8604303985       -1.6415357466       19.1998653365  WZ4       2281            0.0000000000
     26617      8873  TIP3      OH2           -14.4837503985       -2.0510457466       22.7355653365  WZ4       2282            0.0000000000
     26618      8873  TIP3      H1            -13.6094103985       -1.6626157466       22.7059953365  WZ4       2282            0.0000000000
     26619      8873  TIP3      H2            -14.6196703985       -2.2662657466       23.6582853365  WZ4       2282            0.0000000000
     26620      8874  TIP3      OH2            -8.9269103985       -2.0210657466       24.3847353365  WZ4       2283            0.0000000000
     26621      8874  TIP3      H1             -8.8507503985       -1.9259057466       23.4353353365  WZ4       2283            0.0000000000
     26622      8874  TIP3      H2             -9.2019903985       -2.9287757466       24.5136453365  WZ4       2283            0.0000000000
     26623      8875  TIP3      OH2            -7.5736503985       -1.9952857466       20.0772353365  WZ4       2284            0.0000000000
     26624      8875  TIP3      H1             -8.2765403985       -1.3803657466       19.8673753365  WZ4       2284            0.0000000000
     26625      8875  TIP3      H2             -8.0185103985       -2.8326157466       20.2083253365  WZ4       2284            0.0000000000
     26626      8876  TIP3      OH2           -20.3257203985       13.7682742534       19.6233753365  WZ4       2285            0.0000000000
     26627      8876  TIP3      H1            -21.0107303985       13.7301642534       18.9558853365  WZ4       2285            0.0000000000
     26628      8876  TIP3      H2            -20.3220003985       14.6810342534       19.9115853365  WZ4       2285            0.0000000000
     26629      8877  TIP3      OH2           -18.3657603985       -0.2637957466       17.1682753365  WZ4       2286            0.0000000000
     26630      8877  TIP3      H1            -17.8744203985       -0.8935557466       16.6408253365  WZ4       2286            0.0000000000
     26631      8877  TIP3      H2            -17.7421303985        0.0321442534       17.8313953365  WZ4       2286            0.0000000000
     26632      8878  TIP3      OH2           -13.3397503985        0.0293542534       19.6253253365  WZ4       2287            0.0000000000
     26633      8878  TIP3      H1            -13.1616203985       -0.6173257466       20.3081853365  WZ4       2287            0.0000000000
     26634      8878  TIP3      H2            -13.3931303985        0.8631242534       20.0924353365  WZ4       2287            0.0000000000
     26635      8879  TIP3      OH2           -11.4613703985       14.9777642534       18.0209953365  WZ4       2288            0.0000000000
     26636      8879  TIP3      H1            -10.5953503985       15.3445042534       17.8428153365  WZ4       2288            0.0000000000
     26637      8879  TIP3      H2            -11.7080903985       14.5385642534       17.2070753365  WZ4       2288            0.0000000000
     26638      8880  TIP3      OH2            -4.7524103985       14.5407942534       20.7001053365  WZ4       2289            0.0000000000
     26639      8880  TIP3      H1             -4.9467003985       13.7930042534       20.1350653365  WZ4       2289            0.0000000000
     26640      8880  TIP3      H2             -4.7914003985       15.2988042534       20.1168953365  WZ4       2289            0.0000000000
     26641      8881  TIP3      OH2           -19.1052103985       -1.4635657466       32.4398753365  WZ4       2290            0.0000000000
     26642      8881  TIP3      H1            -19.4713903985       -2.2293057466       32.8823453365  WZ4       2290            0.0000000000
     26643      8881  TIP3      H2            -18.1923603985       -1.4345457466       32.7263853365  WZ4       2290            0.0000000000
     26644      8882  TIP3      OH2           -17.1321303985       -2.1131257466       33.9755853365  WZ4       2291            0.0000000000
     26645      8882  TIP3      H1            -16.2337703985       -2.3871057466       33.7909253365  WZ4       2291            0.0000000000
     26646      8882  TIP3      H2            -17.5188203985       -2.8555257466       34.4398453365  WZ4       2291            0.0000000000
     26647      8883  TIP3      OH2           -18.5076003985       14.6883542534       16.6485853365  WZ4       2292            0.0000000000
     26648      8883  TIP3      H1            -18.7751403985       14.9746442534       17.5218953365  WZ4       2292            0.0000000000
     26649      8883  TIP3      H2            -17.7363403985       14.1422742534       16.8008353365  WZ4       2292            0.0000000000
     26650      8884  TIP3      OH2            -8.7109003985       -2.7805957466       34.1578653365  WZ4       2293            0.0000000000
     26651      8884  TIP3      H1             -8.6341803985       -3.2065257466       35.0116353365  WZ4       2293            0.0000000000
     26652      8884  TIP3      H2             -7.8172403985       -2.7671257466       33.8152153365  WZ4       2293            0.0000000000
     26653      8885  TIP3      OH2            -5.5347903985       13.2920342534       32.8502853365  WZ4       2294            0.0000000000
     26654      8885  TIP3      H1             -6.3166003985       13.1058342534       32.3303453365  WZ4       2294            0.0000000000
     26655      8885  TIP3      H2             -5.6068003985       14.2214642534       33.0675353365  WZ4       2294            0.0000000000
     26656      8886  TIP3      OH2             8.8712496015        7.1784742534       22.8810053365  WZ4       2295            0.0000000000
     26657      8886  TIP3      H1              8.9603596015        8.1222942534       22.7487153365  WZ4       2295            0.0000000000
     26658      8886  TIP3      H2              8.2330096015        6.9031142534       22.2229453365  WZ4       2295            0.0000000000
     26659      8887  TIP3      OH2             7.8043796015        6.4335442534       26.2998253365  WZ4       2296            0.0000000000
     26660      8887  TIP3      H1              7.7661296015        5.7871742534       27.0047853365  WZ4       2296            0.0000000000
     26661      8887  TIP3      H2              7.4820296015        5.9669842534       25.5286953365  WZ4       2296            0.0000000000
     26662      8888  TIP3      OH2             0.1728796015        6.0477542534       27.8928153365  WZ4       2297            0.0000000000
     26663      8888  TIP3      H1              0.2140896015        5.4220842534       28.6160553365  WZ4       2297            0.0000000000
     26664      8888  TIP3      H2              0.8756496015        6.6716142534       28.0748553365  WZ4       2297            0.0000000000
     26665      8889  TIP3      OH2            11.5103996015        9.3725842534       24.6013353365  WZ4       2298            0.0000000000
     26666      8889  TIP3      H1             11.0696696015        8.6521842534       25.0518953365  WZ4       2298            0.0000000000
     26667      8889  TIP3      H2             11.4973696015       10.0933042534       25.2311053365  WZ4       2298            0.0000000000
     26668      8890  TIP3      OH2             1.0961896015       10.4976442534       26.4277253365  WZ4       2299            0.0000000000
     26669      8890  TIP3      H1              0.7267096015        9.6956942534       26.0581553365  WZ4       2299            0.0000000000
     26670      8890  TIP3      H2              2.0372996015       10.3291342534       26.4740653365  WZ4       2299            0.0000000000
     26671      8891  TIP3      OH2            -2.2937603985        4.1579042534       21.8206053365  WZ4       2300            0.0000000000
     26672      8891  TIP3      H1             -2.7414203985        5.0037742534       21.8022553365  WZ4       2300            0.0000000000
     26673      8891  TIP3      H2             -2.8546403985        3.5783242534       21.3051153365  WZ4       2300            0.0000000000
     26674      8892  TIP3      OH2            -1.5831503985        6.3198642534       23.9464053365  WZ4       2301            0.0000000000
     26675      8892  TIP3      H1             -1.3698003985        5.5500242534       24.4737053365  WZ4       2301            0.0000000000
     26676      8892  TIP3      H2             -0.8453903985        6.4095342534       23.3431653365  WZ4       2301            0.0000000000
     26677      8893  TIP3      OH2             8.6219496015       14.4767542534       24.8133753365  WZ4       2302            0.0000000000
     26678      8893  TIP3      H1              9.2415896015       13.8002242534       24.5402953365  WZ4       2302            0.0000000000
     26679      8893  TIP3      H2              8.4136896015       14.2588342534       25.7218653365  WZ4       2302            0.0000000000
     26680      8894  TIP3      OH2             6.1938196015        8.8656842534       26.7059253365  WZ4       2303            0.0000000000
     26681      8894  TIP3      H1              6.4976096015        8.1798242534       26.1113353365  WZ4       2303            0.0000000000
     26682      8894  TIP3      H2              6.9152196015        8.9845542534       27.3237253365  WZ4       2303            0.0000000000
     26683      8895  TIP3      OH2            14.8567996015        0.4672142534       27.5665453365  WZ4       2304            0.0000000000
     26684      8895  TIP3      H1             14.9060196015        1.0773342534       28.3024553365  WZ4       2304            0.0000000000
     26685      8895  TIP3      H2             15.2823096015        0.9283042534       26.8436553365  WZ4       2304            0.0000000000
     26686      8896  TIP3      OH2             9.3345196015        3.2599242534       27.0334053365  WZ4       2305            0.0000000000
     26687      8896  TIP3      H1              9.4771096015        2.3136242534       27.0535653365  WZ4       2305            0.0000000000
     26688      8896  TIP3      H2              9.2284196015        3.4669042534       26.1048953365  WZ4       2305            0.0000000000
     26689      8897  TIP3      OH2             2.4893496015        1.3615642534       24.3058853365  WZ4       2306            0.0000000000
     26690      8897  TIP3      H1              2.5324596015        2.2214142534       23.8875153365  WZ4       2306            0.0000000000
     26691      8897  TIP3      H2              2.0317596015        0.8090342534       23.6722053365  WZ4       2306            0.0000000000
     26692      8898  TIP3      OH2            10.2116196015        1.4921242534       22.7067153365  WZ4       2307            0.0000000000
     26693      8898  TIP3      H1             10.8580496015        1.1634442534       23.3314753365  WZ4       2307            0.0000000000
     26694      8898  TIP3      H2             10.7215596015        2.0100242534       22.0838553365  WZ4       2307            0.0000000000
     26695      8899  TIP3      OH2            -0.8905003985        3.7581442534       25.0680253365  WZ4       2308            0.0000000000
     26696      8899  TIP3      H1             -0.2368403985        3.2083142534       25.5000353365  WZ4       2308            0.0000000000
     26697      8899  TIP3      H2             -0.8665703985        3.4840442534       24.1512253365  WZ4       2308            0.0000000000
     26698      8900  TIP3      OH2             4.2659496015        5.3082742534       24.2831753365  WZ4       2309            0.0000000000
     26699      8900  TIP3      H1              4.8820496015        4.7818142534       24.7925753365  WZ4       2309            0.0000000000
     26700      8900  TIP3      H2              3.6798296015        4.6681442534       23.8795353365  WZ4       2309            0.0000000000
     26701      8901  TIP3      OH2            15.2482596015        1.9451342534       29.8025253365  WZ4       2310            0.0000000000
     26702      8901  TIP3      H1             14.5597196015        2.6032042534       29.7071853365  WZ4       2310            0.0000000000
     26703      8901  TIP3      H2             15.2637196015        1.7479242534       30.7390653365  WZ4       2310            0.0000000000
     26704      8902  TIP3      OH2             1.2995396015        0.2794042534       28.3799653365  WZ4       2311            0.0000000000
     26705      8902  TIP3      H1              1.0807096015        0.8094642534       27.6135653365  WZ4       2311            0.0000000000
     26706      8902  TIP3      H2              0.6316296015        0.5059542534       29.0271053365  WZ4       2311            0.0000000000
     26707      8903  TIP3      OH2             8.6685196015        9.7795142534       21.9238753365  WZ4       2312            0.0000000000
     26708      8903  TIP3      H1              8.3730296015        9.4567442534       21.0725653365  WZ4       2312            0.0000000000
     26709      8903  TIP3      H2              8.3442996015       10.6791842534       21.9651353365  WZ4       2312            0.0000000000
     26710      8904  TIP3      OH2             3.8686796015        7.9549742534       28.6673353365  WZ4       2313            0.0000000000
     26711      8904  TIP3      H1              3.1285896015        8.5531242534       28.7708553365  WZ4       2313            0.0000000000
     26712      8904  TIP3      H2              4.5826296015        8.5089342534       28.3516953365  WZ4       2313            0.0000000000
     26713      8905  TIP3      OH2            11.9754596015        0.7830542534       24.6873053365  WZ4       2314            0.0000000000
     26714      8905  TIP3      H1             11.7602596015        0.0173942534       25.2199053365  WZ4       2314            0.0000000000
     26715      8905  TIP3      H2             12.6311996015        1.2555142534       25.2001553365  WZ4       2314            0.0000000000
     26716      8906  TIP3      OH2             0.8932696015        2.1715842534       26.3321853365  WZ4       2315            0.0000000000
     26717      8906  TIP3      H1              1.5068996015        2.8043442534       26.7054253365  WZ4       2315            0.0000000000
     26718      8906  TIP3      H2              1.4053396015        1.6990842534       25.6758753365  WZ4       2315            0.0000000000
     26719      8907  TIP3      OH2             2.2761096015        9.9192742534       29.4544853365  WZ4       2316            0.0000000000
     26720      8907  TIP3      H1              2.2708696015       10.7986242534       29.0764153365  WZ4       2316            0.0000000000
     26721      8907  TIP3      H2              1.4225196015        9.8356842534       29.8794753365  WZ4       2316            0.0000000000
     26722      8908  TIP3      OH2            -1.6028003985        9.5900642534       20.2364153365  WZ4       2317            0.0000000000
     26723      8908  TIP3      H1             -1.8747103985        9.8191642534       19.3477053365  WZ4       2317            0.0000000000
     26724      8908  TIP3      H2             -1.5572303985       10.4279442534       20.6969453365  WZ4       2317            0.0000000000
     26725      8909  TIP3      OH2            12.0221696015       11.2116542534       26.9492653365  WZ4       2318            0.0000000000
     26726      8909  TIP3      H1             11.0805396015       11.2700442534       27.1109553365  WZ4       2318            0.0000000000
     26727      8909  TIP3      H2             12.2987796015       12.1177042534       26.8122353365  WZ4       2318            0.0000000000
     26728      8910  TIP3      OH2            12.3228696015       -0.5018157466       28.3666553365  WZ4       2319            0.0000000000
     26729      8910  TIP3      H1             11.5867896015        0.1088942534       28.3287853365  WZ4       2319            0.0000000000
     26730      8910  TIP3      H2             13.0062696015       -0.0869157466       27.8402953365  WZ4       2319            0.0000000000
     26731      8911  TIP3      OH2             5.3260096015       -2.4150857466       25.8324553365  WZ4       2320            0.0000000000
     26732      8911  TIP3      H1              5.2084296015       -3.3634857466       25.7782853365  WZ4       2320            0.0000000000
     26733      8911  TIP3      H2              4.4710196015       -2.0824757466       26.1055653365  WZ4       2320            0.0000000000
     26734      8912  TIP3      OH2            10.2742896015       12.9930042534       23.5744253365  WZ4       2321            0.0000000000
     26735      8912  TIP3      H1             10.6995196015       12.2857942534       23.0893853365  WZ4       2321            0.0000000000
     26736      8912  TIP3      H2             10.5912896015       13.7942742534       23.1576453365  WZ4       2321            0.0000000000
     26737      8913  TIP3      OH2            11.4339396015       10.8938542534       22.0830853365  WZ4       2322            0.0000000000
     26738      8913  TIP3      H1             11.1764196015       10.2038642534       21.4716753365  WZ4       2322            0.0000000000
     26739      8913  TIP3      H2             11.5050196015       10.4509742534       22.9286753365  WZ4       2322            0.0000000000
     26740      8914  TIP3      OH2            13.1199596015        9.4605242534       30.5604353365  WZ4       2323            0.0000000000
     26741      8914  TIP3      H1             13.2595896015        8.8687742534       29.8211353365  WZ4       2323            0.0000000000
     26742      8914  TIP3      H2             13.2872396015       10.3331142534       30.2043153365  WZ4       2323            0.0000000000
     26743      8915  TIP3      OH2             7.5924996015        6.4224742534       20.3330353365  WZ4       2324            0.0000000000
     26744      8915  TIP3      H1              6.8810496015        6.9574442534       19.9810853365  WZ4       2324            0.0000000000
     26745      8915  TIP3      H2              8.2834596015        6.4776842534       19.6729253365  WZ4       2324            0.0000000000
     26746      8916  TIP3      OH2             7.6464196015        4.8799042534       17.3715353365  WZ4       2325            0.0000000000
     26747      8916  TIP3      H1              8.3474096015        4.9025942534       18.0229353365  WZ4       2325            0.0000000000
     26748      8916  TIP3      H2              7.9487096015        4.2518742534       16.7154653365  WZ4       2325            0.0000000000
     26749      8917  TIP3      OH2            14.9618896015        5.8003242534       28.6264753365  WZ4       2326            0.0000000000
     26750      8917  TIP3      H1             14.3092996015        6.4948842534       28.7155653365  WZ4       2326            0.0000000000
     26751      8917  TIP3      H2             15.4269196015        6.0104142534       27.8166353365  WZ4       2326            0.0000000000
     26752      8918  TIP3      OH2            10.9982696015        6.6318042534       21.2846253365  WZ4       2327            0.0000000000
     26753      8918  TIP3      H1             10.2663696015        6.8601742534       21.8576853365  WZ4       2327            0.0000000000
     26754      8918  TIP3      H2             11.4454896015        5.9180742534       21.7393753365  WZ4       2327            0.0000000000
     26755      8919  TIP3      OH2            10.8956196015        4.8060642534       30.3523253365  WZ4       2328            0.0000000000
     26756      8919  TIP3      H1             10.9755296015        5.5695042534       30.9241753365  WZ4       2328            0.0000000000
     26757      8919  TIP3      H2             10.2943896015        5.0853042534       29.6618353365  WZ4       2328            0.0000000000
     26758      8920  TIP3      OH2             2.6436396015        7.2624242534       23.1671253365  WZ4       2329            0.0000000000
     26759      8920  TIP3      H1              2.3131596015        6.8917642534       22.3488253365  WZ4       2329            0.0000000000
     26760      8920  TIP3      H2              3.2320496015        6.5918242534       23.5139553365  WZ4       2329            0.0000000000
     26761      8921  TIP3      OH2             4.0103896015       10.6904842534       25.8483453365  WZ4       2330            0.0000000000
     26762      8921  TIP3      H1              3.9155196015       10.1117942534       25.0918053365  WZ4       2330            0.0000000000
     26763      8921  TIP3      H2              4.7397496015       10.3190542534       26.3446253365  WZ4       2330            0.0000000000
     26764      8922  TIP3      OH2             3.0101896015        6.0309842534       26.8006253365  WZ4       2331            0.0000000000
     26765      8922  TIP3      H1              3.5754396015        6.1524042534       26.0377453365  WZ4       2331            0.0000000000
     26766      8922  TIP3      H2              3.3290796015        6.6684842534       27.4394753365  WZ4       2331            0.0000000000
     26767      8923  TIP3      OH2             9.3194096015       11.5341742534       27.5346753365  WZ4       2332            0.0000000000
     26768      8923  TIP3      H1              9.0790696015       12.1964842534       28.1825953365  WZ4       2332            0.0000000000
     26769      8923  TIP3      H2              9.1212296015       10.6996942534       27.9596353365  WZ4       2332            0.0000000000
     26770      8924  TIP3      OH2             3.8902596015       10.4302542534       31.5178153365  WZ4       2333            0.0000000000
     26771      8924  TIP3      H1              3.5790096015       11.2125742534       31.9731353365  WZ4       2333            0.0000000000
     26772      8924  TIP3      H2              3.2402796015       10.2771642534       30.8320153365  WZ4       2333            0.0000000000
     26773      8925  TIP3      OH2             9.8692196015        5.7940942534       18.9697453365  WZ4       2334            0.0000000000
     26774      8925  TIP3      H1             10.4487696015        5.9441242534       19.7166353365  WZ4       2334            0.0000000000
     26775      8925  TIP3      H2             10.2832196015        6.2648342534       18.2463853365  WZ4       2334            0.0000000000
     26776      8926  TIP3      OH2             0.8102496015        6.6283642534       30.7463853365  WZ4       2335            0.0000000000
     26777      8926  TIP3      H1              0.8805696015        7.2790442534       31.4448853365  WZ4       2335            0.0000000000
     26778      8926  TIP3      H2             -0.0805303985        6.7311142534       30.4114753365  WZ4       2335            0.0000000000
     26779      8927  TIP3      OH2             7.5957096015       12.5309442534       22.4050553365  WZ4       2336            0.0000000000
     26780      8927  TIP3      H1              8.0694696015       12.8265742534       23.1824753365  WZ4       2336            0.0000000000
     26781      8927  TIP3      H2              7.0326396015       13.2691042534       22.1720153365  WZ4       2336            0.0000000000
     26782      8928  TIP3      OH2             2.1298496015       12.5017542534       32.2811953365  WZ4       2337            0.0000000000
     26783      8928  TIP3      H1              2.1373796015       12.3657242534       31.3337453365  WZ4       2337            0.0000000000
     26784      8928  TIP3      H2              1.2138896015       12.3845642534       32.5331953365  WZ4       2337            0.0000000000
     26785      8929  TIP3      OH2            13.5680596015       -2.4558657466       18.7827153365  WZ4       2338            0.0000000000
     26786      8929  TIP3      H1             12.6681296015       -2.3169657466       19.0777753365  WZ4       2338            0.0000000000
     26787      8929  TIP3      H2             13.8198996015       -1.6244057466       18.3808853365  WZ4       2338            0.0000000000
     26788      8930  TIP3      OH2             1.6339096015        6.3318542534       20.7564053365  WZ4       2339            0.0000000000
     26789      8930  TIP3      H1              1.3420396015        7.1000242534       20.2655353365  WZ4       2339            0.0000000000
     26790      8930  TIP3      H2              0.9594296015        5.6724742534       20.5935453365  WZ4       2339            0.0000000000
     26791      8931  TIP3      OH2            14.7571996015       11.9103742534       17.1591053365  WZ4       2340            0.0000000000
     26792      8931  TIP3      H1             14.8305496015       12.8493942534       17.3296353365  WZ4       2340            0.0000000000
     26793      8931  TIP3      H2             15.6627096015       11.6052342534       17.1028353365  WZ4       2340            0.0000000000
     26794      8932  TIP3      OH2            -2.2730803985        8.6947742534       29.5713853365  WZ4       2341            0.0000000000
     26795      8932  TIP3      H1             -2.7742403985        8.6667142534       28.7563553365  WZ4       2341            0.0000000000
     26796      8932  TIP3      H2             -2.2677103985        7.7890942534       29.8811153365  WZ4       2341            0.0000000000
     26797      8933  TIP3      OH2            -2.5228103985       11.4751542534       26.4554053365  WZ4       2342            0.0000000000
     26798      8933  TIP3      H1             -1.5767503985       11.3308542534       26.4363553365  WZ4       2342            0.0000000000
     26799      8933  TIP3      H2             -2.6351803985       12.2594342534       26.9925253365  WZ4       2342            0.0000000000
     26800      8934  TIP3      OH2             6.6534396015       11.7150442534       31.0139153365  WZ4       2344            0.0000000000
     26801      8934  TIP3      H1              6.7408996015       12.5415042534       31.4888253365  WZ4       2344            0.0000000000
     26802      8934  TIP3      H2              5.7899496015       11.3854242534       31.2628453365  WZ4       2344            0.0000000000
     26803      8935  TIP3      OH2             7.0680196015       15.4874142534       20.8199753365  WZ4       2345            0.0000000000
     26804      8935  TIP3      H1              6.9926196015       15.3661342534       19.8734953365  WZ4       2345            0.0000000000
     26805      8935  TIP3      H2              7.1008896015       16.4366842534       20.9384353365  WZ4       2345            0.0000000000
     26806      8936  TIP3      OH2             0.7213996015       14.2761142534       22.6008753365  WZ4       2346            0.0000000000
     26807      8936  TIP3      H1              0.8734396015       13.9281542534       23.4795253365  WZ4       2346            0.0000000000
     26808      8936  TIP3      H2             -0.1295603985       13.9198442534       22.3455953365  WZ4       2346            0.0000000000
     26809      8937  TIP3      OH2            10.1696196015       14.6414342534       17.8222153365  WZ4       2347            0.0000000000
     26810      8937  TIP3      H1             10.5444596015       13.8970442534       17.3514753365  WZ4       2347            0.0000000000
     26811      8937  TIP3      H2             10.1739896015       14.3714942534       18.7405453365  WZ4       2347            0.0000000000
     26812      8938  TIP3      OH2             9.8384296015       14.5671442534       20.5714353365  WZ4       2348            0.0000000000
     26813      8938  TIP3      H1              8.9034096015       14.6673342534       20.7501353365  WZ4       2348            0.0000000000
     26814      8938  TIP3      H2             10.1186196015       13.8577442534       21.1497553365  WZ4       2348            0.0000000000
     26815      8939  TIP3      OH2            12.8270196015        3.6343742534       32.6179953365  WZ4       2349            0.0000000000
     26816      8939  TIP3      H1             12.4196996015        4.1149342534       31.8973253365  WZ4       2349            0.0000000000
     26817      8939  TIP3      H2             12.8675896015        2.7289742534       32.3100753365  WZ4       2349            0.0000000000
     26818      8940  TIP3      OH2            -0.0240303985       10.0183142534       30.6146653365  WZ4       2350            0.0000000000
     26819      8940  TIP3      H1              0.1920996015        9.6568742534       31.4742453365  WZ4       2350            0.0000000000
     26820      8940  TIP3      H2             -0.8795603985        9.6436942534       30.4050153365  WZ4       2350            0.0000000000
     26821      8941  TIP3      OH2             2.5947696015       -1.5116357466       26.6100853365  WZ4       2351            0.0000000000
     26822      8941  TIP3      H1              1.7331396015       -1.5988157466       26.2023753365  WZ4       2351            0.0000000000
     26823      8941  TIP3      H2              2.5723396015       -0.6556257466       27.0378453365  WZ4       2351            0.0000000000
     26824      8942  TIP3      OH2             7.2575496015       -1.7895957466       29.9847853365  WZ4       2352            0.0000000000
     26825      8942  TIP3      H1              7.6778596015       -2.2048857466       30.7378453365  WZ4       2352            0.0000000000
     26826      8942  TIP3      H2              6.3245096015       -1.9682657466       30.1019853365  WZ4       2352            0.0000000000
     26827      8943  TIP3      OH2            10.5840396015        1.9659242534       30.8382353365  WZ4       2353            0.0000000000
     26828      8943  TIP3      H1             10.0699896015        1.8401442534       31.6358353365  WZ4       2353            0.0000000000
     26829      8943  TIP3      H2             10.4285096015        2.8782342534       30.5938553365  WZ4       2353            0.0000000000
     26830      8944  TIP3      OH2            11.3465296015        6.8269242534       16.5995353365  WZ4       2354            0.0000000000
     26831      8944  TIP3      H1             11.3886096015        6.6043142534       15.6695353365  WZ4       2354            0.0000000000
     26832      8944  TIP3      H2             12.1957396015        7.2256342534       16.7895253365  WZ4       2354            0.0000000000
     26833      8945  TIP3      OH2             6.9192796015        0.7027442534       17.2698653365  WZ4       2355            0.0000000000
     26834      8945  TIP3      H1              6.6657596015        0.7219042534       18.1926753365  WZ4       2355            0.0000000000
     26835      8945  TIP3      H2              6.6624896015       -0.1687157466       16.9684853365  WZ4       2355            0.0000000000
     26836      8946  TIP3      OH2             2.6857796015        3.4538142534       27.7051053365  WZ4       2356            0.0000000000
     26837      8946  TIP3      H1              2.0439896015        3.4135442534       28.4141153365  WZ4       2356            0.0000000000
     26838      8946  TIP3      H2              2.7229796015        4.3802842534       27.4674053365  WZ4       2356            0.0000000000
     26839      8947  TIP3      OH2             2.6826896015        3.6748242534       22.6171053365  WZ4       2357            0.0000000000
     26840      8947  TIP3      H1              1.7899796015        3.3344342534       22.5584853365  WZ4       2357            0.0000000000
     26841      8947  TIP3      H2              3.1333496015        3.2979142534       21.8614253365  WZ4       2357            0.0000000000
     26842      8948  TIP3      OH2             8.2182396015        4.0908542534       21.4341853365  WZ4       2358            0.0000000000
     26843      8948  TIP3      H1              7.8092696015        4.9057142534       21.1426653365  WZ4       2358            0.0000000000
     26844      8948  TIP3      H2              8.9388596015        3.9508642534       20.8198953365  WZ4       2358            0.0000000000
     26845      8949  TIP3      OH2             7.3203996015        4.2664942534       32.9222553365  WZ4       2359            0.0000000000
     26846      8949  TIP3      H1              6.7577796015        3.5616542534       33.2430353365  WZ4       2359            0.0000000000
     26847      8949  TIP3      H2              8.1467396015        4.1456842534       33.3900153365  WZ4       2359            0.0000000000
     26848      8950  TIP3      OH2             9.2230096015        3.5368942534       24.2481553365  WZ4       2360            0.0000000000
     26849      8950  TIP3      H1              9.0274596015        4.1425742534       23.5332153365  WZ4       2360            0.0000000000
     26850      8950  TIP3      H2              9.4042696015        2.7034142534       23.8137853365  WZ4       2360            0.0000000000
     26851      8951  TIP3      OH2             0.4358296015        3.7741642534       29.5723053365  WZ4       2361            0.0000000000
     26852      8951  TIP3      H1              0.3977696015        4.1743242534       30.4410153365  WZ4       2361            0.0000000000
     26853      8951  TIP3      H2             -0.0550603985        2.9574042534       29.6625953365  WZ4       2361            0.0000000000
     26854      8952  TIP3      OH2             3.8015696015        1.1483942534       16.3709053365  WZ4       2362            0.0000000000
     26855      8952  TIP3      H1              3.3706396015        0.7034042534       17.1006453365  WZ4       2362            0.0000000000
     26856      8952  TIP3      H2              3.0834396015        1.5200242534       15.8586553365  WZ4       2362            0.0000000000
     26857      8953  TIP3      OH2            -2.9560903985        0.8903442534       23.4227753365  WZ4       2363            0.0000000000
     26858      8953  TIP3      H1             -2.3253203985        0.8615542534       24.1421653365  WZ4       2363            0.0000000000
     26859      8953  TIP3      H2             -2.5066603985        0.4652142534       22.6923653365  WZ4       2363            0.0000000000
     26860      8954  TIP3      OH2            -1.6818803985        1.6365442534       18.8468153365  WZ4       2364            0.0000000000
     26861      8954  TIP3      H1             -1.2077103985        2.2275342534       18.2619053365  WZ4       2364            0.0000000000
     26862      8954  TIP3      H2             -2.3992403985        2.1668342534       19.1938253365  WZ4       2364            0.0000000000
     26863      8955  TIP3      OH2             8.4869296015        5.1750242534       28.9193953365  WZ4       2365            0.0000000000
     26864      8955  TIP3      H1              8.8104096015        4.5439942534       28.2764453365  WZ4       2365            0.0000000000
     26865      8955  TIP3      H2              8.0468596015        4.6402442534       29.5801353365  WZ4       2365            0.0000000000
     26866      8956  TIP3      OH2             5.2642196015        1.1025742534       23.7035153365  WZ4       2366            0.0000000000
     26867      8956  TIP3      H1              4.3533296015        1.1592542534       23.9921153365  WZ4       2366            0.0000000000
     26868      8956  TIP3      H2              5.7695096015        1.0421242534       24.5142353365  WZ4       2366            0.0000000000
     26869      8957  TIP3      OH2             0.0925596015        2.7312042534       22.5302753365  WZ4       2367            0.0000000000
     26870      8957  TIP3      H1             -0.7966403985        2.8307542534       22.1902353365  WZ4       2367            0.0000000000
     26871      8957  TIP3      H2              0.3890496015        1.8895042534       22.1840653365  WZ4       2367            0.0000000000
     26872      8958  TIP3      OH2             3.7457396015        2.7314642534       20.1867353365  WZ4       2368            0.0000000000
     26873      8958  TIP3      H1              4.6772896015        2.8604642534       20.3650453365  WZ4       2368            0.0000000000
     26874      8958  TIP3      H2              3.5307696015        3.4008942534       19.5372053365  WZ4       2368            0.0000000000
     26875      8959  TIP3      OH2             9.6694096015        0.3372042534       26.9676953365  WZ4       2369            0.0000000000
     26876      8959  TIP3      H1              8.9925696015        0.4685142534       27.6316653365  WZ4       2369            0.0000000000
     26877      8959  TIP3      H2              9.1838996015        0.1821542534       26.1574653365  WZ4       2369            0.0000000000
     26878      8960  TIP3      OH2             2.4197596015        3.9256842534       17.7533453365  WZ4       2370            0.0000000000
     26879      8960  TIP3      H1              1.8772696015        3.5460642534       17.0621053365  WZ4       2370            0.0000000000
     26880      8960  TIP3      H2              3.2532496015        4.1201542534       17.3247553365  WZ4       2370            0.0000000000
     26881      8961  TIP3      OH2             0.5548996015        8.4828742534       32.8525053365  WZ4       2372            0.0000000000
     26882      8961  TIP3      H1              1.2871396015        8.7374642534       33.4139553365  WZ4       2372            0.0000000000
     26883      8961  TIP3      H2             -0.2252303985        8.6874142534       33.3680453365  WZ4       2372            0.0000000000
     26884      8962  TIP3      OH2             6.5841896015        3.8898742534       25.5904753365  WZ4       2373            0.0000000000
     26885      8962  TIP3      H1              7.1485296015        3.3435342534       25.0434353365  WZ4       2373            0.0000000000
     26886      8962  TIP3      H2              6.4365296015        3.3680642534       26.3792353365  WZ4       2373            0.0000000000
     26887      8963  TIP3      OH2             1.5861596015        0.0264842534       22.0089553365  WZ4       2374            0.0000000000
     26888      8963  TIP3      H1              1.2691096015       -0.8759857466       21.9734953365  WZ4       2374            0.0000000000
     26889      8963  TIP3      H2              2.3675696015        0.0282242534       21.4561153365  WZ4       2374            0.0000000000
     26890      8964  TIP3      OH2             5.2107796015        2.2784842534       28.0045153365  WZ4       2375            0.0000000000
     26891      8964  TIP3      H1              4.3753096015        2.7324342534       28.1147553365  WZ4       2375            0.0000000000
     26892      8964  TIP3      H2              5.7348396015        2.5543342534       28.7565053365  WZ4       2375            0.0000000000
     26893      8965  TIP3      OH2             5.7550396015        8.4912542534       19.6891553365  WZ4       2376            0.0000000000
     26894      8965  TIP3      H1              5.0101396015        7.9837842534       19.3669453365  WZ4       2376            0.0000000000
     26895      8965  TIP3      H2              5.6207596015        8.5400542534       20.6356353365  WZ4       2376            0.0000000000
     26896      8966  TIP3      OH2            12.9049296015        7.6240742534       28.4759153365  WZ4       2377            0.0000000000
     26897      8966  TIP3      H1             13.5468096015        8.0807042534       27.9321353365  WZ4       2377            0.0000000000
     26898      8966  TIP3      H2             12.0746196015        7.7373142534       28.0133253365  WZ4       2377            0.0000000000
     26899      8967  TIP3      OH2             9.6527196015        1.3052442534       17.8884153365  WZ4       2378            0.0000000000
     26900      8967  TIP3      H1              8.7141396015        1.4168042534       17.7372953365  WZ4       2378            0.0000000000
     26901      8967  TIP3      H2              9.9499296015        2.1619342534       18.1949853365  WZ4       2378            0.0000000000
     26902      8968  TIP3      OH2             7.2742496015        8.6755842534       30.9260653365  WZ4       2379            0.0000000000
     26903      8968  TIP3      H1              6.9288596015        8.2938242534       31.7330253365  WZ4       2379            0.0000000000
     26904      8968  TIP3      H2              7.0742596015        9.6089442534       30.9973553365  WZ4       2379            0.0000000000
     26905      8969  TIP3      OH2            10.3710696015        3.1725142534       19.5491553365  WZ4       2380            0.0000000000
     26906      8969  TIP3      H1             11.2629696015        3.0350142534       19.8682753365  WZ4       2380            0.0000000000
     26907      8969  TIP3      H2             10.4274296015        3.9631242534       19.0125053365  WZ4       2380            0.0000000000
     26908      8970  TIP3      OH2             0.8798696015        7.7862542534       25.4589453365  WZ4       2381            0.0000000000
     26909      8970  TIP3      H1              1.6245896015        7.7838242534       24.8575953365  WZ4       2381            0.0000000000
     26910      8970  TIP3      H2              0.9575296015        6.9626342534       25.9404553365  WZ4       2381            0.0000000000
     26911      8971  TIP3      OH2             7.8804496015        9.9496842534       18.7146153365  WZ4       2382            0.0000000000
     26912      8971  TIP3      H1              7.5852896015       10.7764742534       19.0960953365  WZ4       2382            0.0000000000
     26913      8971  TIP3      H2              7.1774496015        9.3303742534       18.9107553365  WZ4       2382            0.0000000000
     26914      8972  TIP3      OH2            -2.1121603985        6.2469442534       30.7737953365  WZ4       2383            0.0000000000
     26915      8972  TIP3      H1             -1.8893003985        5.8289042534       31.6055453365  WZ4       2383            0.0000000000
     26916      8972  TIP3      H2             -2.7141503985        5.6344442534       30.3510753365  WZ4       2383            0.0000000000
     26917      8973  TIP3      OH2             4.9043296015        5.7639342534       32.9867653365  WZ4       2384            0.0000000000
     26918      8973  TIP3      H1              4.6084096015        5.5982342534       32.0916753365  WZ4       2384            0.0000000000
     26919      8973  TIP3      H2              5.8358496015        5.5439642534       32.9761553365  WZ4       2384            0.0000000000
     26920      8974  TIP3      OH2             9.5246096015       11.1371342534       30.8765653365  WZ4       2385            0.0000000000
     26921      8974  TIP3      H1              8.6240396015       11.3203942534       30.6089553365  WZ4       2385            0.0000000000
     26922      8974  TIP3      H2              9.5587196015       11.3960642534       31.7974453365  WZ4       2385            0.0000000000
     26923      8975  TIP3      OH2            15.2559396015        3.3819242534       19.2438253365  WZ4       2386            0.0000000000
     26924      8975  TIP3      H1             14.7015696015        2.9857242534       18.5715753365  WZ4       2386            0.0000000000
     26925      8975  TIP3      H2             15.3562996015        4.2924442534       18.9661553365  WZ4       2386            0.0000000000
     26926      8976  TIP3      OH2            15.2191396015        9.1820942534       32.0809753365  WZ4       2387            0.0000000000
     26927      8976  TIP3      H1             14.3679896015        9.4204742534       31.7136153365  WZ4       2387            0.0000000000
     26928      8976  TIP3      H2             15.8094796015        9.1654142534       31.3276853365  WZ4       2387            0.0000000000
     26929      8977  TIP3      OH2            13.5511096015       12.1679642534       19.7090353365  WZ4       2388            0.0000000000
     26930      8977  TIP3      H1             13.1782196015       11.3423442534       20.0180953365  WZ4       2388            0.0000000000
     26931      8977  TIP3      H2             13.8284596015       11.9849042534       18.8113753365  WZ4       2388            0.0000000000
     26932      8978  TIP3      OH2            10.7114996015        6.9759142534       26.7302253365  WZ4       2389            0.0000000000
     26933      8978  TIP3      H1              9.7831896015        6.7441042534       26.7031553365  WZ4       2389            0.0000000000
     26934      8978  TIP3      H2             11.1626096015        6.1988942534       26.4001053365  WZ4       2389            0.0000000000
     26935      8979  TIP3      OH2             3.2548096015       11.3040742534       22.8630953365  WZ4       2390            0.0000000000
     26936      8979  TIP3      H1              3.7820296015       12.0775142534       22.6629753365  WZ4       2390            0.0000000000
     26937      8979  TIP3      H2              2.3746596015       11.5289942534       22.5614953365  WZ4       2390            0.0000000000
     26938      8980  TIP3      OH2            -0.9904203985        6.1664842534       17.4503353365  WZ4       2391            0.0000000000
     26939      8980  TIP3      H1             -0.3744303985        6.7932042534       17.8298153365  WZ4       2391            0.0000000000
     26940      8980  TIP3      H2             -1.8521603985        6.4824642534       17.7219853365  WZ4       2391            0.0000000000
     26941      8981  TIP3      OH2             4.6820396015        8.9670642534       22.4395253365  WZ4       2392            0.0000000000
     26942      8981  TIP3      H1              4.4410396015        9.8925042534       22.4810553365  WZ4       2392            0.0000000000
     26943      8981  TIP3      H2              3.9413996015        8.5081942534       22.8359153365  WZ4       2392            0.0000000000
     26944      8982  TIP3      OH2             5.1966996015       13.1164242534       28.7546353365  WZ4       2393            0.0000000000
     26945      8982  TIP3      H1              5.5591696015       13.9709842534       28.5210753365  WZ4       2393            0.0000000000
     26946      8982  TIP3      H2              5.7282196015       12.8245842534       29.4952653365  WZ4       2393            0.0000000000
     26947      8983  TIP3      OH2             3.3651196015       13.9888242534       21.9847453365  WZ4       2394            0.0000000000
     26948      8983  TIP3      H1              2.4151696015       14.0945642534       22.0360753365  WZ4       2394            0.0000000000
     26949      8983  TIP3      H2              3.7169296015       14.8095642534       22.3294953365  WZ4       2394            0.0000000000
     26950      8984  TIP3      OH2             8.7407796015        9.2154942534       28.4551953365  WZ4       2395            0.0000000000
     26951      8984  TIP3      H1              8.3149096015        8.9876642534       29.2815953365  WZ4       2395            0.0000000000
     26952      8984  TIP3      H2              9.3213596015        8.4766742534       28.2727253365  WZ4       2395            0.0000000000
     26953      8985  TIP3      OH2            10.9436696015       10.1445442534       17.5290953365  WZ4       2396            0.0000000000
     26954      8985  TIP3      H1             11.2969796015        9.7645242534       18.3334453365  WZ4       2396            0.0000000000
     26955      8985  TIP3      H2              9.9950196015       10.0510242534       17.6160253365  WZ4       2396            0.0000000000
     26956      8986  TIP3      OH2            11.3991996015       13.7674442534       30.9246753365  WZ4       2397            0.0000000000
     26957      8986  TIP3      H1             10.7975196015       13.2117342534       30.4293053365  WZ4       2397            0.0000000000
     26958      8986  TIP3      H2             11.6805696015       14.4344242534       30.2984153365  WZ4       2397            0.0000000000
     26959      8987  TIP3      OH2            15.4471096015       14.6237942534       17.7301153365  WZ4       2398            0.0000000000
     26960      8987  TIP3      H1             16.1908996015       15.2098442534       17.5902753365  WZ4       2398            0.0000000000
     26961      8987  TIP3      H2             14.7529196015       15.1923742534       18.0633553365  WZ4       2398            0.0000000000
     26962      8988  TIP3      OH2            -0.4782103985        1.0002142534       30.3319353365  WZ4       2399            0.0000000000
     26963      8988  TIP3      H1             -1.3709803985        1.3387542534       30.2643353365  WZ4       2399            0.0000000000
     26964      8988  TIP3      H2             -0.5769303985        0.1448242534       30.7500153365  WZ4       2399            0.0000000000
     26965      8989  TIP3      OH2            11.8095996015        8.8167442534       19.7558853365  WZ4       2400            0.0000000000
     26966      8989  TIP3      H1             11.5323596015        8.0886742534       20.3119953365  WZ4       2400            0.0000000000
     26967      8989  TIP3      H2             12.7368996015        8.9359442534       19.9611453365  WZ4       2400            0.0000000000
     26968      8990  TIP3      OH2            -0.8270103985       12.8046542534       28.7668753365  WZ4       2401            0.0000000000
     26969      8990  TIP3      H1             -0.6099803985       11.8728942534       28.7358453365  WZ4       2401            0.0000000000
     26970      8990  TIP3      H2             -0.5806603985       13.0791542534       29.6501553365  WZ4       2401            0.0000000000
     26971      8991  TIP3      OH2             5.0344496015       11.2561542534       15.9760953365  WZ4       2402            0.0000000000
     26972      8991  TIP3      H1              5.2734296015       10.5079642534       15.4289853365  WZ4       2402            0.0000000000
     26973      8991  TIP3      H2              4.7655796015       10.8683242534       16.8088753365  WZ4       2402            0.0000000000
     26974      8992  TIP3      OH2             3.9715096015       10.8265342534       18.4323553365  WZ4       2403            0.0000000000
     26975      8992  TIP3      H1              4.1183096015       10.3065142534       19.2224453365  WZ4       2403            0.0000000000
     26976      8992  TIP3      H2              3.9686796015       11.7332942534       18.7389453365  WZ4       2403            0.0000000000
     26977      8993  TIP3      OH2             0.4246196015        8.0788642534       18.9428953365  WZ4       2404            0.0000000000
     26978      8993  TIP3      H1             -0.2614503985        8.4311142534       19.5098653365  WZ4       2404            0.0000000000
     26979      8993  TIP3      H2              0.9474096015        8.8418242534       18.6963253365  WZ4       2404            0.0000000000
     26980      8994  TIP3      OH2             8.2561296015        0.7412442534       29.2217953365  WZ4       2405            0.0000000000
     26981      8994  TIP3      H1              8.9549196015        0.8151142534       29.8717653365  WZ4       2405            0.0000000000
     26982      8994  TIP3      H2              7.8752696015       -0.1232557466       29.3760853365  WZ4       2405            0.0000000000
     26983      8995  TIP3      OH2             9.0406196015        0.3934142534       20.3190253365  WZ4       2406            0.0000000000
     26984      8995  TIP3      H1              9.2604496015        0.8649542534       19.5155653365  WZ4       2406            0.0000000000
     26985      8995  TIP3      H2              9.5990196015        0.7876742534       20.9890853365  WZ4       2406            0.0000000000
     26986      8996  TIP3      OH2             6.7092296015       12.5238942534       19.1817753365  WZ4       2407            0.0000000000
     26987      8996  TIP3      H1              5.8928396015       13.0208642534       19.2342053365  WZ4       2407            0.0000000000
     26988      8996  TIP3      H2              7.2388596015       12.9992442534       18.5416553365  WZ4       2407            0.0000000000
     26989      8997  TIP3      OH2             6.2406096015        2.1212942534       21.1538653365  WZ4       2408            0.0000000000
     26990      8997  TIP3      H1              7.0528696015        2.6256142534       21.2000353365  WZ4       2408            0.0000000000
     26991      8997  TIP3      H2              5.9959096015        1.9762642534       22.0678253365  WZ4       2408            0.0000000000
     26992      8998  TIP3      OH2             6.7762496015        3.1075642534       30.3385253365  WZ4       2409            0.0000000000
     26993      8998  TIP3      H1              6.8952796015        3.6811042534       31.0955653365  WZ4       2409            0.0000000000
     26994      8998  TIP3      H2              7.4317096015        2.4195042534       30.4533053365  WZ4       2409            0.0000000000
     26995      8999  TIP3      OH2             7.1242796015       -0.7974057466       22.0919753365  WZ4       2410            0.0000000000
     26996      8999  TIP3      H1              6.7776296015       -0.1803457466       22.7364053365  WZ4       2410            0.0000000000
     26997      8999  TIP3      H2              7.7829696015       -0.2968357466       21.6105253365  WZ4       2410            0.0000000000
     26998      9000  TIP3      OH2             4.0475396015       13.5676142534       19.1634653365  WZ4       2411            0.0000000000
     26999      9000  TIP3      H1              4.2084096015       14.3673642534       18.6627253365  WZ4       2411            0.0000000000
     27000      9000  TIP3      H2              3.8503196015       13.8742142534       20.0485253365  WZ4       2411            0.0000000000
     27001      9001  TIP3      OH2             2.7819796015        0.2655342534       18.7792253365  WZ4       2412            0.0000000000
     27002      9001  TIP3      H1              2.6984596015        1.1538442534       19.1258653365  WZ4       2412            0.0000000000
     27003      9001  TIP3      H2              3.6720096015        0.0002042534       19.0109053365  WZ4       2412            0.0000000000
     27004      9002  TIP3      OH2            12.9808296015        1.0145942534       31.1734953365  WZ4       2413            0.0000000000
     27005      9002  TIP3      H1             12.0644096015        1.2767642534       31.0858653365  WZ4       2413            0.0000000000
     27006      9002  TIP3      H2             13.3163296015        1.0114942534       30.2770253365  WZ4       2413            0.0000000000
     27007      9003  TIP3      OH2            11.5829296015        4.7646942534       25.2692253365  WZ4       2414            0.0000000000
     27008      9003  TIP3      H1             10.7853696015        4.3497142534       24.9407253365  WZ4       2414            0.0000000000
     27009      9003  TIP3      H2             12.0280396015        4.0740642534       25.7602753365  WZ4       2414            0.0000000000
     27010      9004  TIP3      OH2             1.0405096015       10.6927542534       17.8396753365  WZ4       2415            0.0000000000
     27011      9004  TIP3      H1              1.6326596015       11.3922342534       18.1159153365  WZ4       2415            0.0000000000
     27012      9004  TIP3      H2              1.4998096015       10.2597042534       17.1201353365  WZ4       2415            0.0000000000
     27013      9005  TIP3      OH2            -0.6435703985        3.3570542534       16.9556153365  WZ4       2416            0.0000000000
     27014      9005  TIP3      H1             -0.6883103985        4.2963642534       17.1343153365  WZ4       2416            0.0000000000
     27015      9005  TIP3      H2             -1.5312503985        3.1215442534       16.6858253365  WZ4       2416            0.0000000000
     27016      9006  TIP3      OH2            12.6693896015       14.0209442534       26.8915753365  WZ4       2417            0.0000000000
     27017      9006  TIP3      H1             12.5138196015       14.6993842534       26.2345053365  WZ4       2417            0.0000000000
     27018      9006  TIP3      H2             13.6020296015       14.0928742534       27.0946353365  WZ4       2417            0.0000000000
     27019      9007  TIP3      OH2             0.1646296015       -1.8612857466       25.6287153365  WZ4       2418            0.0000000000
     27020      9007  TIP3      H1             -0.0643903985       -1.8020357466       24.7012153365  WZ4       2418            0.0000000000
     27021      9007  TIP3      H2             -0.2780303985       -2.6527357466       25.9351253365  WZ4       2418            0.0000000000
     27022      9008  TIP3      OH2            -0.9050403985       12.0794242534       21.7892953365  WZ4       2419            0.0000000000
     27023      9008  TIP3      H1             -1.7371803985       12.5516942534       21.8164353365  WZ4       2419            0.0000000000
     27024      9008  TIP3      H2             -0.3592103985       12.5891842534       21.1906053365  WZ4       2419            0.0000000000
     27025      9009  TIP3      OH2            -1.6166703985       14.6917942534       33.1190953365  WZ4       2420            0.0000000000
     27026      9009  TIP3      H1             -1.0764503985       14.4751942534       33.8790153365  WZ4       2420            0.0000000000
     27027      9009  TIP3      H2             -2.0978703985       13.8863942534       32.9293453365  WZ4       2420            0.0000000000
     27028      9010  TIP3      OH2             2.9806696015       13.6112342534       34.7395153365  WZ4       2421            0.0000000000
     27029      9010  TIP3      H1              3.7483896015       13.1523142534       35.0804353365  WZ4       2421            0.0000000000
     27030      9010  TIP3      H2              2.9592896015       13.3852142534       33.8096353365  WZ4       2421            0.0000000000
     27031      9011  TIP3      OH2             7.0726296015       13.1192942534       16.1146953365  WZ4       2422            0.0000000000
     27032      9011  TIP3      H1              6.4287296015       12.4881542534       16.4360653365  WZ4       2422            0.0000000000
     27033      9011  TIP3      H2              7.8344596015       12.5880942534       15.8830453365  WZ4       2422            0.0000000000
     27034      9012  TIP3      OH2             9.5575396015       11.9913442534       33.4686653365  WZ4       2423            0.0000000000
     27035      9012  TIP3      H1              9.2064896015       11.1346442534       33.7117053365  WZ4       2423            0.0000000000
     27036      9012  TIP3      H2             10.2838596015       12.1340142534       34.0755653365  WZ4       2423            0.0000000000
     27037      9013  TIP3      OH2            11.6769196015       12.9362842534       16.3484953365  WZ4       2424            0.0000000000
     27038      9013  TIP3      H1             11.9599596015       12.1418042534       16.8011853365  WZ4       2424            0.0000000000
     27039      9013  TIP3      H2             12.4167096015       13.1693842534       15.7876053365  WZ4       2424            0.0000000000
     27040      9014  TIP3      OH2            -1.7097203985        8.5022042534       34.0735253365  WZ4       2425            0.0000000000
     27041      9014  TIP3      H1             -1.5656703985        7.6002742534       33.7871953365  WZ4       2425            0.0000000000
     27042      9014  TIP3      H2             -2.4819803985        8.7884142534       33.5857553365  WZ4       2425            0.0000000000
     27043      9015  TIP3      OH2             2.6316496015        8.8457742534       16.2059853365  WZ4       2426            0.0000000000
     27044      9015  TIP3      H1              2.6960596015        8.0517342534       16.7366253365  WZ4       2426            0.0000000000
     27045      9015  TIP3      H2              3.2845696015        8.7270542534       15.5161853365  WZ4       2426            0.0000000000
     27046      9016  TIP3      OH2             4.9458896015        8.4720142534       33.5061653365  WZ4       2427            0.0000000000
     27047      9016  TIP3      H1              4.6172696015        8.7428242534       32.6489053365  WZ4       2427            0.0000000000
     27048      9016  TIP3      H2              5.0977096015        7.5309942534       33.4186653365  WZ4       2427            0.0000000000
     27049      9017  TIP3      OH2             7.9839896015        9.8929442534       15.9417853365  WZ4       2428            0.0000000000
     27050      9017  TIP3      H1              7.7153996015       10.0731542534       16.8426753365  WZ4       2428            0.0000000000
     27051      9017  TIP3      H2              7.7775496015        8.9675642534       15.8103653365  WZ4       2428            0.0000000000
     27052      9018  TIP3      OH2            10.6804096015        8.3877442534       30.8893953365  WZ4       2429            0.0000000000
     27053      9018  TIP3      H1             11.4258896015        8.9761142534       30.7697953365  WZ4       2429            0.0000000000
     27054      9018  TIP3      H2              9.9230896015        8.9697142534       30.9527053365  WZ4       2429            0.0000000000
     27055      9019  TIP3      OH2            -0.8770703985        5.7025342534       33.4934553365  WZ4       2430            0.0000000000
     27056      9019  TIP3      H1             -0.4689503985        4.8451942534       33.3725153365  WZ4       2430            0.0000000000
     27057      9019  TIP3      H2             -1.1373103985        5.7166642534       34.4144853365  WZ4       2430            0.0000000000
     27058      9020  TIP3      OH2             3.7810296015        6.8183942534       18.5117853365  WZ4       2431            0.0000000000
     27059      9020  TIP3      H1              3.3212296015        6.3342242534       19.1976353365  WZ4       2431            0.0000000000
     27060      9020  TIP3      H2              4.0358996015        6.1499342534       17.8758353365  WZ4       2431            0.0000000000
     27061      9021  TIP3      OH2             3.0699596015        4.7111042534       30.8677453365  WZ4       2432            0.0000000000
     27062      9021  TIP3      H1              2.4515696015        5.3857642534       31.1482153365  WZ4       2432            0.0000000000
     27063      9021  TIP3      H2              3.4140796015        5.0324942534       30.0343653365  WZ4       2432            0.0000000000
     27064      9022  TIP3      OH2             4.8520696015        5.0615742534       16.7741053365  WZ4       2433            0.0000000000
     27065      9022  TIP3      H1              4.6715696015        4.9066942534       15.8469353365  WZ4       2433            0.0000000000
     27066      9022  TIP3      H2              5.8021196015        5.1694442534       16.8188953365  WZ4       2433            0.0000000000
     27067      9023  TIP3      OH2             8.0897796015        7.1826342534       34.1452253365  WZ4       2434            0.0000000000
     27068      9023  TIP3      H1              9.0428996015        7.2665442534       34.1178253365  WZ4       2434            0.0000000000
     27069      9023  TIP3      H2              7.9292396015        6.4708142534       34.7647153365  WZ4       2434            0.0000000000
     27070      9024  TIP3      OH2            14.2418996015        7.4159942534       16.2199153365  WZ4       2435            0.0000000000
     27071      9024  TIP3      H1             13.9683796015        6.9915442534       15.4067453365  WZ4       2435            0.0000000000
     27072      9024  TIP3      H2             14.2813096015        8.3474442534       16.0029553365  WZ4       2435            0.0000000000
     27073      9025  TIP3      OH2             3.4093296015        2.0661842534       31.9500553365  WZ4       2436            0.0000000000
     27074      9025  TIP3      H1              3.5594196015        1.3373142534       31.3480253365  WZ4       2436            0.0000000000
     27075      9025  TIP3      H2              3.4115696015        2.8433542534       31.3912753365  WZ4       2436            0.0000000000
     27076      9026  TIP3      OH2             3.8218996015        0.4357642534       29.4427953365  WZ4       2437            0.0000000000
     27077      9026  TIP3      H1              4.3576496015        0.8874342534       28.7907253365  WZ4       2437            0.0000000000
     27078      9026  TIP3      H2              2.9698596015        0.3277442534       29.0202053365  WZ4       2437            0.0000000000
     27079      9027  TIP3      OH2             5.4037396015        5.8753842534       29.6823153365  WZ4       2438            0.0000000000
     27080      9027  TIP3      H1              6.1542196015        5.7191342534       29.1090953365  WZ4       2438            0.0000000000
     27081      9027  TIP3      H2              5.0645696015        6.7270442534       29.4068653365  WZ4       2438            0.0000000000
     27082      9028  TIP3      OH2             9.8193596015        3.6905642534       34.7108453365  WZ4       2439            0.0000000000
     27083      9028  TIP3      H1             10.0114896015        2.7595042534       34.5992953365  WZ4       2439            0.0000000000
     27084      9028  TIP3      H2             10.6769896015        4.1155142534       34.7003853365  WZ4       2439            0.0000000000
     27085      9029  TIP3      OH2            11.1360796015        6.4790842534       32.7881153365  WZ4       2440            0.0000000000
     27086      9029  TIP3      H1             10.8545796015        7.1885442534       32.2104953365  WZ4       2440            0.0000000000
     27087      9029  TIP3      H2             12.0785096015        6.4063842534       32.6372353365  WZ4       2440            0.0000000000
     27088      9030  TIP3      OH2             1.8879596015        3.2645342534       33.8616153365  WZ4       2441            0.0000000000
     27089      9030  TIP3      H1              1.1208596015        2.7320142534       33.6513753365  WZ4       2441            0.0000000000
     27090      9030  TIP3      H2              2.5668596015        2.9545742534       33.2622453365  WZ4       2441            0.0000000000
     27091      9031  TIP3      OH2             4.6274496015       -2.1076657466       29.8741553365  WZ4       2442            0.0000000000
     27092      9031  TIP3      H1              4.5294096015       -1.1613457466       29.7687753365  WZ4       2442            0.0000000000
     27093      9031  TIP3      H2              3.8850696015       -2.4802857466       29.3985053365  WZ4       2442            0.0000000000
     27094      9032  TIP3      OH2             5.8914996015        2.2138742534       33.4379953365  WZ4       2443            0.0000000000
     27095      9032  TIP3      H1              5.6560396015        1.9945442534       34.3394853365  WZ4       2443            0.0000000000
     27096      9032  TIP3      H2              5.1081896015        2.0069942534       32.9282453365  WZ4       2443            0.0000000000
     27097      9033  TIP3      OH2             8.6071596015        1.3412242534       32.5133453365  WZ4       2444            0.0000000000
     27098      9033  TIP3      H1              7.6596996015        1.3731942534       32.6456753365  WZ4       2444            0.0000000000
     27099      9033  TIP3      H2              8.9198296015        0.7159342534       33.1671653365  WZ4       2444            0.0000000000
     27100      9034  TIP3      OH2            10.2413096015       -0.0246657466       34.5185353365  WZ4       2445            0.0000000000
     27101      9034  TIP3      H1             10.1444896015       -0.9769357466       34.5127253365  WZ4       2445            0.0000000000
     27102      9034  TIP3      H2              9.9196196015        0.2440142534       35.3790853365  WZ4       2445            0.0000000000
     27103      9035  TIP3      OH2             0.0682396015        1.1849142534       33.5660853365  WZ4       2446            0.0000000000
     27104      9035  TIP3      H1              0.2799796015        0.4785242534       32.9558353365  WZ4       2446            0.0000000000
     27105      9035  TIP3      H2             -0.0430103985        0.7475142534       34.4102053365  WZ4       2446            0.0000000000
     27106      9036  TIP3      OH2             4.8492596015       -2.8139257466       32.5454353365  WZ4       2447            0.0000000000
     27107      9036  TIP3      H1              5.5610996015       -3.4537057466       32.5313453365  WZ4       2447            0.0000000000
     27108      9036  TIP3      H2              4.7482996015       -2.5470957466       31.6317453365  WZ4       2447            0.0000000000
     27109      9037  TIP3      OH2             5.2030096015       -1.1310857466       34.5990653365  WZ4       2448            0.0000000000
     27110      9037  TIP3      H1              5.0712296015       -1.6067057466       33.7789153365  WZ4       2448            0.0000000000
     27111      9037  TIP3      H2              4.6037496015       -0.3867257466       34.5437753365  WZ4       2448            0.0000000000
     27112      9038  TIP3      OH2             4.7492396015       15.7519442534       17.7754653365  WZ4       2449            0.0000000000
     27113      9038  TIP3      H1              5.6823096015       15.9098142534       17.9193053365  WZ4       2449            0.0000000000
     27114      9038  TIP3      H2              4.4851196015       16.4272442534       17.1506153365  WZ4       2449            0.0000000000
     27115      9039  TIP3      OH2            -1.6822703985       10.3883242534       17.2582753365  WZ4       2450            0.0000000000
     27116      9039  TIP3      H1             -0.7683503985       10.4672142534       17.5316653365  WZ4       2450            0.0000000000
     27117      9039  TIP3      H2             -1.6749603985        9.7012842534       16.5918353365  WZ4       2450            0.0000000000
     27118      9040  TIP3      OH2            -3.0332103985       15.7811742534       22.3356653365  WZ4       2451            0.0000000000
     27119      9040  TIP3      H1             -3.6805003985       15.3193442534       21.8027853365  WZ4       2451            0.0000000000
     27120      9040  TIP3      H2             -2.6787503985       15.1095042534       22.9182853365  WZ4       2451            0.0000000000
     27121      9041  TIP3      OH2            -2.1632903985       13.8618742534       24.1402853365  WZ4       2452            0.0000000000
     27122      9041  TIP3      H1             -2.4976103985       12.9816042534       24.3123053365  WZ4       2452            0.0000000000
     27123      9041  TIP3      H2             -1.9410503985       14.2073742534       25.0048453365  WZ4       2452            0.0000000000
     27124      9042  TIP3      OH2            15.3851896015       14.6715142534       27.1207653365  WZ4       2453            0.0000000000
     27125      9042  TIP3      H1             15.3638596015       14.8563542534       28.0597053365  WZ4       2453            0.0000000000
     27126      9042  TIP3      H2             16.0758096015       15.2399142534       26.7799053365  WZ4       2453            0.0000000000
     27127      9043  TIP3      OH2            14.9484796015       14.2386242534       30.0426753365  WZ4       2454            0.0000000000
     27128      9043  TIP3      H1             14.4613496015       13.5030342534       29.6714153365  WZ4       2454            0.0000000000
     27129      9043  TIP3      H2             15.4977496015       13.8450142534       30.7206153365  WZ4       2454            0.0000000000
     27130      9044  TIP3      OH2            14.7001796015        8.2848042534       20.1949553365  WZ4       2456            0.0000000000
     27131      9044  TIP3      H1             15.5503196015        8.7058942534       20.3221153365  WZ4       2456            0.0000000000
     27132      9044  TIP3      H2             14.7056896015        7.5448142534       20.8020953365  WZ4       2456            0.0000000000
     27133      9045  TIP3      OH2            15.0947396015        6.3385442534       22.0185253365  WZ4       2457            0.0000000000
     27134      9045  TIP3      H1             14.3681996015        5.8588042534       22.4162853365  WZ4       2457            0.0000000000
     27135      9045  TIP3      H2             15.6760696015        6.5440142534       22.7506853365  WZ4       2457            0.0000000000
     27136      9046  TIP3      OH2            14.8538596015        9.1232942534       26.9662853365  WZ4       2458            0.0000000000
     27137      9046  TIP3      H1             15.6872796015        8.7452942534       26.6856453365  WZ4       2458            0.0000000000
     27138      9046  TIP3      H2             14.9658896015       10.0664142534       26.8471953365  WZ4       2458            0.0000000000
     27139      9047  TIP3      OH2            13.3400896015       12.0010442534       29.2731253365  WZ4       2459            0.0000000000
     27140      9047  TIP3      H1             12.6926196015       12.3261942534       29.8986453365  WZ4       2459            0.0000000000
     27141      9047  TIP3      H2             12.8224896015       11.5608142534       28.5989553365  WZ4       2459            0.0000000000
     27142      9048  TIP3      OH2            15.3630496015        6.2393942534       18.4096553365  WZ4       2460            0.0000000000
     27143      9048  TIP3      H1             14.8411596015        6.5958042534       17.6907453365  WZ4       2460            0.0000000000
     27144      9048  TIP3      H2             15.3299696015        6.9141742534       19.0877453365  WZ4       2460            0.0000000000
     27145      9049  TIP3      OH2            13.7119496015        3.4789542534       16.9603653365  WZ4       2461            0.0000000000
     27146      9049  TIP3      H1             13.8083896015        4.1456542534       16.2803353365  WZ4       2461            0.0000000000
     27147      9049  TIP3      H2             13.5719096015        2.6635842534       16.4789153365  WZ4       2461            0.0000000000
     27148      9050  TIP3      OH2            12.8814196015        4.8591942534       22.5813953365  WZ4       2462            0.0000000000
     27149      9050  TIP3      H1             12.7312996015        3.9140542534       22.5611753365  WZ4       2462            0.0000000000
     27150      9050  TIP3      H2             12.5278696015        5.1403342534       23.4253053365  WZ4       2462            0.0000000000
     27151      9051  TIP3      OH2            -2.0833403985        6.9374142534       26.5917753365  WZ4       2463            0.0000000000
     27152      9051  TIP3      H1             -1.8990503985        6.8555842534       25.6560653365  WZ4       2463            0.0000000000
     27153      9051  TIP3      H2             -1.2340503985        6.8131142534       27.0154153365  WZ4       2463            0.0000000000
     27154      9052  TIP3      OH2            13.7377096015        6.8295242534       32.2202253365  WZ4       2464            0.0000000000
     27155      9052  TIP3      H1             14.3204396015        6.0947542534       32.4119453365  WZ4       2464            0.0000000000
     27156      9052  TIP3      H2             14.3016396015        7.6015542534       32.2668053365  WZ4       2464            0.0000000000
     27157      9053  TIP3      OH2            15.2344196015        4.7321042534       32.9047653365  WZ4       2465            0.0000000000
     27158      9053  TIP3      H1             14.3710896015        4.3533142534       32.7392353365  WZ4       2465            0.0000000000
     27159      9053  TIP3      H2             15.8387896015        3.9935842534       32.8303453365  WZ4       2465            0.0000000000
     27160      9054  TIP3      OH2            12.9593296015        0.8869342534       16.0779153365  WZ4       2466            0.0000000000
     27161      9054  TIP3      H1             13.5699096015        0.5156142534       16.7147353365  WZ4       2466            0.0000000000
     27162      9054  TIP3      H2             12.1224796015        0.4656242534       16.2739153365  WZ4       2466            0.0000000000
     27163      9055  TIP3      OH2            12.5918996015        2.4417742534       21.0439053365  WZ4       2467            0.0000000000
     27164      9055  TIP3      H1             12.8716096015        1.5348142534       21.1680753365  WZ4       2467            0.0000000000
     27165      9055  TIP3      H2             13.3510696015        2.8759242534       20.6548253365  WZ4       2467            0.0000000000
     27166      9056  TIP3      OH2            13.2037296015        3.0235142534       26.4797953365  WZ4       2468            0.0000000000
     27167      9056  TIP3      H1             14.1365296015        3.2355042534       26.4453953365  WZ4       2468            0.0000000000
     27168      9056  TIP3      H2             12.9684796015        3.1247242534       27.4020953365  WZ4       2468            0.0000000000
     27169      9057  TIP3      OH2            13.2329196015        3.7600442534       29.2557353365  WZ4       2469            0.0000000000
     27170      9057  TIP3      H1             12.3900496015        4.0280842534       29.6217153365  WZ4       2469            0.0000000000
     27171      9057  TIP3      H2             13.6753496015        4.5822342534       29.0448453365  WZ4       2469            0.0000000000
     27172      9058  TIP3      OH2            -2.4858603985        2.2079142534       32.7326553365  WZ4       2470            0.0000000000
     27173      9058  TIP3      H1             -1.5663703985        2.0857442534       32.9689653365  WZ4       2470            0.0000000000
     27174      9058  TIP3      H2             -2.9354103985        1.4578842534       33.1220053365  WZ4       2470            0.0000000000
     27175      9059  TIP3      OH2            15.5160796015       -2.2599357466       34.6092353365  WZ4       2471            0.0000000000
     27176      9059  TIP3      H1             15.8657796015       -2.9135857466       34.0037053365  WZ4       2471            0.0000000000
     27177      9059  TIP3      H2             15.6630296015       -1.4225257466       34.1694953365  WZ4       2471            0.0000000000
     27178      9060  TIP3      OH2            13.2053796015       -0.2952957466       21.0921053365  WZ4       2472            0.0000000000
     27179      9060  TIP3      H1             13.3878796015       -0.7441457466       21.9176053365  WZ4       2472            0.0000000000
     27180      9060  TIP3      H2             12.6056696015       -0.8798557466       20.6285653365  WZ4       2472            0.0000000000
     27181      9061  TIP3      OH2            -1.2646103985        0.5200742534       25.6239453365  WZ4       2473            0.0000000000
     27182      9061  TIP3      H1             -0.8194503985       -0.2716757466       25.9259153365  WZ4       2473            0.0000000000
     27183      9061  TIP3      H2             -0.7983103985        1.2365942534       26.0545053365  WZ4       2473            0.0000000000
     27184      9062  TIP3      OH2            -2.9605803985        3.5193742534       26.6929653365  WZ4       2474            0.0000000000
     27185      9062  TIP3      H1             -2.4686003985        3.2984242534       25.9021653365  WZ4       2474            0.0000000000
     27186      9062  TIP3      H2             -2.5984903985        4.3597142534       26.9739153365  WZ4       2474            0.0000000000
     27187      9063  TIP3      OH2            15.0357996015       -0.1504757466       32.9583653365  WZ4       2475            0.0000000000
     27188      9063  TIP3      H1             14.1183696015        0.1202342534       32.9227153365  WZ4       2475            0.0000000000
     27189      9063  TIP3      H2             15.1587396015       -0.6856357466       32.1743353365  WZ4       2475            0.0000000000
     27190      9064  TIP3      OH2            15.0719996015       -0.2274857466       17.6201353365  WZ4       2476            0.0000000000
     27191      9064  TIP3      H1             15.4842596015       -0.9489157466       17.1449353365  WZ4       2476            0.0000000000
     27192      9064  TIP3      H2             15.7536496015        0.4419742534       17.6785653365  WZ4       2476            0.0000000000
     27193      9065  TIP3      OH2            -2.6469303985       -0.2227157466       20.7472053365  WZ4       2477            0.0000000000
     27194      9065  TIP3      H1             -3.5720903985       -0.0140557466       20.6177553365  WZ4       2477            0.0000000000
     27195      9065  TIP3      H2             -2.1929403985        0.2613642534       20.0574353365  WZ4       2477            0.0000000000
     27196      9066  TIP3      OH2            12.1237896015       14.7614542534       22.6929453365  WZ4       2478            0.0000000000
     27197      9066  TIP3      H1             12.7760796015       14.4136642534       22.0848553365  WZ4       2478            0.0000000000
     27198      9066  TIP3      H2             12.6341696015       15.2497742534       23.3389153365  WZ4       2478            0.0000000000
     27199      9067  TIP3      OH2            -2.6833903985       -1.4848157466       29.0914553365  WZ4       2479            0.0000000000
     27200      9067  TIP3      H1             -3.3483403985       -1.7307857466       29.7345453365  WZ4       2479            0.0000000000
     27201      9067  TIP3      H2             -3.1262603985       -0.8627757466       28.5142553365  WZ4       2479            0.0000000000
     27202      9068  TIP3      OH2            -0.4914603985       11.6905942534       33.2360353365  WZ4       2480            0.0000000000
     27203      9068  TIP3      H1             -1.3122103985       11.8652442534       32.7755053365  WZ4       2480            0.0000000000
     27204      9068  TIP3      H2             -0.7436803985       11.6170642534       34.1564753365  WZ4       2480            0.0000000000
     27205      9069  TIP3      OH2             2.4628296015       12.6647142534       29.4944353365  WZ4       2481            0.0000000000
     27206      9069  TIP3      H1              2.0379396015       13.4745642534       29.2118953365  WZ4       2481            0.0000000000
     27207      9069  TIP3      H2              3.3671096015       12.7501242534       29.1924153365  WZ4       2481            0.0000000000
     27208      9070  TIP3      OH2             6.7739696015       14.0637142534       32.4538053365  WZ4       2482            0.0000000000
     27209      9070  TIP3      H1              6.9587196015       13.7303242534       33.3318353365  WZ4       2482            0.0000000000
     27210      9070  TIP3      H2              7.6204196015       14.3735742534       32.1317253365  WZ4       2482            0.0000000000
     27211      9071  TIP3      OH2             9.1190096015       15.3496042534       31.6979453365  WZ4       2483            0.0000000000
     27212      9071  TIP3      H1              9.7958996015       14.7168342534       31.4578653365  WZ4       2483            0.0000000000
     27213      9071  TIP3      H2              9.4408896015       15.7506542534       32.5052753365  WZ4       2483            0.0000000000
     27214      9072  TIP3      OH2            14.0363896015       -2.0608457466       30.7774453365  WZ4       2484            0.0000000000
     27215      9072  TIP3      H1             13.2237396015       -1.7358157466       30.3899153365  WZ4       2484            0.0000000000
     27216      9072  TIP3      H2             14.2692396015       -2.8209957466       30.2443553365  WZ4       2484            0.0000000000
     27217      9073  TIP3      OH2            -0.1355003985       15.9211042534       29.5419653365  WZ4       2485            0.0000000000
     27218      9073  TIP3      H1             -0.8558603985       16.3612042534       29.0907353365  WZ4       2485            0.0000000000
     27219      9073  TIP3      H2             -0.5011003985       15.6705742534       30.3903653365  WZ4       2485            0.0000000000
     27220      9074  TIP3      OH2             2.3317596015       15.5214942534       28.5716853365  WZ4       2486            0.0000000000
     27221      9074  TIP3      H1              1.4669796015       15.5933442534       28.9756953365  WZ4       2486            0.0000000000
     27222      9074  TIP3      H2              2.2766596015       16.0682242534       27.7879353365  WZ4       2486            0.0000000000
     27223      9075  TIP3      OH2             7.0423196015       15.4093842534       27.7472853365  WZ4       2487            0.0000000000
     27224      9075  TIP3      H1              6.5857196015       15.9383542534       27.0931253365  WZ4       2487            0.0000000000
     27225      9075  TIP3      H2              7.2051196015       16.0125242534       28.4725153365  WZ4       2487            0.0000000000
     27226      9076  TIP3      OH2             9.3699496015       14.2873442534       28.6923153365  WZ4       2488            0.0000000000
     27227      9076  TIP3      H1              8.4653196015       14.4523642534       28.4265253365  WZ4       2488            0.0000000000
     27228      9076  TIP3      H2              9.7988096015       15.1405642534       28.6266553365  WZ4       2488            0.0000000000
     27229      9077  TIP3      OH2            11.9741396015       15.8572542534       28.9870953365  WZ4       2489            0.0000000000
     27230      9077  TIP3      H1             11.7923396015       16.7731442534       28.7765853365  WZ4       2489            0.0000000000
     27231      9077  TIP3      H2             12.1509196015       15.4469642534       28.1405553365  WZ4       2489            0.0000000000
     27232      9078  TIP3      OH2            -0.7206903985       14.5443542534       26.4521453365  WZ4       2490            0.0000000000
     27233      9078  TIP3      H1             -0.7390903985       14.1188642534       27.3093753365  WZ4       2490            0.0000000000
     27234      9078  TIP3      H2              0.0840996015       14.2258542534       26.0433653365  WZ4       2490            0.0000000000
     27235      9079  TIP3      OH2             1.4206196015       13.2542242534       25.1071353365  WZ4       2491            0.0000000000
     27236      9079  TIP3      H1              1.2016896015       12.3379642534       25.2767353365  WZ4       2491            0.0000000000
     27237      9079  TIP3      H2              2.2448396015       13.3942642534       25.5732753365  WZ4       2491            0.0000000000
     27238      9080  TIP3      OH2             3.9578696015       13.7241542534       25.9559353365  WZ4       2492            0.0000000000
     27239      9080  TIP3      H1              4.1704396015       12.8360542534       25.6690253365  WZ4       2492            0.0000000000
     27240      9080  TIP3      H2              4.0223796015       13.6899242534       26.9103353365  WZ4       2492            0.0000000000
     27241      9081  TIP3      OH2             7.4662396015       -0.6117857466       25.1002653365  WZ4       2493            0.0000000000
     27242      9081  TIP3      H1              6.7919196015       -1.2412257466       25.3558453365  WZ4       2493            0.0000000000
     27243      9081  TIP3      H2              8.0301596015       -1.0958957466       24.4970553365  WZ4       2493            0.0000000000
     27244      9082  TIP3      OH2            12.6089596015       -2.5043857466       25.2129753365  WZ4       2494            0.0000000000
     27245      9082  TIP3      H1             13.2127196015       -1.9568457466       24.7110753365  WZ4       2494            0.0000000000
     27246      9082  TIP3      H2             11.7391596015       -2.1853457466       24.9723853365  WZ4       2494            0.0000000000
     27247      9083  TIP3      OH2            14.3359996015       -1.3655157466       23.5460653365  WZ4       2495            0.0000000000
     27248      9083  TIP3      H1             14.9477496015       -1.8799457466       23.0194253365  WZ4       2495            0.0000000000
     27249      9083  TIP3      H2             14.7183396015       -0.4883057466       23.5695053365  WZ4       2495            0.0000000000
     27250      9084  TIP3      OH2            -0.2070103985       -1.9777557466       22.9222553365  WZ4       2496            0.0000000000
     27251      9084  TIP3      H1             -0.9840303985       -2.2122657466       22.4148453365  WZ4       2496            0.0000000000
     27252      9084  TIP3      H2              0.3233496015       -2.7745457466       22.9310553365  WZ4       2496            0.0000000000
     27253      9085  TIP3      OH2            -1.3706703985       -2.1799457466       18.7258653365  WZ4       2497            0.0000000000
     27254      9085  TIP3      H1             -0.9316003985       -1.5688957466       18.1342153365  WZ4       2497            0.0000000000
     27255      9085  TIP3      H2             -2.0044303985       -1.6415357466       19.1998653365  WZ4       2497            0.0000000000
     27256      9086  TIP3      OH2             4.3722496015       -2.0510457466       22.7355653365  WZ4       2498            0.0000000000
     27257      9086  TIP3      H1              5.2465896015       -1.6626157466       22.7059953365  WZ4       2498            0.0000000000
     27258      9086  TIP3      H2              4.2363296015       -2.2662657466       23.6582853365  WZ4       2498            0.0000000000
     27259      9087  TIP3      OH2             9.9290896015       -2.0210657466       24.3847353365  WZ4       2499            0.0000000000
     27260      9087  TIP3      H1             10.0052496015       -1.9259057466       23.4353353365  WZ4       2499            0.0000000000
     27261      9087  TIP3      H2              9.6540096015       -2.9287757466       24.5136453365  WZ4       2499            0.0000000000
     27262      9088  TIP3      OH2            11.2823496015       -1.9952857466       20.0772353365  WZ4       2500            0.0000000000
     27263      9088  TIP3      H1             10.5794596015       -1.3803657466       19.8673753365  WZ4       2500            0.0000000000
     27264      9088  TIP3      H2             10.8374896015       -2.8326157466       20.2083253365  WZ4       2500            0.0000000000
     27265      9089  TIP3      OH2            -1.4697203985       13.7682742534       19.6233753365  WZ4       2501            0.0000000000
     27266      9089  TIP3      H1             -2.1547303985       13.7301642534       18.9558853365  WZ4       2501            0.0000000000
     27267      9089  TIP3      H2             -1.4660003985       14.6810342534       19.9115853365  WZ4       2501            0.0000000000
     27268      9090  TIP3      OH2             0.4902396015       -0.2637957466       17.1682753365  WZ4       2502            0.0000000000
     27269      9090  TIP3      H1              0.9815796015       -0.8935557466       16.6408253365  WZ4       2502            0.0000000000
     27270      9090  TIP3      H2              1.1138696015        0.0321442534       17.8313953365  WZ4       2502            0.0000000000
     27271      9091  TIP3      OH2             5.5162496015        0.0293542534       19.6253253365  WZ4       2503            0.0000000000
     27272      9091  TIP3      H1              5.6943796015       -0.6173257466       20.3081853365  WZ4       2503            0.0000000000
     27273      9091  TIP3      H2              5.4628696015        0.8631242534       20.0924353365  WZ4       2503            0.0000000000
     27274      9092  TIP3      OH2             7.3946296015       14.9777642534       18.0209953365  WZ4       2504            0.0000000000
     27275      9092  TIP3      H1              8.2606496015       15.3445042534       17.8428153365  WZ4       2504            0.0000000000
     27276      9092  TIP3      H2              7.1479096015       14.5385642534       17.2070753365  WZ4       2504            0.0000000000
     27277      9093  TIP3      OH2            14.1035896015       14.5407942534       20.7001053365  WZ4       2505            0.0000000000
     27278      9093  TIP3      H1             13.9092996015       13.7930042534       20.1350653365  WZ4       2505            0.0000000000
     27279      9093  TIP3      H2             14.0645996015       15.2988042534       20.1168953365  WZ4       2505            0.0000000000
     27280      9094  TIP3      OH2            -0.2492103985       -1.4635657466       32.4398753365  WZ4       2506            0.0000000000
     27281      9094  TIP3      H1             -0.6153903985       -2.2293057466       32.8823453365  WZ4       2506            0.0000000000
     27282      9094  TIP3      H2              0.6636396015       -1.4345457466       32.7263853365  WZ4       2506            0.0000000000
     27283      9095  TIP3      OH2             1.7238696015       -2.1131257466       33.9755853365  WZ4       2507            0.0000000000
     27284      9095  TIP3      H1              2.6222296015       -2.3871057466       33.7909253365  WZ4       2507            0.0000000000
     27285      9095  TIP3      H2              1.3371796015       -2.8555257466       34.4398453365  WZ4       2507            0.0000000000
     27286      9096  TIP3      OH2             0.3483996015       14.6883542534       16.6485853365  WZ4       2508            0.0000000000
     27287      9096  TIP3      H1              0.0808596015       14.9746442534       17.5218953365  WZ4       2508            0.0000000000
     27288      9096  TIP3      H2              1.1196596015       14.1422742534       16.8008353365  WZ4       2508            0.0000000000
     27289      9097  TIP3      OH2            10.1450996015       -2.7805957466       34.1578653365  WZ4       2509            0.0000000000
     27290      9097  TIP3      H1             10.2218196015       -3.2065257466       35.0116353365  WZ4       2509            0.0000000000
     27291      9097  TIP3      H2             11.0387596015       -2.7671257466       33.8152153365  WZ4       2509            0.0000000000
     27292      9098  TIP3      OH2            27.7272496015        7.1784742534       22.8810053365  WZ4       2511            0.0000000000
     27293      9098  TIP3      H1             27.8163596015        8.1222942534       22.7487153365  WZ4       2511            0.0000000000
     27294      9098  TIP3      H2             27.0890096015        6.9031142534       22.2229453365  WZ4       2511            0.0000000000
     27295      9099  TIP3      OH2            26.6603796015        6.4335442534       26.2998253365  WZ4       2512            0.0000000000
     27296      9099  TIP3      H1             26.6221296015        5.7871742534       27.0047853365  WZ4       2512            0.0000000000
     27297      9099  TIP3      H2             26.3380296015        5.9669842534       25.5286953365  WZ4       2512            0.0000000000
     27298      9100  TIP3      OH2            19.0288796015        6.0477542534       27.8928153365  WZ4       2513            0.0000000000
     27299      9100  TIP3      H1             19.0700896015        5.4220842534       28.6160553365  WZ4       2513            0.0000000000
     27300      9100  TIP3      H2             19.7316496015        6.6716142534       28.0748553365  WZ4       2513            0.0000000000
     27301      9101  TIP3      OH2            19.9521896015       10.4976442534       26.4277253365  WZ4       2515            0.0000000000
     27302      9101  TIP3      H1             19.5827096015        9.6956942534       26.0581553365  WZ4       2515            0.0000000000
     27303      9101  TIP3      H2             20.8932996015       10.3291342534       26.4740653365  WZ4       2515            0.0000000000
     27304      9102  TIP3      OH2            16.5622396015        4.1579042534       21.8206053365  WZ4       2516            0.0000000000
     27305      9102  TIP3      H1             16.1145796015        5.0037742534       21.8022553365  WZ4       2516            0.0000000000
     27306      9102  TIP3      H2             16.0013596015        3.5783242534       21.3051153365  WZ4       2516            0.0000000000
     27307      9103  TIP3      OH2            17.2728496015        6.3198642534       23.9464053365  WZ4       2517            0.0000000000
     27308      9103  TIP3      H1             17.4861996015        5.5500242534       24.4737053365  WZ4       2517            0.0000000000
     27309      9103  TIP3      H2             18.0106096015        6.4095342534       23.3431653365  WZ4       2517            0.0000000000
     27310      9104  TIP3      OH2            25.0498196015        8.8656842534       26.7059253365  WZ4       2519            0.0000000000
     27311      9104  TIP3      H1             25.3536096015        8.1798242534       26.1113353365  WZ4       2519            0.0000000000
     27312      9104  TIP3      H2             25.7712196015        8.9845542534       27.3237253365  WZ4       2519            0.0000000000
     27313      9105  TIP3      OH2            28.1905196015        3.2599242534       27.0334053365  WZ4       2521            0.0000000000
     27314      9105  TIP3      H1             28.3331096015        2.3136242534       27.0535653365  WZ4       2521            0.0000000000
     27315      9105  TIP3      H2             28.0844196015        3.4669042534       26.1048953365  WZ4       2521            0.0000000000
     27316      9106  TIP3      OH2            21.3453496015        1.3615642534       24.3058853365  WZ4       2522            0.0000000000
     27317      9106  TIP3      H1             21.3884596015        2.2214142534       23.8875153365  WZ4       2522            0.0000000000
     27318      9106  TIP3      H2             20.8877596015        0.8090342534       23.6722053365  WZ4       2522            0.0000000000
     27319      9107  TIP3      OH2            29.0676196015        1.4921242534       22.7067153365  WZ4       2523            0.0000000000
     27320      9107  TIP3      H1             29.7140496015        1.1634442534       23.3314753365  WZ4       2523            0.0000000000
     27321      9107  TIP3      H2             29.5775596015        2.0100242534       22.0838553365  WZ4       2523            0.0000000000
     27322      9108  TIP3      OH2            17.9654996015        3.7581442534       25.0680253365  WZ4       2524            0.0000000000
     27323      9108  TIP3      H1             18.6191596015        3.2083142534       25.5000353365  WZ4       2524            0.0000000000
     27324      9108  TIP3      H2             17.9894296015        3.4840442534       24.1512253365  WZ4       2524            0.0000000000
     27325      9109  TIP3      OH2            23.1219496015        5.3082742534       24.2831753365  WZ4       2525            0.0000000000
     27326      9109  TIP3      H1             23.7380496015        4.7818142534       24.7925753365  WZ4       2525            0.0000000000
     27327      9109  TIP3      H2             22.5358296015        4.6681442534       23.8795353365  WZ4       2525            0.0000000000
     27328      9110  TIP3      OH2            20.1555396015        0.2794042534       28.3799653365  WZ4       2527            0.0000000000
     27329      9110  TIP3      H1             19.9367096015        0.8094642534       27.6135653365  WZ4       2527            0.0000000000
     27330      9110  TIP3      H2             19.4876296015        0.5059542534       29.0271053365  WZ4       2527            0.0000000000
     27331      9111  TIP3      OH2            27.5245196015        9.7795142534       21.9238753365  WZ4       2528            0.0000000000
     27332      9111  TIP3      H1             27.2290296015        9.4567442534       21.0725653365  WZ4       2528            0.0000000000
     27333      9111  TIP3      H2             27.2002996015       10.6791842534       21.9651353365  WZ4       2528            0.0000000000
     27334      9112  TIP3      OH2            22.7246796015        7.9549742534       28.6673353365  WZ4       2529            0.0000000000
     27335      9112  TIP3      H1             21.9845896015        8.5531242534       28.7708553365  WZ4       2529            0.0000000000
     27336      9112  TIP3      H2             23.4386296015        8.5089342534       28.3516953365  WZ4       2529            0.0000000000
     27337      9113  TIP3      OH2            30.8314596015        0.7830542534       24.6873053365  WZ4       2530            0.0000000000
     27338      9113  TIP3      H1             30.6162596015        0.0173942534       25.2199053365  WZ4       2530            0.0000000000
     27339      9113  TIP3      H2             31.4871996015        1.2555142534       25.2001553365  WZ4       2530            0.0000000000
     27340      9114  TIP3      OH2            19.7492696015        2.1715842534       26.3321853365  WZ4       2531            0.0000000000
     27341      9114  TIP3      H1             20.3628996015        2.8043442534       26.7054253365  WZ4       2531            0.0000000000
     27342      9114  TIP3      H2             20.2613396015        1.6990842534       25.6758753365  WZ4       2531            0.0000000000
     27343      9115  TIP3      OH2            17.2531996015        9.5900642534       20.2364153365  WZ4       2533            0.0000000000
     27344      9115  TIP3      H1             16.9812896015        9.8191642534       19.3477053365  WZ4       2533            0.0000000000
     27345      9115  TIP3      H2             17.2987696015       10.4279442534       20.6969453365  WZ4       2533            0.0000000000
     27346      9116  TIP3      OH2            24.1820096015       -2.4150857466       25.8324553365  WZ4       2536            0.0000000000
     27347      9116  TIP3      H1             24.0644296015       -3.3634857466       25.7782853365  WZ4       2536            0.0000000000
     27348      9116  TIP3      H2             23.3270196015       -2.0824757466       26.1055653365  WZ4       2536            0.0000000000
     27349      9117  TIP3      OH2            30.2899396015       10.8938542534       22.0830853365  WZ4       2538            0.0000000000
     27350      9117  TIP3      H1             30.0324196015       10.2038642534       21.4716753365  WZ4       2538            0.0000000000
     27351      9117  TIP3      H2             30.3610196015       10.4509742534       22.9286753365  WZ4       2538            0.0000000000
     27352      9118  TIP3      OH2            26.4484996015        6.4224742534       20.3330353365  WZ4       2540            0.0000000000
     27353      9118  TIP3      H1             25.7370496015        6.9574442534       19.9810853365  WZ4       2540            0.0000000000
     27354      9118  TIP3      H2             27.1394596015        6.4776842534       19.6729253365  WZ4       2540            0.0000000000
     27355      9119  TIP3      OH2            26.5024196015        4.8799042534       17.3715353365  WZ4       2541            0.0000000000
     27356      9119  TIP3      H1             27.2034096015        4.9025942534       18.0229353365  WZ4       2541            0.0000000000
     27357      9119  TIP3      H2             26.8047096015        4.2518742534       16.7154653365  WZ4       2541            0.0000000000
     27358      9120  TIP3      OH2            29.8542696015        6.6318042534       21.2846253365  WZ4       2543            0.0000000000
     27359      9120  TIP3      H1             29.1223696015        6.8601742534       21.8576853365  WZ4       2543            0.0000000000
     27360      9120  TIP3      H2             30.3014896015        5.9180742534       21.7393753365  WZ4       2543            0.0000000000
     27361      9121  TIP3      OH2            21.4996396015        7.2624242534       23.1671253365  WZ4       2545            0.0000000000
     27362      9121  TIP3      H1             21.1691596015        6.8917642534       22.3488253365  WZ4       2545            0.0000000000
     27363      9121  TIP3      H2             22.0880496015        6.5918242534       23.5139553365  WZ4       2545            0.0000000000
     27364      9122  TIP3      OH2            22.8663896015       10.6904842534       25.8483453365  WZ4       2546            0.0000000000
     27365      9122  TIP3      H1             22.7715196015       10.1117942534       25.0918053365  WZ4       2546            0.0000000000
     27366      9122  TIP3      H2             23.5957496015       10.3190542534       26.3446253365  WZ4       2546            0.0000000000
     27367      9123  TIP3      OH2            21.8661896015        6.0309842534       26.8006253365  WZ4       2547            0.0000000000
     27368      9123  TIP3      H1             22.4314396015        6.1524042534       26.0377453365  WZ4       2547            0.0000000000
     27369      9123  TIP3      H2             22.1850796015        6.6684842534       27.4394753365  WZ4       2547            0.0000000000
     27370      9124  TIP3      OH2            28.7252196015        5.7940942534       18.9697453365  WZ4       2550            0.0000000000
     27371      9124  TIP3      H1             29.3047696015        5.9441242534       19.7166353365  WZ4       2550            0.0000000000
     27372      9124  TIP3      H2             29.1392196015        6.2648342534       18.2463853365  WZ4       2550            0.0000000000
     27373      9125  TIP3      OH2            19.6662496015        6.6283642534       30.7463853365  WZ4       2551            0.0000000000
     27374      9125  TIP3      H1             19.7365696015        7.2790442534       31.4448853365  WZ4       2551            0.0000000000
     27375      9125  TIP3      H2             18.7754696015        6.7311142534       30.4114753365  WZ4       2551            0.0000000000
     27376      9126  TIP3      OH2            26.4517096015       12.5309442534       22.4050553365  WZ4       2552            0.0000000000
     27377      9126  TIP3      H1             26.9254696015       12.8265742534       23.1824753365  WZ4       2552            0.0000000000
     27378      9126  TIP3      H2             25.8886396015       13.2691042534       22.1720153365  WZ4       2552            0.0000000000
     27379      9127  TIP3      OH2            32.4240596015       -2.4558657466       18.7827153365  WZ4       2554            0.0000000000
     27380      9127  TIP3      H1             31.5241296015       -2.3169657466       19.0777753365  WZ4       2554            0.0000000000
     27381      9127  TIP3      H2             32.6758996015       -1.6244057466       18.3808853365  WZ4       2554            0.0000000000
     27382      9128  TIP3      OH2            20.4899096015        6.3318542534       20.7564053365  WZ4       2555            0.0000000000
     27383      9128  TIP3      H1             20.1980396015        7.1000242534       20.2655353365  WZ4       2555            0.0000000000
     27384      9128  TIP3      H2             19.8154296015        5.6724742534       20.5935453365  WZ4       2555            0.0000000000
     27385      9129  TIP3      OH2            33.6131996015       11.9103742534       17.1591053365  WZ4       2556            0.0000000000
     27386      9129  TIP3      H1             33.6865496015       12.8493942534       17.3296353365  WZ4       2556            0.0000000000
     27387      9129  TIP3      H2             34.5187096015       11.6052342534       17.1028353365  WZ4       2556            0.0000000000
     27388      9130  TIP3      OH2            16.5829196015        8.6947742534       29.5713853365  WZ4       2557            0.0000000000
     27389      9130  TIP3      H1             16.0817596015        8.6667142534       28.7563553365  WZ4       2557            0.0000000000
     27390      9130  TIP3      H2             16.5882896015        7.7890942534       29.8811153365  WZ4       2557            0.0000000000
     27391      9131  TIP3      OH2            16.3331896015       11.4751542534       26.4554053365  WZ4       2558            0.0000000000
     27392      9131  TIP3      H1             17.2792496015       11.3308542534       26.4363553365  WZ4       2558            0.0000000000
     27393      9131  TIP3      H2             16.2208196015       12.2594342534       26.9925253365  WZ4       2558            0.0000000000
     27394      9132  TIP3      OH2            25.9240196015       15.4874142534       20.8199753365  WZ4       2561            0.0000000000
     27395      9132  TIP3      H1             25.8486196015       15.3661342534       19.8734953365  WZ4       2561            0.0000000000
     27396      9132  TIP3      H2             25.9568896015       16.4366842534       20.9384353365  WZ4       2561            0.0000000000
     27397      9133  TIP3      OH2            19.5773996015       14.2761142534       22.6008753365  WZ4       2562            0.0000000000
     27398      9133  TIP3      H1             19.7294396015       13.9281542534       23.4795253365  WZ4       2562            0.0000000000
     27399      9133  TIP3      H2             18.7264396015       13.9198442534       22.3455953365  WZ4       2562            0.0000000000
     27400      9134  TIP3      OH2            29.0256196015       14.6414342534       17.8222153365  WZ4       2563            0.0000000000
     27401      9134  TIP3      H1             29.4004596015       13.8970442534       17.3514753365  WZ4       2563            0.0000000000
     27402      9134  TIP3      H2             29.0299896015       14.3714942534       18.7405453365  WZ4       2563            0.0000000000
     27403      9135  TIP3      OH2            28.6944296015       14.5671442534       20.5714353365  WZ4       2564            0.0000000000
     27404      9135  TIP3      H1             27.7594096015       14.6673342534       20.7501353365  WZ4       2564            0.0000000000
     27405      9135  TIP3      H2             28.9746196015       13.8577442534       21.1497553365  WZ4       2564            0.0000000000
     27406      9136  TIP3      OH2            21.4507696015       -1.5116357466       26.6100853365  WZ4       2567            0.0000000000
     27407      9136  TIP3      H1             20.5891396015       -1.5988157466       26.2023753365  WZ4       2567            0.0000000000
     27408      9136  TIP3      H2             21.4283396015       -0.6556257466       27.0378453365  WZ4       2567            0.0000000000
     27409      9137  TIP3      OH2            26.1135496015       -1.7895957466       29.9847853365  WZ4       2568            0.0000000000
     27410      9137  TIP3      H1             26.5338596015       -2.2048857466       30.7378453365  WZ4       2568            0.0000000000
     27411      9137  TIP3      H2             25.1805096015       -1.9682657466       30.1019853365  WZ4       2568            0.0000000000
     27412      9138  TIP3      OH2            30.2025296015        6.8269242534       16.5995353365  WZ4       2570            0.0000000000
     27413      9138  TIP3      H1             30.2446096015        6.6043142534       15.6695353365  WZ4       2570            0.0000000000
     27414      9138  TIP3      H2             31.0517396015        7.2256342534       16.7895253365  WZ4       2570            0.0000000000
     27415      9139  TIP3      OH2            25.7752796015        0.7027442534       17.2698653365  WZ4       2571            0.0000000000
     27416      9139  TIP3      H1             25.5217596015        0.7219042534       18.1926753365  WZ4       2571            0.0000000000
     27417      9139  TIP3      H2             25.5184896015       -0.1687157466       16.9684853365  WZ4       2571            0.0000000000
     27418      9140  TIP3      OH2            21.5417796015        3.4538142534       27.7051053365  WZ4       2572            0.0000000000
     27419      9140  TIP3      H1             20.8999896015        3.4135442534       28.4141153365  WZ4       2572            0.0000000000
     27420      9140  TIP3      H2             21.5789796015        4.3802842534       27.4674053365  WZ4       2572            0.0000000000
     27421      9141  TIP3      OH2            21.5386896015        3.6748242534       22.6171053365  WZ4       2573            0.0000000000
     27422      9141  TIP3      H1             20.6459796015        3.3344342534       22.5584853365  WZ4       2573            0.0000000000
     27423      9141  TIP3      H2             21.9893496015        3.2979142534       21.8614253365  WZ4       2573            0.0000000000
     27424      9142  TIP3      OH2            27.0742396015        4.0908542534       21.4341853365  WZ4       2574            0.0000000000
     27425      9142  TIP3      H1             26.6652696015        4.9057142534       21.1426653365  WZ4       2574            0.0000000000
     27426      9142  TIP3      H2             27.7948596015        3.9508642534       20.8198953365  WZ4       2574            0.0000000000
     27427      9143  TIP3      OH2            28.0790096015        3.5368942534       24.2481553365  WZ4       2576            0.0000000000
     27428      9143  TIP3      H1             27.8834596015        4.1425742534       23.5332153365  WZ4       2576            0.0000000000
     27429      9143  TIP3      H2             28.2602696015        2.7034142534       23.8137853365  WZ4       2576            0.0000000000
     27430      9144  TIP3      OH2            19.2918296015        3.7741642534       29.5723053365  WZ4       2577            0.0000000000
     27431      9144  TIP3      H1             19.2537696015        4.1743242534       30.4410153365  WZ4       2577            0.0000000000
     27432      9144  TIP3      H2             18.8009396015        2.9574042534       29.6625953365  WZ4       2577            0.0000000000
     27433      9145  TIP3      OH2            22.6575696015        1.1483942534       16.3709053365  WZ4       2578            0.0000000000
     27434      9145  TIP3      H1             22.2266396015        0.7034042534       17.1006453365  WZ4       2578            0.0000000000
     27435      9145  TIP3      H2             21.9394396015        1.5200242534       15.8586553365  WZ4       2578            0.0000000000
     27436      9146  TIP3      OH2            15.8999096015        0.8903442534       23.4227753365  WZ4       2579            0.0000000000
     27437      9146  TIP3      H1             16.5306796015        0.8615542534       24.1421653365  WZ4       2579            0.0000000000
     27438      9146  TIP3      H2             16.3493396015        0.4652142534       22.6923653365  WZ4       2579            0.0000000000
     27439      9147  TIP3      OH2            17.1741196015        1.6365442534       18.8468153365  WZ4       2580            0.0000000000
     27440      9147  TIP3      H1             17.6482896015        2.2275342534       18.2619053365  WZ4       2580            0.0000000000
     27441      9147  TIP3      H2             16.4567596015        2.1668342534       19.1938253365  WZ4       2580            0.0000000000
     27442      9148  TIP3      OH2            24.1202196015        1.1025742534       23.7035153365  WZ4       2582            0.0000000000
     27443      9148  TIP3      H1             23.2093296015        1.1592542534       23.9921153365  WZ4       2582            0.0000000000
     27444      9148  TIP3      H2             24.6255096015        1.0421242534       24.5142353365  WZ4       2582            0.0000000000
     27445      9149  TIP3      OH2            18.9485596015        2.7312042534       22.5302753365  WZ4       2583            0.0000000000
     27446      9149  TIP3      H1             18.0593596015        2.8307542534       22.1902353365  WZ4       2583            0.0000000000
     27447      9149  TIP3      H2             19.2450496015        1.8895042534       22.1840653365  WZ4       2583            0.0000000000
     27448      9150  TIP3      OH2            22.6017396015        2.7314642534       20.1867353365  WZ4       2584            0.0000000000
     27449      9150  TIP3      H1             23.5332896015        2.8604642534       20.3650453365  WZ4       2584            0.0000000000
     27450      9150  TIP3      H2             22.3867696015        3.4008942534       19.5372053365  WZ4       2584            0.0000000000
     27451      9151  TIP3      OH2            28.5254096015        0.3372042534       26.9676953365  WZ4       2585            0.0000000000
     27452      9151  TIP3      H1             27.8485696015        0.4685142534       27.6316653365  WZ4       2585            0.0000000000
     27453      9151  TIP3      H2             28.0398996015        0.1821542534       26.1574653365  WZ4       2585            0.0000000000
     27454      9152  TIP3      OH2            21.2757596015        3.9256842534       17.7533453365  WZ4       2586            0.0000000000
     27455      9152  TIP3      H1             20.7332696015        3.5460642534       17.0621053365  WZ4       2586            0.0000000000
     27456      9152  TIP3      H2             22.1092496015        4.1201542534       17.3247553365  WZ4       2586            0.0000000000
     27457      9153  TIP3      OH2            25.4401896015        3.8898742534       25.5904753365  WZ4       2589            0.0000000000
     27458      9153  TIP3      H1             26.0045296015        3.3435342534       25.0434353365  WZ4       2589            0.0000000000
     27459      9153  TIP3      H2             25.2925296015        3.3680642534       26.3792353365  WZ4       2589            0.0000000000
     27460      9154  TIP3      OH2            20.4421596015        0.0264842534       22.0089553365  WZ4       2590            0.0000000000
     27461      9154  TIP3      H1             20.1251096015       -0.8759857466       21.9734953365  WZ4       2590            0.0000000000
     27462      9154  TIP3      H2             21.2235696015        0.0282242534       21.4561153365  WZ4       2590            0.0000000000
     27463      9155  TIP3      OH2            24.0667796015        2.2784842534       28.0045153365  WZ4       2591            0.0000000000
     27464      9155  TIP3      H1             23.2313096015        2.7324342534       28.1147553365  WZ4       2591            0.0000000000
     27465      9155  TIP3      H2             24.5908396015        2.5543342534       28.7565053365  WZ4       2591            0.0000000000
     27466      9156  TIP3      OH2            24.6110396015        8.4912542534       19.6891553365  WZ4       2592            0.0000000000
     27467      9156  TIP3      H1             23.8661396015        7.9837842534       19.3669453365  WZ4       2592            0.0000000000
     27468      9156  TIP3      H2             24.4767596015        8.5400542534       20.6356353365  WZ4       2592            0.0000000000
     27469      9157  TIP3      OH2            28.5087196015        1.3052442534       17.8884153365  WZ4       2594            0.0000000000
     27470      9157  TIP3      H1             27.5701396015        1.4168042534       17.7372953365  WZ4       2594            0.0000000000
     27471      9157  TIP3      H2             28.8059296015        2.1619342534       18.1949853365  WZ4       2594            0.0000000000
     27472      9158  TIP3      OH2            29.2270696015        3.1725142534       19.5491553365  WZ4       2596            0.0000000000
     27473      9158  TIP3      H1             30.1189696015        3.0350142534       19.8682753365  WZ4       2596            0.0000000000
     27474      9158  TIP3      H2             29.2834296015        3.9631242534       19.0125053365  WZ4       2596            0.0000000000
     27475      9159  TIP3      OH2            19.7358696015        7.7862542534       25.4589453365  WZ4       2597            0.0000000000
     27476      9159  TIP3      H1             20.4805896015        7.7838242534       24.8575953365  WZ4       2597            0.0000000000
     27477      9159  TIP3      H2             19.8135296015        6.9626342534       25.9404553365  WZ4       2597            0.0000000000
     27478      9160  TIP3      OH2            26.7364496015        9.9496842534       18.7146153365  WZ4       2598            0.0000000000
     27479      9160  TIP3      H1             26.4412896015       10.7764742534       19.0960953365  WZ4       2598            0.0000000000
     27480      9160  TIP3      H2             26.0334496015        9.3303742534       18.9107553365  WZ4       2598            0.0000000000
     27481      9161  TIP3      OH2            16.7438396015        6.2469442534       30.7737953365  WZ4       2599            0.0000000000
     27482      9161  TIP3      H1             16.9666996015        5.8289042534       31.6055453365  WZ4       2599            0.0000000000
     27483      9161  TIP3      H2             16.1418496015        5.6344442534       30.3510753365  WZ4       2599            0.0000000000
     27484      9162  TIP3      OH2            34.1119396015        3.3819242534       19.2438253365  WZ4       2602            0.0000000000
     27485      9162  TIP3      H1             33.5575696015        2.9857242534       18.5715753365  WZ4       2602            0.0000000000
     27486      9162  TIP3      H2             34.2122996015        4.2924442534       18.9661553365  WZ4       2602            0.0000000000
     27487      9163  TIP3      OH2            32.4071096015       12.1679642534       19.7090353365  WZ4       2604            0.0000000000
     27488      9163  TIP3      H1             32.0342196015       11.3423442534       20.0180953365  WZ4       2604            0.0000000000
     27489      9163  TIP3      H2             32.6844596015       11.9849042534       18.8113753365  WZ4       2604            0.0000000000
     27490      9164  TIP3      OH2            22.1108096015       11.3040742534       22.8630953365  WZ4       2606            0.0000000000
     27491      9164  TIP3      H1             22.6380296015       12.0775142534       22.6629753365  WZ4       2606            0.0000000000
     27492      9164  TIP3      H2             21.2306596015       11.5289942534       22.5614953365  WZ4       2606            0.0000000000
     27493      9165  TIP3      OH2            17.8655796015        6.1664842534       17.4503353365  WZ4       2607            0.0000000000
     27494      9165  TIP3      H1             18.4815696015        6.7932042534       17.8298153365  WZ4       2607            0.0000000000
     27495      9165  TIP3      H2             17.0038396015        6.4824642534       17.7219853365  WZ4       2607            0.0000000000
     27496      9166  TIP3      OH2            23.5380396015        8.9670642534       22.4395253365  WZ4       2608            0.0000000000
     27497      9166  TIP3      H1             23.2970396015        9.8925042534       22.4810553365  WZ4       2608            0.0000000000
     27498      9166  TIP3      H2             22.7973996015        8.5081942534       22.8359153365  WZ4       2608            0.0000000000
     27499      9167  TIP3      OH2            22.2211196015       13.9888242534       21.9847453365  WZ4       2610            0.0000000000
     27500      9167  TIP3      H1             21.2711696015       14.0945642534       22.0360753365  WZ4       2610            0.0000000000
     27501      9167  TIP3      H2             22.5729296015       14.8095642534       22.3294953365  WZ4       2610            0.0000000000
     27502      9168  TIP3      OH2            29.7996696015       10.1445442534       17.5290953365  WZ4       2612            0.0000000000
     27503      9168  TIP3      H1             30.1529796015        9.7645242534       18.3334453365  WZ4       2612            0.0000000000
     27504      9168  TIP3      H2             28.8510196015       10.0510242534       17.6160253365  WZ4       2612            0.0000000000
     27505      9169  TIP3      OH2            34.3031096015       14.6237942534       17.7301153365  WZ4       2614            0.0000000000
     27506      9169  TIP3      H1             35.0468996015       15.2098442534       17.5902753365  WZ4       2614            0.0000000000
     27507      9169  TIP3      H2             33.6089196015       15.1923742534       18.0633553365  WZ4       2614            0.0000000000
     27508      9170  TIP3      OH2            18.3777896015        1.0002142534       30.3319353365  WZ4       2615            0.0000000000
     27509      9170  TIP3      H1             17.4850196015        1.3387542534       30.2643353365  WZ4       2615            0.0000000000
     27510      9170  TIP3      H2             18.2790696015        0.1448242534       30.7500153365  WZ4       2615            0.0000000000
     27511      9171  TIP3      OH2            30.6655996015        8.8167442534       19.7558853365  WZ4       2616            0.0000000000
     27512      9171  TIP3      H1             30.3883596015        8.0886742534       20.3119953365  WZ4       2616            0.0000000000
     27513      9171  TIP3      H2             31.5928996015        8.9359442534       19.9611453365  WZ4       2616            0.0000000000
     27514      9172  TIP3      OH2            18.0289896015       12.8046542534       28.7668753365  WZ4       2617            0.0000000000
     27515      9172  TIP3      H1             18.2460196015       11.8728942534       28.7358453365  WZ4       2617            0.0000000000
     27516      9172  TIP3      H2             18.2753396015       13.0791542534       29.6501553365  WZ4       2617            0.0000000000
     27517      9173  TIP3      OH2            23.8904496015       11.2561542534       15.9760953365  WZ4       2618            0.0000000000
     27518      9173  TIP3      H1             24.1294296015       10.5079642534       15.4289853365  WZ4       2618            0.0000000000
     27519      9173  TIP3      H2             23.6215796015       10.8683242534       16.8088753365  WZ4       2618            0.0000000000
     27520      9174  TIP3      OH2            22.8275096015       10.8265342534       18.4323553365  WZ4       2619            0.0000000000
     27521      9174  TIP3      H1             22.9743096015       10.3065142534       19.2224453365  WZ4       2619            0.0000000000
     27522      9174  TIP3      H2             22.8246796015       11.7332942534       18.7389453365  WZ4       2619            0.0000000000
     27523      9175  TIP3      OH2            19.2806196015        8.0788642534       18.9428953365  WZ4       2620            0.0000000000
     27524      9175  TIP3      H1             18.5945496015        8.4311142534       19.5098653365  WZ4       2620            0.0000000000
     27525      9175  TIP3      H2             19.8034096015        8.8418242534       18.6963253365  WZ4       2620            0.0000000000
     27526      9176  TIP3      OH2            27.8966196015        0.3934142534       20.3190253365  WZ4       2622            0.0000000000
     27527      9176  TIP3      H1             28.1164496015        0.8649542534       19.5155653365  WZ4       2622            0.0000000000
     27528      9176  TIP3      H2             28.4550196015        0.7876742534       20.9890853365  WZ4       2622            0.0000000000
     27529      9177  TIP3      OH2            25.5652296015       12.5238942534       19.1817753365  WZ4       2623            0.0000000000
     27530      9177  TIP3      H1             24.7488396015       13.0208642534       19.2342053365  WZ4       2623            0.0000000000
     27531      9177  TIP3      H2             26.0948596015       12.9992442534       18.5416553365  WZ4       2623            0.0000000000
     27532      9178  TIP3      OH2            25.0966096015        2.1212942534       21.1538653365  WZ4       2624            0.0000000000
     27533      9178  TIP3      H1             25.9088696015        2.6256142534       21.2000353365  WZ4       2624            0.0000000000
     27534      9178  TIP3      H2             24.8519096015        1.9762642534       22.0678253365  WZ4       2624            0.0000000000
     27535      9179  TIP3      OH2            25.9802796015       -0.7974057466       22.0919753365  WZ4       2626            0.0000000000
     27536      9179  TIP3      H1             25.6336296015       -0.1803457466       22.7364053365  WZ4       2626            0.0000000000
     27537      9179  TIP3      H2             26.6389696015       -0.2968357466       21.6105253365  WZ4       2626            0.0000000000
     27538      9180  TIP3      OH2            22.9035396015       13.5676142534       19.1634653365  WZ4       2627            0.0000000000
     27539      9180  TIP3      H1             23.0644096015       14.3673642534       18.6627253365  WZ4       2627            0.0000000000
     27540      9180  TIP3      H2             22.7063196015       13.8742142534       20.0485253365  WZ4       2627            0.0000000000
     27541      9181  TIP3      OH2            21.6379796015        0.2655342534       18.7792253365  WZ4       2628            0.0000000000
     27542      9181  TIP3      H1             21.5544596015        1.1538442534       19.1258653365  WZ4       2628            0.0000000000
     27543      9181  TIP3      H2             22.5280096015        0.0002042534       19.0109053365  WZ4       2628            0.0000000000
     27544      9182  TIP3      OH2            30.4389296015        4.7646942534       25.2692253365  WZ4       2630            0.0000000000
     27545      9182  TIP3      H1             29.6413696015        4.3497142534       24.9407253365  WZ4       2630            0.0000000000
     27546      9182  TIP3      H2             30.8840396015        4.0740642534       25.7602753365  WZ4       2630            0.0000000000
     27547      9183  TIP3      OH2            19.8965096015       10.6927542534       17.8396753365  WZ4       2631            0.0000000000
     27548      9183  TIP3      H1             20.4886596015       11.3922342534       18.1159153365  WZ4       2631            0.0000000000
     27549      9183  TIP3      H2             20.3558096015       10.2597042534       17.1201353365  WZ4       2631            0.0000000000
     27550      9184  TIP3      OH2            18.2124296015        3.3570542534       16.9556153365  WZ4       2632            0.0000000000
     27551      9184  TIP3      H1             18.1676896015        4.2963642534       17.1343153365  WZ4       2632            0.0000000000
     27552      9184  TIP3      H2             17.3247496015        3.1215442534       16.6858253365  WZ4       2632            0.0000000000
     27553      9185  TIP3      OH2            19.0206296015       -1.8612857466       25.6287153365  WZ4       2634            0.0000000000
     27554      9185  TIP3      H1             18.7916096015       -1.8020357466       24.7012153365  WZ4       2634            0.0000000000
     27555      9185  TIP3      H2             18.5779696015       -2.6527357466       25.9351253365  WZ4       2634            0.0000000000
     27556      9186  TIP3      OH2            17.9509596015       12.0794242534       21.7892953365  WZ4       2635            0.0000000000
     27557      9186  TIP3      H1             17.1188196015       12.5516942534       21.8164353365  WZ4       2635            0.0000000000
     27558      9186  TIP3      H2             18.4967896015       12.5891842534       21.1906053365  WZ4       2635            0.0000000000
     27559      9187  TIP3      OH2            25.9286296015       13.1192942534       16.1146953365  WZ4       2638            0.0000000000
     27560      9187  TIP3      H1             25.2847296015       12.4881542534       16.4360653365  WZ4       2638            0.0000000000
     27561      9187  TIP3      H2             26.6904596015       12.5880942534       15.8830453365  WZ4       2638            0.0000000000
     27562      9188  TIP3      OH2            30.5329196015       12.9362842534       16.3484953365  WZ4       2640            0.0000000000
     27563      9188  TIP3      H1             30.8159596015       12.1418042534       16.8011853365  WZ4       2640            0.0000000000
     27564      9188  TIP3      H2             31.2727096015       13.1693842534       15.7876053365  WZ4       2640            0.0000000000
     27565      9189  TIP3      OH2            21.4876496015        8.8457742534       16.2059853365  WZ4       2642            0.0000000000
     27566      9189  TIP3      H1             21.5520596015        8.0517342534       16.7366253365  WZ4       2642            0.0000000000
     27567      9189  TIP3      H2             22.1405696015        8.7270542534       15.5161853365  WZ4       2642            0.0000000000
     27568      9190  TIP3      OH2            26.8399896015        9.8929442534       15.9417853365  WZ4       2644            0.0000000000
     27569      9190  TIP3      H1             26.5713996015       10.0731542534       16.8426753365  WZ4       2644            0.0000000000
     27570      9190  TIP3      H2             26.6335496015        8.9675642534       15.8103653365  WZ4       2644            0.0000000000
     27571      9191  TIP3      OH2            22.6370296015        6.8183942534       18.5117853365  WZ4       2647            0.0000000000
     27572      9191  TIP3      H1             22.1772296015        6.3342242534       19.1976353365  WZ4       2647            0.0000000000
     27573      9191  TIP3      H2             22.8918996015        6.1499342534       17.8758353365  WZ4       2647            0.0000000000
     27574      9192  TIP3      OH2            21.9259596015        4.7111042534       30.8677453365  WZ4       2648            0.0000000000
     27575      9192  TIP3      H1             21.3075696015        5.3857642534       31.1482153365  WZ4       2648            0.0000000000
     27576      9192  TIP3      H2             22.2700796015        5.0324942534       30.0343653365  WZ4       2648            0.0000000000
     27577      9193  TIP3      OH2            23.7080696015        5.0615742534       16.7741053365  WZ4       2649            0.0000000000
     27578      9193  TIP3      H1             23.5275696015        4.9066942534       15.8469353365  WZ4       2649            0.0000000000
     27579      9193  TIP3      H2             24.6581196015        5.1694442534       16.8188953365  WZ4       2649            0.0000000000
     27580      9194  TIP3      OH2            33.0978996015        7.4159942534       16.2199153365  WZ4       2651            0.0000000000
     27581      9194  TIP3      H1             32.8243796015        6.9915442534       15.4067453365  WZ4       2651            0.0000000000
     27582      9194  TIP3      H2             33.1373096015        8.3474442534       16.0029553365  WZ4       2651            0.0000000000
     27583      9195  TIP3      OH2            22.2653296015        2.0661842534       31.9500553365  WZ4       2652            0.0000000000
     27584      9195  TIP3      H1             22.4154196015        1.3373142534       31.3480253365  WZ4       2652            0.0000000000
     27585      9195  TIP3      H2             22.2675696015        2.8433542534       31.3912753365  WZ4       2652            0.0000000000
     27586      9196  TIP3      OH2            22.6778996015        0.4357642534       29.4427953365  WZ4       2653            0.0000000000
     27587      9196  TIP3      H1             23.2136496015        0.8874342534       28.7907253365  WZ4       2653            0.0000000000
     27588      9196  TIP3      H2             21.8258596015        0.3277442534       29.0202053365  WZ4       2653            0.0000000000
     27589      9197  TIP3      OH2            23.4834496015       -2.1076657466       29.8741553365  WZ4       2658            0.0000000000
     27590      9197  TIP3      H1             23.3854096015       -1.1613457466       29.7687753365  WZ4       2658            0.0000000000
     27591      9197  TIP3      H2             22.7410696015       -2.4802857466       29.3985053365  WZ4       2658            0.0000000000
     27592      9198  TIP3      OH2            18.9242396015        1.1849142534       33.5660853365  WZ4       2662            0.0000000000
     27593      9198  TIP3      H1             19.1359796015        0.4785242534       32.9558353365  WZ4       2662            0.0000000000
     27594      9198  TIP3      H2             18.8129896015        0.7475142534       34.4102053365  WZ4       2662            0.0000000000
     27595      9199  TIP3      OH2            23.7052596015       -2.8139257466       32.5454353365  WZ4       2663            0.0000000000
     27596      9199  TIP3      H1             24.4170996015       -3.4537057466       32.5313453365  WZ4       2663            0.0000000000
     27597      9199  TIP3      H2             23.6042996015       -2.5470957466       31.6317453365  WZ4       2663            0.0000000000
     27598      9200  TIP3      OH2            23.6052396015       15.7519442534       17.7754653365  WZ4       2665            0.0000000000
     27599      9200  TIP3      H1             24.5383096015       15.9098142534       17.9193053365  WZ4       2665            0.0000000000
     27600      9200  TIP3      H2             23.3411196015       16.4272442534       17.1506153365  WZ4       2665            0.0000000000
     27601      9201  TIP3      OH2            17.1737296015       10.3883242534       17.2582753365  WZ4       2666            0.0000000000
     27602      9201  TIP3      H1             18.0876496015       10.4672142534       17.5316653365  WZ4       2666            0.0000000000
     27603      9201  TIP3      H2             17.1810396015        9.7012842534       16.5918353365  WZ4       2666            0.0000000000
     27604      9202  TIP3      OH2            15.8227896015       15.7811742534       22.3356653365  WZ4       2667            0.0000000000
     27605      9202  TIP3      H1             15.1754996015       15.3193442534       21.8027853365  WZ4       2667            0.0000000000
     27606      9202  TIP3      H2             16.1772496015       15.1095042534       22.9182853365  WZ4       2667            0.0000000000
     27607      9203  TIP3      OH2            16.6927096015       13.8618742534       24.1402853365  WZ4       2668            0.0000000000
     27608      9203  TIP3      H1             16.3583896015       12.9816042534       24.3123053365  WZ4       2668            0.0000000000
     27609      9203  TIP3      H2             16.9149496015       14.2073742534       25.0048453365  WZ4       2668            0.0000000000
     27610      9204  TIP3      OH2            33.5561796015        8.2848042534       20.1949553365  WZ4       2672            0.0000000000
     27611      9204  TIP3      H1             34.4063196015        8.7058942534       20.3221153365  WZ4       2672            0.0000000000
     27612      9204  TIP3      H2             33.5616896015        7.5448142534       20.8020953365  WZ4       2672            0.0000000000
     27613      9205  TIP3      OH2            33.9507396015        6.3385442534       22.0185253365  WZ4       2673            0.0000000000
     27614      9205  TIP3      H1             33.2241996015        5.8588042534       22.4162853365  WZ4       2673            0.0000000000
     27615      9205  TIP3      H2             34.5320696015        6.5440142534       22.7506853365  WZ4       2673            0.0000000000
     27616      9206  TIP3      OH2            34.2190496015        6.2393942534       18.4096553365  WZ4       2676            0.0000000000
     27617      9206  TIP3      H1             33.6971596015        6.5958042534       17.6907453365  WZ4       2676            0.0000000000
     27618      9206  TIP3      H2             34.1859696015        6.9141742534       19.0877453365  WZ4       2676            0.0000000000
     27619      9207  TIP3      OH2            32.5679496015        3.4789542534       16.9603653365  WZ4       2677            0.0000000000
     27620      9207  TIP3      H1             32.6643896015        4.1456542534       16.2803353365  WZ4       2677            0.0000000000
     27621      9207  TIP3      H2             32.4279096015        2.6635842534       16.4789153365  WZ4       2677            0.0000000000
     27622      9208  TIP3      OH2            31.7374196015        4.8591942534       22.5813953365  WZ4       2678            0.0000000000
     27623      9208  TIP3      H1             31.5872996015        3.9140542534       22.5611753365  WZ4       2678            0.0000000000
     27624      9208  TIP3      H2             31.3838696015        5.1403342534       23.4253053365  WZ4       2678            0.0000000000
     27625      9209  TIP3      OH2            16.7726596015        6.9374142534       26.5917753365  WZ4       2679            0.0000000000
     27626      9209  TIP3      H1             16.9569496015        6.8555842534       25.6560653365  WZ4       2679            0.0000000000
     27627      9209  TIP3      H2             17.6219496015        6.8131142534       27.0154153365  WZ4       2679            0.0000000000
     27628      9210  TIP3      OH2            31.8153296015        0.8869342534       16.0779153365  WZ4       2682            0.0000000000
     27629      9210  TIP3      H1             32.4259096015        0.5156142534       16.7147353365  WZ4       2682            0.0000000000
     27630      9210  TIP3      H2             30.9784796015        0.4656242534       16.2739153365  WZ4       2682            0.0000000000
     27631      9211  TIP3      OH2            31.4478996015        2.4417742534       21.0439053365  WZ4       2683            0.0000000000
     27632      9211  TIP3      H1             31.7276096015        1.5348142534       21.1680753365  WZ4       2683            0.0000000000
     27633      9211  TIP3      H2             32.2070696015        2.8759242534       20.6548253365  WZ4       2683            0.0000000000
     27634      9212  TIP3      OH2            16.3701396015        2.2079142534       32.7326553365  WZ4       2686            0.0000000000
     27635      9212  TIP3      H1             17.2896296015        2.0857442534       32.9689653365  WZ4       2686            0.0000000000
     27636      9212  TIP3      H2             15.9205896015        1.4578842534       33.1220053365  WZ4       2686            0.0000000000
     27637      9213  TIP3      OH2            32.0613796015       -0.2952957466       21.0921053365  WZ4       2688            0.0000000000
     27638      9213  TIP3      H1             32.2438796015       -0.7441457466       21.9176053365  WZ4       2688            0.0000000000
     27639      9213  TIP3      H2             31.4616696015       -0.8798557466       20.6285653365  WZ4       2688            0.0000000000
     27640      9214  TIP3      OH2            17.5913896015        0.5200742534       25.6239453365  WZ4       2689            0.0000000000
     27641      9214  TIP3      H1             18.0365496015       -0.2716757466       25.9259153365  WZ4       2689            0.0000000000
     27642      9214  TIP3      H2             18.0576896015        1.2365942534       26.0545053365  WZ4       2689            0.0000000000
     27643      9215  TIP3      OH2            15.8954196015        3.5193742534       26.6929653365  WZ4       2690            0.0000000000
     27644      9215  TIP3      H1             16.3873996015        3.2984242534       25.9021653365  WZ4       2690            0.0000000000
     27645      9215  TIP3      H2             16.2575096015        4.3597142534       26.9739153365  WZ4       2690            0.0000000000
     27646      9216  TIP3      OH2            33.9279996015       -0.2274857466       17.6201353365  WZ4       2692            0.0000000000
     27647      9216  TIP3      H1             34.3402596015       -0.9489157466       17.1449353365  WZ4       2692            0.0000000000
     27648      9216  TIP3      H2             34.6096496015        0.4419742534       17.6785653365  WZ4       2692            0.0000000000
     27649      9217  TIP3      OH2            16.2090696015       -0.2227157466       20.7472053365  WZ4       2693            0.0000000000
     27650      9217  TIP3      H1             15.2839096015       -0.0140557466       20.6177553365  WZ4       2693            0.0000000000
     27651      9217  TIP3      H2             16.6630596015        0.2613642534       20.0574353365  WZ4       2693            0.0000000000
     27652      9218  TIP3      OH2            16.1726096015       -1.4848157466       29.0914553365  WZ4       2695            0.0000000000
     27653      9218  TIP3      H1             15.5076596015       -1.7307857466       29.7345453365  WZ4       2695            0.0000000000
     27654      9218  TIP3      H2             15.7297396015       -0.8627757466       28.5142553365  WZ4       2695            0.0000000000
     27655      9219  TIP3      OH2            18.1353096015       14.5443542534       26.4521453365  WZ4       2706            0.0000000000
     27656      9219  TIP3      H1             18.1169096015       14.1188642534       27.3093753365  WZ4       2706            0.0000000000
     27657      9219  TIP3      H2             18.9400996015       14.2258542534       26.0433653365  WZ4       2706            0.0000000000
     27658      9220  TIP3      OH2            20.2766196015       13.2542242534       25.1071353365  WZ4       2707            0.0000000000
     27659      9220  TIP3      H1             20.0576896015       12.3379642534       25.2767353365  WZ4       2707            0.0000000000
     27660      9220  TIP3      H2             21.1008396015       13.3942642534       25.5732753365  WZ4       2707            0.0000000000
     27661      9221  TIP3      OH2            22.8138696015       13.7241542534       25.9559353365  WZ4       2708            0.0000000000
     27662      9221  TIP3      H1             23.0264396015       12.8360542534       25.6690253365  WZ4       2708            0.0000000000
     27663      9221  TIP3      H2             22.8783796015       13.6899242534       26.9103353365  WZ4       2708            0.0000000000
     27664      9222  TIP3      OH2            26.3222396015       -0.6117857466       25.1002653365  WZ4       2709            0.0000000000
     27665      9222  TIP3      H1             25.6479196015       -1.2412257466       25.3558453365  WZ4       2709            0.0000000000
     27666      9222  TIP3      H2             26.8861596015       -1.0958957466       24.4970553365  WZ4       2709            0.0000000000
     27667      9223  TIP3      OH2            31.4649596015       -2.5043857466       25.2129753365  WZ4       2710            0.0000000000
     27668      9223  TIP3      H1             32.0687196015       -1.9568457466       24.7110753365  WZ4       2710            0.0000000000
     27669      9223  TIP3      H2             30.5951596015       -2.1853457466       24.9723853365  WZ4       2710            0.0000000000
     27670      9224  TIP3      OH2            33.1919996015       -1.3655157466       23.5460653365  WZ4       2711            0.0000000000
     27671      9224  TIP3      H1             33.8037496015       -1.8799457466       23.0194253365  WZ4       2711            0.0000000000
     27672      9224  TIP3      H2             33.5743396015       -0.4883057466       23.5695053365  WZ4       2711            0.0000000000
     27673      9225  TIP3      OH2            18.6489896015       -1.9777557466       22.9222553365  WZ4       2712            0.0000000000
     27674      9225  TIP3      H1             17.8719696015       -2.2122657466       22.4148453365  WZ4       2712            0.0000000000
     27675      9225  TIP3      H2             19.1793496015       -2.7745457466       22.9310553365  WZ4       2712            0.0000000000
     27676      9226  TIP3      OH2            17.4853296015       -2.1799457466       18.7258653365  WZ4       2713            0.0000000000
     27677      9226  TIP3      H1             17.9243996015       -1.5688957466       18.1342153365  WZ4       2713            0.0000000000
     27678      9226  TIP3      H2             16.8515696015       -1.6415357466       19.1998653365  WZ4       2713            0.0000000000
     27679      9227  TIP3      OH2            23.2282496015       -2.0510457466       22.7355653365  WZ4       2714            0.0000000000
     27680      9227  TIP3      H1             24.1025896015       -1.6626157466       22.7059953365  WZ4       2714            0.0000000000
     27681      9227  TIP3      H2             23.0923296015       -2.2662657466       23.6582853365  WZ4       2714            0.0000000000
     27682      9228  TIP3      OH2            28.7850896015       -2.0210657466       24.3847353365  WZ4       2715            0.0000000000
     27683      9228  TIP3      H1             28.8612496015       -1.9259057466       23.4353353365  WZ4       2715            0.0000000000
     27684      9228  TIP3      H2             28.5100096015       -2.9287757466       24.5136453365  WZ4       2715            0.0000000000
     27685      9229  TIP3      OH2            30.1383496015       -1.9952857466       20.0772353365  WZ4       2716            0.0000000000
     27686      9229  TIP3      H1             29.4354596015       -1.3803657466       19.8673753365  WZ4       2716            0.0000000000
     27687      9229  TIP3      H2             29.6934896015       -2.8326157466       20.2083253365  WZ4       2716            0.0000000000
     27688      9230  TIP3      OH2            17.3862796015       13.7682742534       19.6233753365  WZ4       2717            0.0000000000
     27689      9230  TIP3      H1             16.7012696015       13.7301642534       18.9558853365  WZ4       2717            0.0000000000
     27690      9230  TIP3      H2             17.3899996015       14.6810342534       19.9115853365  WZ4       2717            0.0000000000
     27691      9231  TIP3      OH2            19.3462396015       -0.2637957466       17.1682753365  WZ4       2718            0.0000000000
     27692      9231  TIP3      H1             19.8375796015       -0.8935557466       16.6408253365  WZ4       2718            0.0000000000
     27693      9231  TIP3      H2             19.9698696015        0.0321442534       17.8313953365  WZ4       2718            0.0000000000
     27694      9232  TIP3      OH2            24.3722496015        0.0293542534       19.6253253365  WZ4       2719            0.0000000000
     27695      9232  TIP3      H1             24.5503796015       -0.6173257466       20.3081853365  WZ4       2719            0.0000000000
     27696      9232  TIP3      H2             24.3188696015        0.8631242534       20.0924353365  WZ4       2719            0.0000000000
     27697      9233  TIP3      OH2            26.2506296015       14.9777642534       18.0209953365  WZ4       2720            0.0000000000
     27698      9233  TIP3      H1             27.1166496015       15.3445042534       17.8428153365  WZ4       2720            0.0000000000
     27699      9233  TIP3      H2             26.0039096015       14.5385642534       17.2070753365  WZ4       2720            0.0000000000
     27700      9234  TIP3      OH2            32.9595896015       14.5407942534       20.7001053365  WZ4       2721            0.0000000000
     27701      9234  TIP3      H1             32.7652996015       13.7930042534       20.1350653365  WZ4       2721            0.0000000000
     27702      9234  TIP3      H2             32.9205996015       15.2988042534       20.1168953365  WZ4       2721            0.0000000000
     27703      9235  TIP3      OH2            18.6067896015       -1.4635657466       32.4398753365  WZ4       2722            0.0000000000
     27704      9235  TIP3      H1             18.2406096015       -2.2293057466       32.8823453365  WZ4       2722            0.0000000000
     27705      9235  TIP3      H2             19.5196396015       -1.4345457466       32.7263853365  WZ4       2722            0.0000000000
     27706      9236  TIP3      OH2            20.5798696015       -2.1131257466       33.9755853365  WZ4       2723            0.0000000000
     27707      9236  TIP3      H1             21.4782296015       -2.3871057466       33.7909253365  WZ4       2723            0.0000000000
     27708      9236  TIP3      H2             20.1931796015       -2.8555257466       34.4398453365  WZ4       2723            0.0000000000
     27709      9237  TIP3      OH2            19.2043996015       14.6883542534       16.6485853365  WZ4       2724            0.0000000000
     27710      9237  TIP3      H1             18.9368596015       14.9746442534       17.5218953365  WZ4       2724            0.0000000000
     27711      9237  TIP3      H2             19.9756596015       14.1422742534       16.8008353365  WZ4       2724            0.0000000000
     27712      9238  TIP3      OH2            35.4182396015        4.1579042534       21.8206053365  WZ4       2729            0.0000000000
     27713      9238  TIP3      H1             34.9705796015        5.0037742534       21.8022553365  WZ4       2729            0.0000000000
     27714      9238  TIP3      H2             34.8573596015        3.5783242534       21.3051153365  WZ4       2729            0.0000000000
     27715      9239  TIP3      OH2            36.1091996015        9.5900642534       20.2364153365  WZ4       2736            0.0000000000
     27716      9239  TIP3      H1             35.8372896015        9.8191642534       19.3477053365  WZ4       2736            0.0000000000
     27717      9239  TIP3      H2             36.1547696015       10.4279442534       20.6969453365  WZ4       2736            0.0000000000
     27718      9240  TIP3      OH2            34.7559096015        0.8903442534       23.4227753365  WZ4       2749            0.0000000000
     27719      9240  TIP3      H1             35.3866796015        0.8615542534       24.1421653365  WZ4       2749            0.0000000000
     27720      9240  TIP3      H2             35.2053396015        0.4652142534       22.6923653365  WZ4       2749            0.0000000000
     27721      9241  TIP3      OH2            36.0301196015        1.6365442534       18.8468153365  WZ4       2750            0.0000000000
     27722      9241  TIP3      H1             36.5042896015        2.2275342534       18.2619053365  WZ4       2750            0.0000000000
     27723      9241  TIP3      H2             35.3127596015        2.1668342534       19.1938253365  WZ4       2750            0.0000000000
     27724      9242  TIP3      OH2            37.8045596015        2.7312042534       22.5302753365  WZ4       2751            0.0000000000
     27725      9242  TIP3      H1             36.9153596015        2.8307542534       22.1902353365  WZ4       2751            0.0000000000
     27726      9242  TIP3      H2             38.1010496015        1.8895042534       22.1840653365  WZ4       2751            0.0000000000
     27727      9243  TIP3      OH2            40.1317596015        3.9256842534       17.7533453365  WZ4       2752            0.0000000000
     27728      9243  TIP3      H1             39.5892696015        3.5460642534       17.0621053365  WZ4       2752            0.0000000000
     27729      9243  TIP3      H2             40.9652496015        4.1201542534       17.3247553365  WZ4       2752            0.0000000000
     27730      9244  TIP3      OH2            36.7215796015        6.1664842534       17.4503353365  WZ4       2757            0.0000000000
     27731      9244  TIP3      H1             37.3375696015        6.7932042534       17.8298153365  WZ4       2757            0.0000000000
     27732      9244  TIP3      H2             35.8598396015        6.4824642534       17.7219853365  WZ4       2757            0.0000000000
     27733      9245  TIP3      OH2            38.1366196015        8.0788642534       18.9428953365  WZ4       2760            0.0000000000
     27734      9245  TIP3      H1             37.4505496015        8.4311142534       19.5098653365  WZ4       2760            0.0000000000
     27735      9245  TIP3      H2             38.6594096015        8.8418242534       18.6963253365  WZ4       2760            0.0000000000
     27736      9246  TIP3      OH2            38.7525096015       10.6927542534       17.8396753365  WZ4       2762            0.0000000000
     27737      9246  TIP3      H1             39.3446596015       11.3922342534       18.1159153365  WZ4       2762            0.0000000000
     27738      9246  TIP3      H2             39.2118096015       10.2597042534       17.1201353365  WZ4       2762            0.0000000000
     27739      9247  TIP3      OH2            37.0684296015        3.3570542534       16.9556153365  WZ4       2763            0.0000000000
     27740      9247  TIP3      H1             37.0236896015        4.2963642534       17.1343153365  WZ4       2763            0.0000000000
     27741      9247  TIP3      H2             36.1807496015        3.1215442534       16.6858253365  WZ4       2763            0.0000000000
     27742      9248  TIP3      OH2            40.3436496015        8.8457742534       16.2059853365  WZ4       2768            0.0000000000
     27743      9248  TIP3      H1             40.4080596015        8.0517342534       16.7366253365  WZ4       2768            0.0000000000
     27744      9248  TIP3      H2             40.9965696015        8.7270542534       15.5161853365  WZ4       2768            0.0000000000
     27745      9249  TIP3      OH2            36.0297296015       10.3883242534       17.2582753365  WZ4       2772            0.0000000000
     27746      9249  TIP3      H1             36.9436496015       10.4672142534       17.5316653365  WZ4       2772            0.0000000000
     27747      9249  TIP3      H2             36.0370396015        9.7012842534       16.5918353365  WZ4       2772            0.0000000000
     27748      9250  TIP3      OH2            35.0650696015       -0.2227157466       20.7472053365  WZ4       2779            0.0000000000
     27749      9250  TIP3      H1             34.1399096015       -0.0140557466       20.6177553365  WZ4       2779            0.0000000000
     27750      9250  TIP3      H2             35.5190596015        0.2613642534       20.0574353365  WZ4       2779            0.0000000000
     27751      9251  TIP3      OH2            37.5049896015       -1.9777557466       22.9222553365  WZ4       2787            0.0000000000
     27752      9251  TIP3      H1             36.7279696015       -2.2122657466       22.4148453365  WZ4       2787            0.0000000000
     27753      9251  TIP3      H2             38.0353496015       -2.7745457466       22.9310553365  WZ4       2787            0.0000000000
     27754      9252  TIP3      OH2            36.3413296015       -2.1799457466       18.7258653365  WZ4       2788            0.0000000000
     27755      9252  TIP3      H1             36.7803996015       -1.5688957466       18.1342153365  WZ4       2788            0.0000000000
     27756      9252  TIP3      H2             35.7075696015       -1.6415357466       19.1998653365  WZ4       2788            0.0000000000
     27757      9253  TIP3      OH2            38.2022396015       -0.2637957466       17.1682753365  WZ4       2790            0.0000000000
     27758      9253  TIP3      H1             38.6935796015       -0.8935557466       16.6408253365  WZ4       2790            0.0000000000
     27759      9253  TIP3      H2             38.8258696015        0.0321442534       17.8313953365  WZ4       2790            0.0000000000
     27760      9254  TIP3      OH2            38.0603996015       14.6883542534       16.6485853365  WZ4       2793            0.0000000000
     27761      9254  TIP3      H1             37.7928596015       14.9746442534       17.5218953365  WZ4       2793            0.0000000000
     27762      9254  TIP3      H2             38.8316596015       14.1422742534       16.8008353365  WZ4       2793            0.0000000000
     27763      9255  TIP3      OH2           -22.8552003985       19.3232142534       27.5665453365  WZ4       2803            0.0000000000
     27764      9255  TIP3      H1            -22.8059803985       19.9333342534       28.3024553365  WZ4       2803            0.0000000000
     27765      9255  TIP3      H2            -22.4296903985       19.7843042534       26.8436553365  WZ4       2803            0.0000000000
     27766      9256  TIP3      OH2           -27.5003803985       20.3481242534       22.7067153365  WZ4       2806            0.0000000000
     27767      9256  TIP3      H1            -26.8539503985       20.0194442534       23.3314753365  WZ4       2806            0.0000000000
     27768      9256  TIP3      H2            -26.9904403985       20.8660242534       22.0838553365  WZ4       2806            0.0000000000
     27769      9257  TIP3      OH2           -25.7365403985       19.6390542534       24.6873053365  WZ4       2813            0.0000000000
     27770      9257  TIP3      H1            -25.9517403985       18.8733942534       25.2199053365  WZ4       2813            0.0000000000
     27771      9257  TIP3      H2            -25.0808003985       20.1115142534       25.2001553365  WZ4       2813            0.0000000000
     27772      9258  TIP3      OH2           -25.3891303985       18.3541842534       28.3666553365  WZ4       2818            0.0000000000
     27773      9258  TIP3      H1            -26.1252103985       18.9648942534       28.3287853365  WZ4       2818            0.0000000000
     27774      9258  TIP3      H2            -24.7057303985       18.7690842534       27.8402953365  WZ4       2818            0.0000000000
     27775      9259  TIP3      OH2           -32.3859903985       16.4409142534       25.8324553365  WZ4       2819            0.0000000000
     27776      9259  TIP3      H1            -32.5035703985       15.4925142534       25.7782853365  WZ4       2819            0.0000000000
     27777      9259  TIP3      H2            -33.2409803985       16.7735242534       26.1055653365  WZ4       2819            0.0000000000
     27778      9260  TIP3      OH2           -30.1195003985       25.2784742534       20.3330353365  WZ4       2823            0.0000000000
     27779      9260  TIP3      H1            -30.8309503985       25.8134442534       19.9810853365  WZ4       2823            0.0000000000
     27780      9260  TIP3      H2            -29.4285403985       25.3336842534       19.6729253365  WZ4       2823            0.0000000000
     27781      9261  TIP3      OH2           -30.0655803985       23.7359042534       17.3715353365  WZ4       2824            0.0000000000
     27782      9261  TIP3      H1            -29.3645903985       23.7585942534       18.0229353365  WZ4       2824            0.0000000000
     27783      9261  TIP3      H2            -29.7632903985       23.1078742534       16.7154653365  WZ4       2824            0.0000000000
     27784      9262  TIP3      OH2           -26.7137303985       25.4878042534       21.2846253365  WZ4       2826            0.0000000000
     27785      9262  TIP3      H1            -27.4456303985       25.7161742534       21.8576853365  WZ4       2826            0.0000000000
     27786      9262  TIP3      H2            -26.2665103985       24.7740742534       21.7393753365  WZ4       2826            0.0000000000
     27787      9263  TIP3      OH2           -27.8427803985       24.6500942534       18.9697453365  WZ4       2833            0.0000000000
     27788      9263  TIP3      H1            -27.2632303985       24.8001242534       19.7166353365  WZ4       2833            0.0000000000
     27789      9263  TIP3      H2            -27.4287803985       25.1208342534       18.2463853365  WZ4       2833            0.0000000000
     27790      9264  TIP3      OH2           -24.1439403985       16.4001342534       18.7827153365  WZ4       2837            0.0000000000
     27791      9264  TIP3      H1            -25.0438703985       16.5390342534       19.0777753365  WZ4       2837            0.0000000000
     27792      9264  TIP3      H2            -23.8921003985       17.2315942534       18.3808853365  WZ4       2837            0.0000000000
     27793      9265  TIP3      OH2           -22.9548003985       30.7663742534       17.1591053365  WZ4       2839            0.0000000000
     27794      9265  TIP3      H1            -22.8814503985       31.7053942534       17.3296353365  WZ4       2839            0.0000000000
     27795      9265  TIP3      H2            -22.0492903985       30.4612342534       17.1028353365  WZ4       2839            0.0000000000
     27796      9266  TIP3      OH2           -26.3654703985       25.6829242534       16.5995353365  WZ4       2853            0.0000000000
     27797      9266  TIP3      H1            -26.3233903985       25.4603142534       15.6695353365  WZ4       2853            0.0000000000
     27798      9266  TIP3      H2            -25.5162603985       26.0816342534       16.7895253365  WZ4       2853            0.0000000000
     27799      9267  TIP3      OH2           -30.7927203985       19.5587442534       17.2698653365  WZ4       2854            0.0000000000
     27800      9267  TIP3      H1            -31.0462403985       19.5779042534       18.1926753365  WZ4       2854            0.0000000000
     27801      9267  TIP3      H2            -31.0495103985       18.6872842534       16.9684853365  WZ4       2854            0.0000000000
     27802      9268  TIP3      OH2           -29.4937603985       22.9468542534       21.4341853365  WZ4       2857            0.0000000000
     27803      9268  TIP3      H1            -29.9027303985       23.7617142534       21.1426653365  WZ4       2857            0.0000000000
     27804      9268  TIP3      H2            -28.7731403985       22.8068642534       20.8198953365  WZ4       2857            0.0000000000
     27805      9269  TIP3      OH2           -28.4889903985       22.3928942534       24.2481553365  WZ4       2859            0.0000000000
     27806      9269  TIP3      H1            -28.6845403985       22.9985742534       23.5332153365  WZ4       2859            0.0000000000
     27807      9269  TIP3      H2            -28.3077303985       21.5594142534       23.8137853365  WZ4       2859            0.0000000000
     27808      9270  TIP3      OH2           -28.0425903985       19.1932042534       26.9676953365  WZ4       2868            0.0000000000
     27809      9270  TIP3      H1            -28.7194303985       19.3245142534       27.6316653365  WZ4       2868            0.0000000000
     27810      9270  TIP3      H2            -28.5281003985       19.0381542534       26.1574653365  WZ4       2868            0.0000000000
     27811      9271  TIP3      OH2           -28.0592803985       20.1612442534       17.8884153365  WZ4       2877            0.0000000000
     27812      9271  TIP3      H1            -28.9978603985       20.2728042534       17.7372953365  WZ4       2877            0.0000000000
     27813      9271  TIP3      H2            -27.7620703985       21.0179342534       18.1949853365  WZ4       2877            0.0000000000
     27814      9272  TIP3      OH2           -27.3409303985       22.0285142534       19.5491553365  WZ4       2879            0.0000000000
     27815      9272  TIP3      H1            -26.4490303985       21.8910142534       19.8682753365  WZ4       2879            0.0000000000
     27816      9272  TIP3      H2            -27.2845703985       22.8191242534       19.0125053365  WZ4       2879            0.0000000000
     27817      9273  TIP3      OH2           -22.4560603985       22.2379242534       19.2438253365  WZ4       2885            0.0000000000
     27818      9273  TIP3      H1            -23.0104303985       21.8417242534       18.5715753365  WZ4       2885            0.0000000000
     27819      9273  TIP3      H2            -22.3557003985       23.1484442534       18.9661553365  WZ4       2885            0.0000000000
     27820      9274  TIP3      OH2           -24.1608903985       31.0239642534       19.7090353365  WZ4       2887            0.0000000000
     27821      9274  TIP3      H1            -24.5337803985       30.1983442534       20.0180953365  WZ4       2887            0.0000000000
     27822      9274  TIP3      H2            -23.8835403985       30.8409042534       18.8113753365  WZ4       2887            0.0000000000
     27823      9275  TIP3      OH2           -26.7683303985       29.0005442534       17.5290953365  WZ4       2895            0.0000000000
     27824      9275  TIP3      H1            -26.4150203985       28.6205242534       18.3334453365  WZ4       2895            0.0000000000
     27825      9275  TIP3      H2            -27.7169803985       28.9070242534       17.6160253365  WZ4       2895            0.0000000000
     27826      9276  TIP3      OH2           -22.2648903985       33.4797942534       17.7301153365  WZ4       2897            0.0000000000
     27827      9276  TIP3      H1            -21.5211003985       34.0658442534       17.5902753365  WZ4       2897            0.0000000000
     27828      9276  TIP3      H2            -22.9590803985       34.0483742534       18.0633553365  WZ4       2897            0.0000000000
     27829      9277  TIP3      OH2           -25.9024003985       27.6727442534       19.7558853365  WZ4       2899            0.0000000000
     27830      9277  TIP3      H1            -26.1796403985       26.9446742534       20.3119953365  WZ4       2899            0.0000000000
     27831      9277  TIP3      H2            -24.9751003985       27.7919442534       19.9611453365  WZ4       2899            0.0000000000
     27832      9278  TIP3      OH2           -28.6713803985       19.2494142534       20.3190253365  WZ4       2905            0.0000000000
     27833      9278  TIP3      H1            -28.4515503985       19.7209542534       19.5155653365  WZ4       2905            0.0000000000
     27834      9278  TIP3      H2            -28.1129803985       19.6436742534       20.9890853365  WZ4       2905            0.0000000000
     27835      9279  TIP3      OH2           -31.4713903985       20.9772942534       21.1538653365  WZ4       2907            0.0000000000
     27836      9279  TIP3      H1            -30.6591303985       21.4816142534       21.2000353365  WZ4       2907            0.0000000000
     27837      9279  TIP3      H2            -31.7160903985       20.8322642534       22.0678253365  WZ4       2907            0.0000000000
     27838      9280  TIP3      OH2           -30.5877203985       18.0585942534       22.0919753365  WZ4       2909            0.0000000000
     27839      9280  TIP3      H1            -30.9343703985       18.6756542534       22.7364053365  WZ4       2909            0.0000000000
     27840      9280  TIP3      H2            -29.9290303985       18.5591642534       21.6105253365  WZ4       2909            0.0000000000
     27841      9281  TIP3      OH2           -26.1290703985       23.6206942534       25.2692253365  WZ4       2913            0.0000000000
     27842      9281  TIP3      H1            -26.9266303985       23.2057142534       24.9407253365  WZ4       2913            0.0000000000
     27843      9281  TIP3      H2            -25.6839603985       22.9300642534       25.7602753365  WZ4       2913            0.0000000000
     27844      9282  TIP3      OH2           -26.0350803985       31.7922842534       16.3484953365  WZ4       2923            0.0000000000
     27845      9282  TIP3      H1            -25.7520403985       30.9978042534       16.8011853365  WZ4       2923            0.0000000000
     27846      9282  TIP3      H2            -25.2952903985       32.0253842534       15.7876053365  WZ4       2923            0.0000000000
     27847      9283  TIP3      OH2           -23.4701003985       26.2719942534       16.2199153365  WZ4       2934            0.0000000000
     27848      9283  TIP3      H1            -23.7436203985       25.8475442534       15.4067453365  WZ4       2934            0.0000000000
     27849      9283  TIP3      H2            -23.4306903985       27.2034442534       16.0029553365  WZ4       2934            0.0000000000
     27850      9284  TIP3      OH2           -23.0118203985       27.1408042534       20.1949553365  WZ4       2955            0.0000000000
     27851      9284  TIP3      H1            -22.1616803985       27.5618942534       20.3221153365  WZ4       2955            0.0000000000
     27852      9284  TIP3      H2            -23.0063103985       26.4008142534       20.8020953365  WZ4       2955            0.0000000000
     27853      9285  TIP3      OH2           -22.6172603985       25.1945442534       22.0185253365  WZ4       2956            0.0000000000
     27854      9285  TIP3      H1            -23.3438003985       24.7148042534       22.4162853365  WZ4       2956            0.0000000000
     27855      9285  TIP3      H2            -22.0359303985       25.4000142534       22.7506853365  WZ4       2956            0.0000000000
     27856      9286  TIP3      OH2           -22.3489503985       25.0953942534       18.4096553365  WZ4       2959            0.0000000000
     27857      9286  TIP3      H1            -22.8708403985       25.4518042534       17.6907453365  WZ4       2959            0.0000000000
     27858      9286  TIP3      H2            -22.3820303985       25.7701742534       19.0877453365  WZ4       2959            0.0000000000
     27859      9287  TIP3      OH2           -24.0000503985       22.3349542534       16.9603653365  WZ4       2960            0.0000000000
     27860      9287  TIP3      H1            -23.9036103985       23.0016542534       16.2803353365  WZ4       2960            0.0000000000
     27861      9287  TIP3      H2            -24.1400903985       21.5195842534       16.4789153365  WZ4       2960            0.0000000000
     27862      9288  TIP3      OH2           -24.8305803985       23.7151942534       22.5813953365  WZ4       2961            0.0000000000
     27863      9288  TIP3      H1            -24.9807003985       22.7700542534       22.5611753365  WZ4       2961            0.0000000000
     27864      9288  TIP3      H2            -25.1841303985       23.9963342534       23.4253053365  WZ4       2961            0.0000000000
     27865      9289  TIP3      OH2           -24.7526703985       19.7429342534       16.0779153365  WZ4       2965            0.0000000000
     27866      9289  TIP3      H1            -24.1420903985       19.3716142534       16.7147353365  WZ4       2965            0.0000000000
     27867      9289  TIP3      H2            -25.5895203985       19.3216242534       16.2739153365  WZ4       2965            0.0000000000
     27868      9290  TIP3      OH2           -25.1201003985       21.2977742534       21.0439053365  WZ4       2966            0.0000000000
     27869      9290  TIP3      H1            -24.8403903985       20.3908142534       21.1680753365  WZ4       2966            0.0000000000
     27870      9290  TIP3      H2            -24.3609303985       21.7319242534       20.6548253365  WZ4       2966            0.0000000000
     27871      9291  TIP3      OH2           -24.5082703985       21.8795142534       26.4797953365  WZ4       2967            0.0000000000
     27872      9291  TIP3      H1            -23.5754703985       22.0915042534       26.4453953365  WZ4       2967            0.0000000000
     27873      9291  TIP3      H2            -24.7435203985       21.9807242534       27.4020953365  WZ4       2967            0.0000000000
     27874      9292  TIP3      OH2           -24.5066203985       18.5607042534       21.0921053365  WZ4       2971            0.0000000000
     27875      9292  TIP3      H1            -24.3241203985       18.1118542534       21.9176053365  WZ4       2971            0.0000000000
     27876      9292  TIP3      H2            -25.1063303985       17.9761442534       20.6285653365  WZ4       2971            0.0000000000
     27877      9293  TIP3      OH2           -22.6400003985       18.6285142534       17.6201353365  WZ4       2975            0.0000000000
     27878      9293  TIP3      H1            -22.2277403985       17.9070842534       17.1449353365  WZ4       2975            0.0000000000
     27879      9293  TIP3      H2            -21.9583503985       19.2979742534       17.6785653365  WZ4       2975            0.0000000000
     27880      9294  TIP3      OH2           -23.6756103985       16.7951542534       30.7774453365  WZ4       2983            0.0000000000
     27881      9294  TIP3      H1            -24.4882603985       17.1201842534       30.3899153365  WZ4       2983            0.0000000000
     27882      9294  TIP3      H2            -23.4427603985       16.0350042534       30.2443553365  WZ4       2983            0.0000000000
     27883      9295  TIP3      OH2           -30.2457603985       18.2442142534       25.1002653365  WZ4       2992            0.0000000000
     27884      9295  TIP3      H1            -30.9200803985       17.6147742534       25.3558453365  WZ4       2992            0.0000000000
     27885      9295  TIP3      H2            -29.6818403985       17.7601042534       24.4970553365  WZ4       2992            0.0000000000
     27886      9296  TIP3      OH2           -25.1030403985       16.3516142534       25.2129753365  WZ4       2993            0.0000000000
     27887      9296  TIP3      H1            -24.4992803985       16.8991542534       24.7110753365  WZ4       2993            0.0000000000
     27888      9296  TIP3      H2            -25.9728403985       16.6706542534       24.9723853365  WZ4       2993            0.0000000000
     27889      9297  TIP3      OH2           -23.3760003985       17.4904842534       23.5460653365  WZ4       2994            0.0000000000
     27890      9297  TIP3      H1            -22.7642503985       16.9760542534       23.0194253365  WZ4       2994            0.0000000000
     27891      9297  TIP3      H2            -22.9936603985       18.3676942534       23.5695053365  WZ4       2994            0.0000000000
     27892      9298  TIP3      OH2           -33.3397503985       16.8049542534       22.7355653365  WZ4       2997            0.0000000000
     27893      9298  TIP3      H1            -32.4654103985       17.1933842534       22.7059953365  WZ4       2997            0.0000000000
     27894      9298  TIP3      H2            -33.4756703985       16.5897342534       23.6582853365  WZ4       2997            0.0000000000
     27895      9299  TIP3      OH2           -27.7829103985       16.8349342534       24.3847353365  WZ4       2998            0.0000000000
     27896      9299  TIP3      H1            -27.7067503985       16.9300942534       23.4353353365  WZ4       2998            0.0000000000
     27897      9299  TIP3      H2            -28.0579903985       15.9272242534       24.5136453365  WZ4       2998            0.0000000000
     27898      9300  TIP3      OH2           -26.4296503985       16.8607142534       20.0772353365  WZ4       2999            0.0000000000
     27899      9300  TIP3      H1            -27.1325403985       17.4756342534       19.8673753365  WZ4       2999            0.0000000000
     27900      9300  TIP3      H2            -26.8745103985       16.0233842534       20.2083253365  WZ4       2999            0.0000000000
     27901      9301  TIP3      OH2           -32.1957503985       18.8853542534       19.6253253365  WZ4       3002            0.0000000000
     27902      9301  TIP3      H1            -32.0176203985       18.2386742534       20.3081853365  WZ4       3002            0.0000000000
     27903      9301  TIP3      H2            -32.2491303985       19.7191242534       20.0924353365  WZ4       3002            0.0000000000
     27904      9302  TIP3      OH2            -9.9847503985       26.0344742534       22.8810053365  WZ4       3010            0.0000000000
     27905      9302  TIP3      H1             -9.8956403985       26.9782942534       22.7487153365  WZ4       3010            0.0000000000
     27906      9302  TIP3      H2            -10.6229903985       25.7591142534       22.2229453365  WZ4       3010            0.0000000000
     27907      9303  TIP3      OH2           -11.0516203985       25.2895442534       26.2998253365  WZ4       3011            0.0000000000
     27908      9303  TIP3      H1            -11.0898703985       24.6431742534       27.0047853365  WZ4       3011            0.0000000000
     27909      9303  TIP3      H2            -11.3739703985       24.8229842534       25.5286953365  WZ4       3011            0.0000000000
     27910      9304  TIP3      OH2           -18.6831203985       24.9037542534       27.8928153365  WZ4       3012            0.0000000000
     27911      9304  TIP3      H1            -18.6419103985       24.2780842534       28.6160553365  WZ4       3012            0.0000000000
     27912      9304  TIP3      H2            -17.9803503985       25.5276142534       28.0748553365  WZ4       3012            0.0000000000
     27913      9305  TIP3      OH2            -7.3456003985       28.2285842534       24.6013353365  WZ4       3013            0.0000000000
     27914      9305  TIP3      H1             -7.7863303985       27.5081842534       25.0518953365  WZ4       3013            0.0000000000
     27915      9305  TIP3      H2             -7.3586303985       28.9493042534       25.2311053365  WZ4       3013            0.0000000000
     27916      9306  TIP3      OH2           -17.7598103985       29.3536442534       26.4277253365  WZ4       3014            0.0000000000
     27917      9306  TIP3      H1            -18.1292903985       28.5516942534       26.0581553365  WZ4       3014            0.0000000000
     27918      9306  TIP3      H2            -16.8187003985       29.1851342534       26.4740653365  WZ4       3014            0.0000000000
     27919      9307  TIP3      OH2           -21.1497603985       23.0139042534       21.8206053365  WZ4       3015            0.0000000000
     27920      9307  TIP3      H1            -21.5974203985       23.8597742534       21.8022553365  WZ4       3015            0.0000000000
     27921      9307  TIP3      H2            -21.7106403985       22.4343242534       21.3051153365  WZ4       3015            0.0000000000
     27922      9308  TIP3      OH2           -20.4391503985       25.1758642534       23.9464053365  WZ4       3016            0.0000000000
     27923      9308  TIP3      H1            -20.2258003985       24.4060242534       24.4737053365  WZ4       3016            0.0000000000
     27924      9308  TIP3      H2            -19.7013903985       25.2655342534       23.3431653365  WZ4       3016            0.0000000000
     27925      9309  TIP3      OH2           -10.2340503985       33.3327542534       24.8133753365  WZ4       3017            0.0000000000
     27926      9309  TIP3      H1             -9.6144103985       32.6562242534       24.5402953365  WZ4       3017            0.0000000000
     27927      9309  TIP3      H2            -10.4423103985       33.1148342534       25.7218653365  WZ4       3017            0.0000000000
     27928      9310  TIP3      OH2           -12.6621803985       27.7216842534       26.7059253365  WZ4       3018            0.0000000000
     27929      9310  TIP3      H1            -12.3583903985       27.0358242534       26.1113353365  WZ4       3018            0.0000000000
     27930      9310  TIP3      H2            -11.9407803985       27.8405542534       27.3237253365  WZ4       3018            0.0000000000
     27931      9311  TIP3      OH2            -3.9992003985       19.3232142534       27.5665453365  WZ4       3019            0.0000000000
     27932      9311  TIP3      H1             -3.9499803985       19.9333342534       28.3024553365  WZ4       3019            0.0000000000
     27933      9311  TIP3      H2             -3.5736903985       19.7843042534       26.8436553365  WZ4       3019            0.0000000000
     27934      9312  TIP3      OH2            -9.5214803985       22.1159242534       27.0334053365  WZ4       3020            0.0000000000
     27935      9312  TIP3      H1             -9.3788903985       21.1696242534       27.0535653365  WZ4       3020            0.0000000000
     27936      9312  TIP3      H2             -9.6275803985       22.3229042534       26.1048953365  WZ4       3020            0.0000000000
     27937      9313  TIP3      OH2           -16.3666503985       20.2175642534       24.3058853365  WZ4       3021            0.0000000000
     27938      9313  TIP3      H1            -16.3235403985       21.0774142534       23.8875153365  WZ4       3021            0.0000000000
     27939      9313  TIP3      H2            -16.8242403985       19.6650342534       23.6722053365  WZ4       3021            0.0000000000
     27940      9314  TIP3      OH2            -8.6443803985       20.3481242534       22.7067153365  WZ4       3022            0.0000000000
     27941      9314  TIP3      H1             -7.9979503985       20.0194442534       23.3314753365  WZ4       3022            0.0000000000
     27942      9314  TIP3      H2             -8.1344403985       20.8660242534       22.0838553365  WZ4       3022            0.0000000000
     27943      9315  TIP3      OH2           -19.7465003985       22.6141442534       25.0680253365  WZ4       3023            0.0000000000
     27944      9315  TIP3      H1            -19.0928403985       22.0643142534       25.5000353365  WZ4       3023            0.0000000000
     27945      9315  TIP3      H2            -19.7225703985       22.3400442534       24.1512253365  WZ4       3023            0.0000000000
     27946      9316  TIP3      OH2           -14.5900503985       24.1642742534       24.2831753365  WZ4       3024            0.0000000000
     27947      9316  TIP3      H1            -13.9739503985       23.6378142534       24.7925753365  WZ4       3024            0.0000000000
     27948      9316  TIP3      H2            -15.1761703985       23.5241442534       23.8795353365  WZ4       3024            0.0000000000
     27949      9317  TIP3      OH2            -3.6077403985       20.8011342534       29.8025253365  WZ4       3025            0.0000000000
     27950      9317  TIP3      H1             -4.2962803985       21.4592042534       29.7071853365  WZ4       3025            0.0000000000
     27951      9317  TIP3      H2             -3.5922803985       20.6039242534       30.7390653365  WZ4       3025            0.0000000000
     27952      9318  TIP3      OH2           -17.5564603985       19.1354042534       28.3799653365  WZ4       3026            0.0000000000
     27953      9318  TIP3      H1            -17.7752903985       19.6654642534       27.6135653365  WZ4       3026            0.0000000000
     27954      9318  TIP3      H2            -18.2243703985       19.3619542534       29.0271053365  WZ4       3026            0.0000000000
     27955      9319  TIP3      OH2           -10.1874803985       28.6355142534       21.9238753365  WZ4       3027            0.0000000000
     27956      9319  TIP3      H1            -10.4829703985       28.3127442534       21.0725653365  WZ4       3027            0.0000000000
     27957      9319  TIP3      H2            -10.5117003985       29.5351842534       21.9651353365  WZ4       3027            0.0000000000
     27958      9320  TIP3      OH2           -14.9873203985       26.8109742534       28.6673353365  WZ4       3028            0.0000000000
     27959      9320  TIP3      H1            -15.7274103985       27.4091242534       28.7708553365  WZ4       3028            0.0000000000
     27960      9320  TIP3      H2            -14.2733703985       27.3649342534       28.3516953365  WZ4       3028            0.0000000000
     27961      9321  TIP3      OH2            -6.8805403985       19.6390542534       24.6873053365  WZ4       3029            0.0000000000
     27962      9321  TIP3      H1             -7.0957403985       18.8733942534       25.2199053365  WZ4       3029            0.0000000000
     27963      9321  TIP3      H2             -6.2248003985       20.1115142534       25.2001553365  WZ4       3029            0.0000000000
     27964      9322  TIP3      OH2           -17.9627303985       21.0275842534       26.3321853365  WZ4       3030            0.0000000000
     27965      9322  TIP3      H1            -17.3491003985       21.6603442534       26.7054253365  WZ4       3030            0.0000000000
     27966      9322  TIP3      H2            -17.4506603985       20.5550842534       25.6758753365  WZ4       3030            0.0000000000
     27967      9323  TIP3      OH2           -20.4588003985       28.4460642534       20.2364153365  WZ4       3032            0.0000000000
     27968      9323  TIP3      H1            -20.7307103985       28.6751642534       19.3477053365  WZ4       3032            0.0000000000
     27969      9323  TIP3      H2            -20.4132303985       29.2839442534       20.6969453365  WZ4       3032            0.0000000000
     27970      9324  TIP3      OH2            -6.8338303985       30.0676542534       26.9492653365  WZ4       3033            0.0000000000
     27971      9324  TIP3      H1             -7.7754603985       30.1260442534       27.1109553365  WZ4       3033            0.0000000000
     27972      9324  TIP3      H2             -6.5572203985       30.9737042534       26.8122353365  WZ4       3033            0.0000000000
     27973      9325  TIP3      OH2            -6.5331303985       18.3541842534       28.3666553365  WZ4       3034            0.0000000000
     27974      9325  TIP3      H1             -7.2692103985       18.9648942534       28.3287853365  WZ4       3034            0.0000000000
     27975      9325  TIP3      H2             -5.8497303985       18.7690842534       27.8402953365  WZ4       3034            0.0000000000
     27976      9326  TIP3      OH2           -13.5299903985       16.4409142534       25.8324553365  WZ4       3035            0.0000000000
     27977      9326  TIP3      H1            -13.6475703985       15.4925142534       25.7782853365  WZ4       3035            0.0000000000
     27978      9326  TIP3      H2            -14.3849803985       16.7735242534       26.1055653365  WZ4       3035            0.0000000000
     27979      9327  TIP3      OH2            -8.5817103985       31.8490042534       23.5744253365  WZ4       3036            0.0000000000
     27980      9327  TIP3      H1             -8.1564803985       31.1417942534       23.0893853365  WZ4       3036            0.0000000000
     27981      9327  TIP3      H2             -8.2647103985       32.6502742534       23.1576453365  WZ4       3036            0.0000000000
     27982      9328  TIP3      OH2            -7.4220603985       29.7498542534       22.0830853365  WZ4       3037            0.0000000000
     27983      9328  TIP3      H1             -7.6795803985       29.0598642534       21.4716753365  WZ4       3037            0.0000000000
     27984      9328  TIP3      H2             -7.3509803985       29.3069742534       22.9286753365  WZ4       3037            0.0000000000
     27985      9329  TIP3      OH2            -5.7360403985       28.3165242534       30.5604353365  WZ4       3038            0.0000000000
     27986      9329  TIP3      H1             -5.5964103985       27.7247742534       29.8211353365  WZ4       3038            0.0000000000
     27987      9329  TIP3      H2             -5.5687603985       29.1891142534       30.2043153365  WZ4       3038            0.0000000000
     27988      9330  TIP3      OH2           -11.2635003985       25.2784742534       20.3330353365  WZ4       3039            0.0000000000
     27989      9330  TIP3      H1            -11.9749503985       25.8134442534       19.9810853365  WZ4       3039            0.0000000000
     27990      9330  TIP3      H2            -10.5725403985       25.3336842534       19.6729253365  WZ4       3039            0.0000000000
     27991      9331  TIP3      OH2           -11.2095803985       23.7359042534       17.3715353365  WZ4       3040            0.0000000000
     27992      9331  TIP3      H1            -10.5085903985       23.7585942534       18.0229353365  WZ4       3040            0.0000000000
     27993      9331  TIP3      H2            -10.9072903985       23.1078742534       16.7154653365  WZ4       3040            0.0000000000
     27994      9332  TIP3      OH2            -3.8941103985       24.6563242534       28.6264753365  WZ4       3041            0.0000000000
     27995      9332  TIP3      H1             -4.5467003985       25.3508842534       28.7155653365  WZ4       3041            0.0000000000
     27996      9332  TIP3      H2             -3.4290803985       24.8664142534       27.8166353365  WZ4       3041            0.0000000000
     27997      9333  TIP3      OH2            -7.8577303985       25.4878042534       21.2846253365  WZ4       3042            0.0000000000
     27998      9333  TIP3      H1             -8.5896303985       25.7161742534       21.8576853365  WZ4       3042            0.0000000000
     27999      9333  TIP3      H2             -7.4105103985       24.7740742534       21.7393753365  WZ4       3042            0.0000000000
     28000      9334  TIP3      OH2            -7.9603803985       23.6620642534       30.3523253365  WZ4       3043            0.0000000000
     28001      9334  TIP3      H1             -7.8804703985       24.4255042534       30.9241753365  WZ4       3043            0.0000000000
     28002      9334  TIP3      H2             -8.5616103985       23.9413042534       29.6618353365  WZ4       3043            0.0000000000
     28003      9335  TIP3      OH2           -16.2123603985       26.1184242534       23.1671253365  WZ4       3044            0.0000000000
     28004      9335  TIP3      H1            -16.5428403985       25.7477642534       22.3488253365  WZ4       3044            0.0000000000
     28005      9335  TIP3      H2            -15.6239503985       25.4478242534       23.5139553365  WZ4       3044            0.0000000000
     28006      9336  TIP3      OH2           -14.8456103985       29.5464842534       25.8483453365  WZ4       3045            0.0000000000
     28007      9336  TIP3      H1            -14.9404803985       28.9677942534       25.0918053365  WZ4       3045            0.0000000000
     28008      9336  TIP3      H2            -14.1162503985       29.1750542534       26.3446253365  WZ4       3045            0.0000000000
     28009      9337  TIP3      OH2           -15.8458103985       24.8869842534       26.8006253365  WZ4       3046            0.0000000000
     28010      9337  TIP3      H1            -15.2805603985       25.0084042534       26.0377453365  WZ4       3046            0.0000000000
     28011      9337  TIP3      H2            -15.5269203985       25.5244842534       27.4394753365  WZ4       3046            0.0000000000
     28012      9338  TIP3      OH2            -9.5365903985       30.3901742534       27.5346753365  WZ4       3047            0.0000000000
     28013      9338  TIP3      H1             -9.7769303985       31.0524842534       28.1825953365  WZ4       3047            0.0000000000
     28014      9338  TIP3      H2             -9.7347703985       29.5556942534       27.9596353365  WZ4       3047            0.0000000000
     28015      9339  TIP3      OH2            -8.9867803985       24.6500942534       18.9697453365  WZ4       3049            0.0000000000
     28016      9339  TIP3      H1             -8.4072303985       24.8001242534       19.7166353365  WZ4       3049            0.0000000000
     28017      9339  TIP3      H2             -8.5727803985       25.1208342534       18.2463853365  WZ4       3049            0.0000000000
     28018      9340  TIP3      OH2           -11.2602903985       31.3869442534       22.4050553365  WZ4       3051            0.0000000000
     28019      9340  TIP3      H1            -10.7865303985       31.6825742534       23.1824753365  WZ4       3051            0.0000000000
     28020      9340  TIP3      H2            -11.8233603985       32.1251042534       22.1720153365  WZ4       3051            0.0000000000
     28021      9341  TIP3      OH2            -5.2879403985       16.4001342534       18.7827153365  WZ4       3053            0.0000000000
     28022      9341  TIP3      H1             -6.1878703985       16.5390342534       19.0777753365  WZ4       3053            0.0000000000
     28023      9341  TIP3      H2             -5.0361003985       17.2315942534       18.3808853365  WZ4       3053            0.0000000000
     28024      9342  TIP3      OH2           -17.2220903985       25.1878542534       20.7564053365  WZ4       3054            0.0000000000
     28025      9342  TIP3      H1            -17.5139603985       25.9560242534       20.2655353365  WZ4       3054            0.0000000000
     28026      9342  TIP3      H2            -17.8965703985       24.5284742534       20.5935453365  WZ4       3054            0.0000000000
     28027      9343  TIP3      OH2            -4.0988003985       30.7663742534       17.1591053365  WZ4       3055            0.0000000000
     28028      9343  TIP3      H1             -4.0254503985       31.7053942534       17.3296353365  WZ4       3055            0.0000000000
     28029      9343  TIP3      H2             -3.1932903985       30.4612342534       17.1028353365  WZ4       3055            0.0000000000
     28030      9344  TIP3      OH2            -3.1809603985       30.9971242534       32.1377753365  WZ4       3058            0.0000000000
     28031      9344  TIP3      H1             -3.2302803985       30.0419342534       32.1005353365  WZ4       3058            0.0000000000
     28032      9344  TIP3      H2             -4.0077303985       31.2646542534       32.5391553365  WZ4       3058            0.0000000000
     28033      9345  TIP3      OH2           -11.7879803985       34.3434142534       20.8199753365  WZ4       3060            0.0000000000
     28034      9345  TIP3      H1            -11.8633803985       34.2221342534       19.8734953365  WZ4       3060            0.0000000000
     28035      9345  TIP3      H2            -11.7551103985       35.2926842534       20.9384353365  WZ4       3060            0.0000000000
     28036      9346  TIP3      OH2           -18.1346003985       33.1321142534       22.6008753365  WZ4       3061            0.0000000000
     28037      9346  TIP3      H1            -17.9825603985       32.7841542534       23.4795253365  WZ4       3061            0.0000000000
     28038      9346  TIP3      H2            -18.9855603985       32.7758442534       22.3455953365  WZ4       3061            0.0000000000
     28039      9347  TIP3      OH2            -8.6863803985       33.4974342534       17.8222153365  WZ4       3062            0.0000000000
     28040      9347  TIP3      H1             -8.3115403985       32.7530442534       17.3514753365  WZ4       3062            0.0000000000
     28041      9347  TIP3      H2             -8.6820103985       33.2274942534       18.7405453365  WZ4       3062            0.0000000000
     28042      9348  TIP3      OH2            -9.0175703985       33.4231442534       20.5714353365  WZ4       3063            0.0000000000
     28043      9348  TIP3      H1             -9.9525903985       33.5233342534       20.7501353365  WZ4       3063            0.0000000000
     28044      9348  TIP3      H2             -8.7373803985       32.7137442534       21.1497553365  WZ4       3063            0.0000000000
     28045      9349  TIP3      OH2            -6.0289803985       22.4903742534       32.6179953365  WZ4       3064            0.0000000000
     28046      9349  TIP3      H1             -6.4363003985       22.9709342534       31.8973253365  WZ4       3064            0.0000000000
     28047      9349  TIP3      H2             -5.9884103985       21.5849742534       32.3100753365  WZ4       3064            0.0000000000
     28048      9350  TIP3      OH2           -16.2612303985       17.3443642534       26.6100853365  WZ4       3066            0.0000000000
     28049      9350  TIP3      H1            -17.1228603985       17.2571842534       26.2023753365  WZ4       3066            0.0000000000
     28050      9350  TIP3      H2            -16.2836603985       18.2003742534       27.0378453365  WZ4       3066            0.0000000000
     28051      9351  TIP3      OH2           -11.5984503985       17.0664042534       29.9847853365  WZ4       3067            0.0000000000
     28052      9351  TIP3      H1            -11.1781403985       16.6511142534       30.7378453365  WZ4       3067            0.0000000000
     28053      9351  TIP3      H2            -12.5314903985       16.8877342534       30.1019853365  WZ4       3067            0.0000000000
     28054      9352  TIP3      OH2            -8.2719603985       20.8219242534       30.8382353365  WZ4       3068            0.0000000000
     28055      9352  TIP3      H1             -8.7860103985       20.6961442534       31.6358353365  WZ4       3068            0.0000000000
     28056      9352  TIP3      H2             -8.4274903985       21.7342342534       30.5938553365  WZ4       3068            0.0000000000
     28057      9353  TIP3      OH2            -7.5094703985       25.6829242534       16.5995353365  WZ4       3069            0.0000000000
     28058      9353  TIP3      H1             -7.4673903985       25.4603142534       15.6695353365  WZ4       3069            0.0000000000
     28059      9353  TIP3      H2             -6.6602603985       26.0816342534       16.7895253365  WZ4       3069            0.0000000000
     28060      9354  TIP3      OH2           -11.9367203985       19.5587442534       17.2698653365  WZ4       3070            0.0000000000
     28061      9354  TIP3      H1            -12.1902403985       19.5779042534       18.1926753365  WZ4       3070            0.0000000000
     28062      9354  TIP3      H2            -12.1935103985       18.6872842534       16.9684853365  WZ4       3070            0.0000000000
     28063      9355  TIP3      OH2           -16.1702203985       22.3098142534       27.7051053365  WZ4       3071            0.0000000000
     28064      9355  TIP3      H1            -16.8120103985       22.2695442534       28.4141153365  WZ4       3071            0.0000000000
     28065      9355  TIP3      H2            -16.1330203985       23.2362842534       27.4674053365  WZ4       3071            0.0000000000
     28066      9356  TIP3      OH2           -16.1733103985       22.5308242534       22.6171053365  WZ4       3072            0.0000000000
     28067      9356  TIP3      H1            -17.0660203985       22.1904342534       22.5584853365  WZ4       3072            0.0000000000
     28068      9356  TIP3      H2            -15.7226503985       22.1539142534       21.8614253365  WZ4       3072            0.0000000000
     28069      9357  TIP3      OH2           -10.6377603985       22.9468542534       21.4341853365  WZ4       3073            0.0000000000
     28070      9357  TIP3      H1            -11.0467303985       23.7617142534       21.1426653365  WZ4       3073            0.0000000000
     28071      9357  TIP3      H2             -9.9171403985       22.8068642534       20.8198953365  WZ4       3073            0.0000000000
     28072      9358  TIP3      OH2           -11.5356003985       23.1224942534       32.9222553365  WZ4       3074            0.0000000000
     28073      9358  TIP3      H1            -12.0982203985       22.4176542534       33.2430353365  WZ4       3074            0.0000000000
     28074      9358  TIP3      H2            -10.7092603985       23.0016842534       33.3900153365  WZ4       3074            0.0000000000
     28075      9359  TIP3      OH2            -9.6329903985       22.3928942534       24.2481553365  WZ4       3075            0.0000000000
     28076      9359  TIP3      H1             -9.8285403985       22.9985742534       23.5332153365  WZ4       3075            0.0000000000
     28077      9359  TIP3      H2             -9.4517303985       21.5594142534       23.8137853365  WZ4       3075            0.0000000000
     28078      9360  TIP3      OH2           -18.4201703985       22.6301642534       29.5723053365  WZ4       3076            0.0000000000
     28079      9360  TIP3      H1            -18.4582303985       23.0303242534       30.4410153365  WZ4       3076            0.0000000000
     28080      9360  TIP3      H2            -18.9110603985       21.8134042534       29.6625953365  WZ4       3076            0.0000000000
     28081      9361  TIP3      OH2           -15.0544303985       20.0043942534       16.3709053365  WZ4       3077            0.0000000000
     28082      9361  TIP3      H1            -15.4853603985       19.5594042534       17.1006453365  WZ4       3077            0.0000000000
     28083      9361  TIP3      H2            -15.7725603985       20.3760242534       15.8586553365  WZ4       3077            0.0000000000
     28084      9362  TIP3      OH2           -21.8120903985       19.7463442534       23.4227753365  WZ4       3078            0.0000000000
     28085      9362  TIP3      H1            -21.1813203985       19.7175542534       24.1421653365  WZ4       3078            0.0000000000
     28086      9362  TIP3      H2            -21.3626603985       19.3212142534       22.6923653365  WZ4       3078            0.0000000000
     28087      9363  TIP3      OH2           -20.5378803985       20.4925442534       18.8468153365  WZ4       3079            0.0000000000
     28088      9363  TIP3      H1            -20.0637103985       21.0835342534       18.2619053365  WZ4       3079            0.0000000000
     28089      9363  TIP3      H2            -21.2552403985       21.0228342534       19.1938253365  WZ4       3079            0.0000000000
     28090      9364  TIP3      OH2           -10.3690703985       24.0310242534       28.9193953365  WZ4       3080            0.0000000000
     28091      9364  TIP3      H1            -10.0455903985       23.3999942534       28.2764453365  WZ4       3080            0.0000000000
     28092      9364  TIP3      H2            -10.8091403985       23.4962442534       29.5801353365  WZ4       3080            0.0000000000
     28093      9365  TIP3      OH2           -13.5917803985       19.9585742534       23.7035153365  WZ4       3081            0.0000000000
     28094      9365  TIP3      H1            -14.5026703985       20.0152542534       23.9921153365  WZ4       3081            0.0000000000
     28095      9365  TIP3      H2            -13.0864903985       19.8981242534       24.5142353365  WZ4       3081            0.0000000000
     28096      9366  TIP3      OH2           -18.7634403985       21.5872042534       22.5302753365  WZ4       3082            0.0000000000
     28097      9366  TIP3      H1            -19.6526403985       21.6867542534       22.1902353365  WZ4       3082            0.0000000000
     28098      9366  TIP3      H2            -18.4669503985       20.7455042534       22.1840653365  WZ4       3082            0.0000000000
     28099      9367  TIP3      OH2           -15.1102603985       21.5874642534       20.1867353365  WZ4       3083            0.0000000000
     28100      9367  TIP3      H1            -14.1787103985       21.7164642534       20.3650453365  WZ4       3083            0.0000000000
     28101      9367  TIP3      H2            -15.3252303985       22.2568942534       19.5372053365  WZ4       3083            0.0000000000
     28102      9368  TIP3      OH2            -9.1865903985       19.1932042534       26.9676953365  WZ4       3084            0.0000000000
     28103      9368  TIP3      H1             -9.8634303985       19.3245142534       27.6316653365  WZ4       3084            0.0000000000
     28104      9368  TIP3      H2             -9.6721003985       19.0381542534       26.1574653365  WZ4       3084            0.0000000000
     28105      9369  TIP3      OH2           -16.4362403985       22.7816842534       17.7533453365  WZ4       3085            0.0000000000
     28106      9369  TIP3      H1            -16.9787303985       22.4020642534       17.0621053365  WZ4       3085            0.0000000000
     28107      9369  TIP3      H2            -15.6027503985       22.9761542534       17.3247553365  WZ4       3085            0.0000000000
     28108      9370  TIP3      OH2           -12.2718103985       22.7458742534       25.5904753365  WZ4       3088            0.0000000000
     28109      9370  TIP3      H1            -11.7074703985       22.1995342534       25.0434353365  WZ4       3088            0.0000000000
     28110      9370  TIP3      H2            -12.4194703985       22.2240642534       26.3792353365  WZ4       3088            0.0000000000
     28111      9371  TIP3      OH2           -17.2698403985       18.8824842534       22.0089553365  WZ4       3089            0.0000000000
     28112      9371  TIP3      H1            -17.5868903985       17.9800142534       21.9734953365  WZ4       3089            0.0000000000
     28113      9371  TIP3      H2            -16.4884303985       18.8842242534       21.4561153365  WZ4       3089            0.0000000000
     28114      9372  TIP3      OH2           -13.6452203985       21.1344842534       28.0045153365  WZ4       3090            0.0000000000
     28115      9372  TIP3      H1            -14.4806903985       21.5884342534       28.1147553365  WZ4       3090            0.0000000000
     28116      9372  TIP3      H2            -13.1211603985       21.4103342534       28.7565053365  WZ4       3090            0.0000000000
     28117      9373  TIP3      OH2           -13.1009603985       27.3472542534       19.6891553365  WZ4       3091            0.0000000000
     28118      9373  TIP3      H1            -13.8458603985       26.8397842534       19.3669453365  WZ4       3091            0.0000000000
     28119      9373  TIP3      H2            -13.2352403985       27.3960542534       20.6356353365  WZ4       3091            0.0000000000
     28120      9374  TIP3      OH2            -5.9510703985       26.4800742534       28.4759153365  WZ4       3092            0.0000000000
     28121      9374  TIP3      H1             -5.3091903985       26.9367042534       27.9321353365  WZ4       3092            0.0000000000
     28122      9374  TIP3      H2             -6.7813803985       26.5933142534       28.0133253365  WZ4       3092            0.0000000000
     28123      9375  TIP3      OH2            -9.2032803985       20.1612442534       17.8884153365  WZ4       3093            0.0000000000
     28124      9375  TIP3      H1            -10.1418603985       20.2728042534       17.7372953365  WZ4       3093            0.0000000000
     28125      9375  TIP3      H2             -8.9060703985       21.0179342534       18.1949853365  WZ4       3093            0.0000000000
     28126      9376  TIP3      OH2            -8.4849303985       22.0285142534       19.5491553365  WZ4       3095            0.0000000000
     28127      9376  TIP3      H1             -7.5930303985       21.8910142534       19.8682753365  WZ4       3095            0.0000000000
     28128      9376  TIP3      H2             -8.4285703985       22.8191242534       19.0125053365  WZ4       3095            0.0000000000
     28129      9377  TIP3      OH2           -17.9761303985       26.6422542534       25.4589453365  WZ4       3096            0.0000000000
     28130      9377  TIP3      H1            -17.2314103985       26.6398242534       24.8575953365  WZ4       3096            0.0000000000
     28131      9377  TIP3      H2            -17.8984703985       25.8186342534       25.9404553365  WZ4       3096            0.0000000000
     28132      9378  TIP3      OH2           -10.9755503985       28.8056842534       18.7146153365  WZ4       3097            0.0000000000
     28133      9378  TIP3      H1            -11.2707103985       29.6324742534       19.0960953365  WZ4       3097            0.0000000000
     28134      9378  TIP3      H2            -11.6785503985       28.1863742534       18.9107553365  WZ4       3097            0.0000000000
     28135      9379  TIP3      OH2            -3.6000603985       22.2379242534       19.2438253365  WZ4       3101            0.0000000000
     28136      9379  TIP3      H1             -4.1544303985       21.8417242534       18.5715753365  WZ4       3101            0.0000000000
     28137      9379  TIP3      H2             -3.4997003985       23.1484442534       18.9661553365  WZ4       3101            0.0000000000
     28138      9380  TIP3      OH2            -3.6368603985       28.0380942534       32.0809753365  WZ4       3102            0.0000000000
     28139      9380  TIP3      H1             -4.4880103985       28.2764742534       31.7136153365  WZ4       3102            0.0000000000
     28140      9380  TIP3      H2             -3.0465203985       28.0214142534       31.3276853365  WZ4       3102            0.0000000000
     28141      9381  TIP3      OH2            -5.3048903985       31.0239642534       19.7090353365  WZ4       3103            0.0000000000
     28142      9381  TIP3      H1             -5.6777803985       30.1983442534       20.0180953365  WZ4       3103            0.0000000000
     28143      9381  TIP3      H2             -5.0275403985       30.8409042534       18.8113753365  WZ4       3103            0.0000000000
     28144      9382  TIP3      OH2            -8.1445003985       25.8319142534       26.7302253365  WZ4       3104            0.0000000000
     28145      9382  TIP3      H1             -9.0728103985       25.6001042534       26.7031553365  WZ4       3104            0.0000000000
     28146      9382  TIP3      H2             -7.6933903985       25.0548942534       26.4001053365  WZ4       3104            0.0000000000
     28147      9383  TIP3      OH2           -15.6011903985       30.1600742534       22.8630953365  WZ4       3105            0.0000000000
     28148      9383  TIP3      H1            -15.0739703985       30.9335142534       22.6629753365  WZ4       3105            0.0000000000
     28149      9383  TIP3      H2            -16.4813403985       30.3849942534       22.5614953365  WZ4       3105            0.0000000000
     28150      9384  TIP3      OH2           -19.8464203985       25.0224842534       17.4503353365  WZ4       3106            0.0000000000
     28151      9384  TIP3      H1            -19.2304303985       25.6492042534       17.8298153365  WZ4       3106            0.0000000000
     28152      9384  TIP3      H2            -20.7081603985       25.3384642534       17.7219853365  WZ4       3106            0.0000000000
     28153      9385  TIP3      OH2           -14.1739603985       27.8230642534       22.4395253365  WZ4       3107            0.0000000000
     28154      9385  TIP3      H1            -14.4149603985       28.7485042534       22.4810553365  WZ4       3107            0.0000000000
     28155      9385  TIP3      H2            -14.9146003985       27.3641942534       22.8359153365  WZ4       3107            0.0000000000
     28156      9386  TIP3      OH2           -15.4908803985       32.8448242534       21.9847453365  WZ4       3109            0.0000000000
     28157      9386  TIP3      H1            -16.4408303985       32.9505642534       22.0360753365  WZ4       3109            0.0000000000
     28158      9386  TIP3      H2            -15.1390703985       33.6655642534       22.3294953365  WZ4       3109            0.0000000000
     28159      9387  TIP3      OH2           -10.1152203985       28.0714942534       28.4551953365  WZ4       3110            0.0000000000
     28160      9387  TIP3      H1            -10.5410903985       27.8436642534       29.2815953365  WZ4       3110            0.0000000000
     28161      9387  TIP3      H2             -9.5346403985       27.3326742534       28.2727253365  WZ4       3110            0.0000000000
     28162      9388  TIP3      OH2            -7.9123303985       29.0005442534       17.5290953365  WZ4       3111            0.0000000000
     28163      9388  TIP3      H1             -7.5590203985       28.6205242534       18.3334453365  WZ4       3111            0.0000000000
     28164      9388  TIP3      H2             -8.8609803985       28.9070242534       17.6160253365  WZ4       3111            0.0000000000
     28165      9389  TIP3      OH2            -3.4088903985       33.4797942534       17.7301153365  WZ4       3113            0.0000000000
     28166      9389  TIP3      H1             -2.6651003985       34.0658442534       17.5902753365  WZ4       3113            0.0000000000
     28167      9389  TIP3      H2             -4.1030803985       34.0483742534       18.0633553365  WZ4       3113            0.0000000000
     28168      9390  TIP3      OH2           -19.3342103985       19.8562142534       30.3319353365  WZ4       3114            0.0000000000
     28169      9390  TIP3      H1            -20.2269803985       20.1947542534       30.2643353365  WZ4       3114            0.0000000000
     28170      9390  TIP3      H2            -19.4329303985       19.0008242534       30.7500153365  WZ4       3114            0.0000000000
     28171      9391  TIP3      OH2            -7.0464003985       27.6727442534       19.7558853365  WZ4       3115            0.0000000000
     28172      9391  TIP3      H1             -7.3236403985       26.9446742534       20.3119953365  WZ4       3115            0.0000000000
     28173      9391  TIP3      H2             -6.1191003985       27.7919442534       19.9611453365  WZ4       3115            0.0000000000
     28174      9392  TIP3      OH2           -13.8215503985       30.1121542534       15.9760953365  WZ4       3117            0.0000000000
     28175      9392  TIP3      H1            -13.5825703985       29.3639642534       15.4289853365  WZ4       3117            0.0000000000
     28176      9392  TIP3      H2            -14.0904203985       29.7243242534       16.8088753365  WZ4       3117            0.0000000000
     28177      9393  TIP3      OH2           -14.8844903985       29.6825342534       18.4323553365  WZ4       3118            0.0000000000
     28178      9393  TIP3      H1            -14.7376903985       29.1625142534       19.2224453365  WZ4       3118            0.0000000000
     28179      9393  TIP3      H2            -14.8873203985       30.5892942534       18.7389453365  WZ4       3118            0.0000000000
     28180      9394  TIP3      OH2           -18.4313803985       26.9348642534       18.9428953365  WZ4       3119            0.0000000000
     28181      9394  TIP3      H1            -19.1174503985       27.2871142534       19.5098653365  WZ4       3119            0.0000000000
     28182      9394  TIP3      H2            -17.9085903985       27.6978242534       18.6963253365  WZ4       3119            0.0000000000
     28183      9395  TIP3      OH2           -10.5998703985       19.5972442534       29.2217953365  WZ4       3120            0.0000000000
     28184      9395  TIP3      H1             -9.9010803985       19.6711142534       29.8717653365  WZ4       3120            0.0000000000
     28185      9395  TIP3      H2            -10.9807303985       18.7327442534       29.3760853365  WZ4       3120            0.0000000000
     28186      9396  TIP3      OH2            -9.8153803985       19.2494142534       20.3190253365  WZ4       3121            0.0000000000
     28187      9396  TIP3      H1             -9.5955503985       19.7209542534       19.5155653365  WZ4       3121            0.0000000000
     28188      9396  TIP3      H2             -9.2569803985       19.6436742534       20.9890853365  WZ4       3121            0.0000000000
     28189      9397  TIP3      OH2           -12.1467703985       31.3798942534       19.1817753365  WZ4       3122            0.0000000000
     28190      9397  TIP3      H1            -12.9631603985       31.8768642534       19.2342053365  WZ4       3122            0.0000000000
     28191      9397  TIP3      H2            -11.6171403985       31.8552442534       18.5416553365  WZ4       3122            0.0000000000
     28192      9398  TIP3      OH2           -12.6153903985       20.9772942534       21.1538653365  WZ4       3123            0.0000000000
     28193      9398  TIP3      H1            -11.8031303985       21.4816142534       21.2000353365  WZ4       3123            0.0000000000
     28194      9398  TIP3      H2            -12.8600903985       20.8322642534       22.0678253365  WZ4       3123            0.0000000000
     28195      9399  TIP3      OH2           -12.0797503985       21.9635642534       30.3385253365  WZ4       3124            0.0000000000
     28196      9399  TIP3      H1            -11.9607203985       22.5371042534       31.0955653365  WZ4       3124            0.0000000000
     28197      9399  TIP3      H2            -11.4242903985       21.2755042534       30.4533053365  WZ4       3124            0.0000000000
     28198      9400  TIP3      OH2           -11.7317203985       18.0585942534       22.0919753365  WZ4       3125            0.0000000000
     28199      9400  TIP3      H1            -12.0783703985       18.6756542534       22.7364053365  WZ4       3125            0.0000000000
     28200      9400  TIP3      H2            -11.0730303985       18.5591642534       21.6105253365  WZ4       3125            0.0000000000
     28201      9401  TIP3      OH2           -14.8084603985       32.4236142534       19.1634653365  WZ4       3126            0.0000000000
     28202      9401  TIP3      H1            -14.6475903985       33.2233642534       18.6627253365  WZ4       3126            0.0000000000
     28203      9401  TIP3      H2            -15.0056803985       32.7302142534       20.0485253365  WZ4       3126            0.0000000000
     28204      9402  TIP3      OH2           -16.0740203985       19.1215342534       18.7792253365  WZ4       3127            0.0000000000
     28205      9402  TIP3      H1            -16.1575403985       20.0098442534       19.1258653365  WZ4       3127            0.0000000000
     28206      9402  TIP3      H2            -15.1839903985       18.8562042534       19.0109053365  WZ4       3127            0.0000000000
     28207      9403  TIP3      OH2            -5.8751703985       19.8705942534       31.1734953365  WZ4       3128            0.0000000000
     28208      9403  TIP3      H1             -6.7915903985       20.1327642534       31.0858653365  WZ4       3128            0.0000000000
     28209      9403  TIP3      H2             -5.5396703985       19.8674942534       30.2770253365  WZ4       3128            0.0000000000
     28210      9404  TIP3      OH2            -7.2730703985       23.6206942534       25.2692253365  WZ4       3129            0.0000000000
     28211      9404  TIP3      H1             -8.0706303985       23.2057142534       24.9407253365  WZ4       3129            0.0000000000
     28212      9404  TIP3      H2             -6.8279603985       22.9300642534       25.7602753365  WZ4       3129            0.0000000000
     28213      9405  TIP3      OH2           -17.8154903985       29.5487542534       17.8396753365  WZ4       3130            0.0000000000
     28214      9405  TIP3      H1            -17.2233403985       30.2482342534       18.1159153365  WZ4       3130            0.0000000000
     28215      9405  TIP3      H2            -17.3561903985       29.1157042534       17.1201353365  WZ4       3130            0.0000000000
     28216      9406  TIP3      OH2           -19.4995703985       22.2130542534       16.9556153365  WZ4       3131            0.0000000000
     28217      9406  TIP3      H1            -19.5443103985       23.1523642534       17.1343153365  WZ4       3131            0.0000000000
     28218      9406  TIP3      H2            -20.3872503985       21.9775442534       16.6858253365  WZ4       3131            0.0000000000
     28219      9407  TIP3      OH2            -6.1866103985       32.8769442534       26.8915753365  WZ4       3132            0.0000000000
     28220      9407  TIP3      H1             -6.3421803985       33.5553842534       26.2345053365  WZ4       3132            0.0000000000
     28221      9407  TIP3      H2             -5.2539703985       32.9488742534       27.0946353365  WZ4       3132            0.0000000000
     28222      9408  TIP3      OH2           -18.6913703985       16.9947142534       25.6287153365  WZ4       3133            0.0000000000
     28223      9408  TIP3      H1            -18.9203903985       17.0539642534       24.7012153365  WZ4       3133            0.0000000000
     28224      9408  TIP3      H2            -19.1340303985       16.2032642534       25.9351253365  WZ4       3133            0.0000000000
     28225      9409  TIP3      OH2           -19.7610403985       30.9354242534       21.7892953365  WZ4       3134            0.0000000000
     28226      9409  TIP3      H1            -20.5931803985       31.4076942534       21.8164353365  WZ4       3134            0.0000000000
     28227      9409  TIP3      H2            -19.2152103985       31.4451842534       21.1906053365  WZ4       3134            0.0000000000
     28228      9410  TIP3      OH2           -11.7833703985       31.9752942534       16.1146953365  WZ4       3137            0.0000000000
     28229      9410  TIP3      H1            -12.4272703985       31.3441542534       16.4360653365  WZ4       3137            0.0000000000
     28230      9410  TIP3      H2            -11.0215403985       31.4440942534       15.8830453365  WZ4       3137            0.0000000000
     28231      9411  TIP3      OH2            -7.1790803985       31.7922842534       16.3484953365  WZ4       3139            0.0000000000
     28232      9411  TIP3      H1             -6.8960403985       30.9978042534       16.8011853365  WZ4       3139            0.0000000000
     28233      9411  TIP3      H2             -6.4392903985       32.0253842534       15.7876053365  WZ4       3139            0.0000000000
     28234      9412  TIP3      OH2           -16.2243503985       27.7017742534       16.2059853365  WZ4       3141            0.0000000000
     28235      9412  TIP3      H1            -16.1599403985       26.9077342534       16.7366253365  WZ4       3141            0.0000000000
     28236      9412  TIP3      H2            -15.5714303985       27.5830542534       15.5161853365  WZ4       3141            0.0000000000
     28237      9413  TIP3      OH2           -10.8720103985       28.7489442534       15.9417853365  WZ4       3143            0.0000000000
     28238      9413  TIP3      H1            -11.1406003985       28.9291542534       16.8426753365  WZ4       3143            0.0000000000
     28239      9413  TIP3      H2            -11.0784503985       27.8235642534       15.8103653365  WZ4       3143            0.0000000000
     28240      9414  TIP3      OH2            -8.1755903985       27.2437442534       30.8893953365  WZ4       3144            0.0000000000
     28241      9414  TIP3      H1             -7.4301103985       27.8321142534       30.7697953365  WZ4       3144            0.0000000000
     28242      9414  TIP3      H2             -8.9329103985       27.8257142534       30.9527053365  WZ4       3144            0.0000000000
     28243      9415  TIP3      OH2           -15.0749703985       25.6743942534       18.5117853365  WZ4       3146            0.0000000000
     28244      9415  TIP3      H1            -15.5347703985       25.1902242534       19.1976353365  WZ4       3146            0.0000000000
     28245      9415  TIP3      H2            -14.8201003985       25.0059342534       17.8758353365  WZ4       3146            0.0000000000
     28246      9416  TIP3      OH2           -15.7860403985       23.5671042534       30.8677453365  WZ4       3147            0.0000000000
     28247      9416  TIP3      H1            -16.4044303985       24.2417642534       31.1482153365  WZ4       3147            0.0000000000
     28248      9416  TIP3      H2            -15.4419203985       23.8884942534       30.0343653365  WZ4       3147            0.0000000000
     28249      9417  TIP3      OH2           -14.0039303985       23.9175742534       16.7741053365  WZ4       3148            0.0000000000
     28250      9417  TIP3      H1            -14.1844303985       23.7626942534       15.8469353365  WZ4       3148            0.0000000000
     28251      9417  TIP3      H2            -13.0538803985       24.0254442534       16.8188953365  WZ4       3148            0.0000000000
     28252      9418  TIP3      OH2            -4.6141003985       26.2719942534       16.2199153365  WZ4       3150            0.0000000000
     28253      9418  TIP3      H1             -4.8876203985       25.8475442534       15.4067453365  WZ4       3150            0.0000000000
     28254      9418  TIP3      H2             -4.5746903985       27.2034442534       16.0029553365  WZ4       3150            0.0000000000
     28255      9419  TIP3      OH2           -15.4466703985       20.9221842534       31.9500553365  WZ4       3151            0.0000000000
     28256      9419  TIP3      H1            -15.2965803985       20.1933142534       31.3480253365  WZ4       3151            0.0000000000
     28257      9419  TIP3      H2            -15.4444303985       21.6993542534       31.3912753365  WZ4       3151            0.0000000000
     28258      9420  TIP3      OH2           -15.0341003985       19.2917642534       29.4427953365  WZ4       3152            0.0000000000
     28259      9420  TIP3      H1            -14.4983503985       19.7434342534       28.7907253365  WZ4       3152            0.0000000000
     28260      9420  TIP3      H2            -15.8861403985       19.1837442534       29.0202053365  WZ4       3152            0.0000000000
     28261      9421  TIP3      OH2           -13.4522603985       24.7313842534       29.6823153365  WZ4       3153            0.0000000000
     28262      9421  TIP3      H1            -12.7017803985       24.5751342534       29.1090953365  WZ4       3153            0.0000000000
     28263      9421  TIP3      H2            -13.7914303985       25.5830442534       29.4068653365  WZ4       3153            0.0000000000
     28264      9422  TIP3      OH2            -9.0366403985       22.5465642534       34.7108453365  WZ4       3154            0.0000000000
     28265      9422  TIP3      H1             -8.8445103985       21.6155042534       34.5992953365  WZ4       3154            0.0000000000
     28266      9422  TIP3      H2             -8.1790103985       22.9715142534       34.7003853365  WZ4       3154            0.0000000000
     28267      9423  TIP3      OH2            -7.7199203985       25.3350842534       32.7881153365  WZ4       3155            0.0000000000
     28268      9423  TIP3      H1             -8.0014203985       26.0445442534       32.2104953365  WZ4       3155            0.0000000000
     28269      9423  TIP3      H2             -6.7774903985       25.2623842534       32.6372353365  WZ4       3155            0.0000000000
     28270      9424  TIP3      OH2           -14.2285503985       16.7483342534       29.8741553365  WZ4       3157            0.0000000000
     28271      9424  TIP3      H1            -14.3265903985       17.6946542534       29.7687753365  WZ4       3157            0.0000000000
     28272      9424  TIP3      H2            -14.9709303985       16.3757142534       29.3985053365  WZ4       3157            0.0000000000
     28273      9425  TIP3      OH2           -12.9645003985       21.0698742534       33.4379953365  WZ4       3158            0.0000000000
     28274      9425  TIP3      H1            -13.1999603985       20.8505442534       34.3394853365  WZ4       3158            0.0000000000
     28275      9425  TIP3      H2            -13.7478103985       20.8629942534       32.9282453365  WZ4       3158            0.0000000000
     28276      9426  TIP3      OH2           -10.2488403985       20.1972242534       32.5133453365  WZ4       3159            0.0000000000
     28277      9426  TIP3      H1            -11.1963003985       20.2291942534       32.6456753365  WZ4       3159            0.0000000000
     28278      9426  TIP3      H2             -9.9361703985       19.5719342534       33.1671653365  WZ4       3159            0.0000000000
     28279      9427  TIP3      OH2            -8.6146903985       18.8313342534       34.5185353365  WZ4       3160            0.0000000000
     28280      9427  TIP3      H1             -8.7115103985       17.8790642534       34.5127253365  WZ4       3160            0.0000000000
     28281      9427  TIP3      H2             -8.9363803985       19.1000142534       35.3790853365  WZ4       3160            0.0000000000
     28282      9428  TIP3      OH2           -14.0067403985       16.0420742534       32.5454353365  WZ4       3162            0.0000000000
     28283      9428  TIP3      H1            -13.2949003985       15.4022942534       32.5313453365  WZ4       3162            0.0000000000
     28284      9428  TIP3      H2            -14.1077003985       16.3089042534       31.6317453365  WZ4       3162            0.0000000000
     28285      9429  TIP3      OH2           -13.6529903985       17.7249142534       34.5990653365  WZ4       3163            0.0000000000
     28286      9429  TIP3      H1            -13.7847703985       17.2492942534       33.7789153365  WZ4       3163            0.0000000000
     28287      9429  TIP3      H2            -14.2522503985       18.4692742534       34.5437753365  WZ4       3163            0.0000000000
     28288      9430  TIP3      OH2           -14.1067603985       34.6079442534       17.7754653365  WZ4       3164            0.0000000000
     28289      9430  TIP3      H1            -13.1736903985       34.7658142534       17.9193053365  WZ4       3164            0.0000000000
     28290      9430  TIP3      H2            -14.3708803985       35.2832442534       17.1506153365  WZ4       3164            0.0000000000
     28291      9431  TIP3      OH2           -20.5382703985       29.2443242534       17.2582753365  WZ4       3165            0.0000000000
     28292      9431  TIP3      H1            -19.6243503985       29.3232142534       17.5316653365  WZ4       3165            0.0000000000
     28293      9431  TIP3      H2            -20.5309603985       28.5572842534       16.5918353365  WZ4       3165            0.0000000000
     28294      9432  TIP3      OH2            -3.4708103985       33.5275142534       27.1207653365  WZ4       3168            0.0000000000
     28295      9432  TIP3      H1             -3.4921403985       33.7123542534       28.0597053365  WZ4       3168            0.0000000000
     28296      9432  TIP3      H2             -2.7801903985       34.0959142534       26.7799053365  WZ4       3168            0.0000000000
     28297      9433  TIP3      OH2            -3.9075203985       33.0946242534       30.0426753365  WZ4       3169            0.0000000000
     28298      9433  TIP3      H1             -4.3946503985       32.3590342534       29.6714153365  WZ4       3169            0.0000000000
     28299      9433  TIP3      H2             -3.3582503985       32.7010142534       30.7206153365  WZ4       3169            0.0000000000
     28300      9434  TIP3      OH2            -4.1558203985       27.1408042534       20.1949553365  WZ4       3171            0.0000000000
     28301      9434  TIP3      H1             -3.3056803985       27.5618942534       20.3221153365  WZ4       3171            0.0000000000
     28302      9434  TIP3      H2             -4.1503103985       26.4008142534       20.8020953365  WZ4       3171            0.0000000000
     28303      9435  TIP3      OH2            -3.7612603985       25.1945442534       22.0185253365  WZ4       3172            0.0000000000
     28304      9435  TIP3      H1             -4.4878003985       24.7148042534       22.4162853365  WZ4       3172            0.0000000000
     28305      9435  TIP3      H2             -3.1799303985       25.4000142534       22.7506853365  WZ4       3172            0.0000000000
     28306      9436  TIP3      OH2            -4.0021403985       27.9792942534       26.9662853365  WZ4       3173            0.0000000000
     28307      9436  TIP3      H1             -3.1687203985       27.6012942534       26.6856453365  WZ4       3173            0.0000000000
     28308      9436  TIP3      H2             -3.8901103985       28.9224142534       26.8471953365  WZ4       3173            0.0000000000
     28309      9437  TIP3      OH2            -5.5159103985       30.8570442534       29.2731253365  WZ4       3174            0.0000000000
     28310      9437  TIP3      H1             -6.1633803985       31.1821942534       29.8986453365  WZ4       3174            0.0000000000
     28311      9437  TIP3      H2             -6.0335103985       30.4168142534       28.5989553365  WZ4       3174            0.0000000000
     28312      9438  TIP3      OH2            -3.4929503985       25.0953942534       18.4096553365  WZ4       3175            0.0000000000
     28313      9438  TIP3      H1             -4.0148403985       25.4518042534       17.6907453365  WZ4       3175            0.0000000000
     28314      9438  TIP3      H2             -3.5260303985       25.7701742534       19.0877453365  WZ4       3175            0.0000000000
     28315      9439  TIP3      OH2            -5.1440503985       22.3349542534       16.9603653365  WZ4       3176            0.0000000000
     28316      9439  TIP3      H1             -5.0476103985       23.0016542534       16.2803353365  WZ4       3176            0.0000000000
     28317      9439  TIP3      H2             -5.2840903985       21.5195842534       16.4789153365  WZ4       3176            0.0000000000
     28318      9440  TIP3      OH2            -5.9745803985       23.7151942534       22.5813953365  WZ4       3177            0.0000000000
     28319      9440  TIP3      H1             -6.1247003985       22.7700542534       22.5611753365  WZ4       3177            0.0000000000
     28320      9440  TIP3      H2             -6.3281303985       23.9963342534       23.4253053365  WZ4       3177            0.0000000000
     28321      9441  TIP3      OH2           -20.9393403985       25.7934142534       26.5917753365  WZ4       3178            0.0000000000
     28322      9441  TIP3      H1            -20.7550503985       25.7115842534       25.6560653365  WZ4       3178            0.0000000000
     28323      9441  TIP3      H2            -20.0900503985       25.6691142534       27.0154153365  WZ4       3178            0.0000000000
     28324      9442  TIP3      OH2            -5.1182903985       25.6855242534       32.2202253365  WZ4       3179            0.0000000000
     28325      9442  TIP3      H1             -4.5355603985       24.9507542534       32.4119453365  WZ4       3179            0.0000000000
     28326      9442  TIP3      H2             -4.5543603985       26.4575542534       32.2668053365  WZ4       3179            0.0000000000
     28327      9443  TIP3      OH2            -3.6215803985       23.5881042534       32.9047653365  WZ4       3180            0.0000000000
     28328      9443  TIP3      H1             -4.4849103985       23.2093142534       32.7392353365  WZ4       3180            0.0000000000
     28329      9443  TIP3      H2             -3.0172103985       22.8495842534       32.8303453365  WZ4       3180            0.0000000000
     28330      9444  TIP3      OH2            -5.8966703985       19.7429342534       16.0779153365  WZ4       3181            0.0000000000
     28331      9444  TIP3      H1             -5.2860903985       19.3716142534       16.7147353365  WZ4       3181            0.0000000000
     28332      9444  TIP3      H2             -6.7335203985       19.3216242534       16.2739153365  WZ4       3181            0.0000000000
     28333      9445  TIP3      OH2            -6.2641003985       21.2977742534       21.0439053365  WZ4       3182            0.0000000000
     28334      9445  TIP3      H1             -5.9843903985       20.3908142534       21.1680753365  WZ4       3182            0.0000000000
     28335      9445  TIP3      H2             -5.5049303985       21.7319242534       20.6548253365  WZ4       3182            0.0000000000
     28336      9446  TIP3      OH2            -5.6522703985       21.8795142534       26.4797953365  WZ4       3183            0.0000000000
     28337      9446  TIP3      H1             -4.7194703985       22.0915042534       26.4453953365  WZ4       3183            0.0000000000
     28338      9446  TIP3      H2             -5.8875203985       21.9807242534       27.4020953365  WZ4       3183            0.0000000000
     28339      9447  TIP3      OH2            -5.6230803985       22.6160442534       29.2557353365  WZ4       3184            0.0000000000
     28340      9447  TIP3      H1             -6.4659503985       22.8840842534       29.6217153365  WZ4       3184            0.0000000000
     28341      9447  TIP3      H2             -5.1806503985       23.4382342534       29.0448453365  WZ4       3184            0.0000000000
     28342      9448  TIP3      OH2            -3.3399203985       16.5960642534       34.6092353365  WZ4       3186            0.0000000000
     28343      9448  TIP3      H1             -2.9902203985       15.9424142534       34.0037053365  WZ4       3186            0.0000000000
     28344      9448  TIP3      H2             -3.1929703985       17.4334742534       34.1694953365  WZ4       3186            0.0000000000
     28345      9449  TIP3      OH2            -5.6506203985       18.5607042534       21.0921053365  WZ4       3187            0.0000000000
     28346      9449  TIP3      H1             -5.4681203985       18.1118542534       21.9176053365  WZ4       3187            0.0000000000
     28347      9449  TIP3      H2             -6.2503303985       17.9761442534       20.6285653365  WZ4       3187            0.0000000000
     28348      9450  TIP3      OH2           -20.1206103985       19.3760742534       25.6239453365  WZ4       3188            0.0000000000
     28349      9450  TIP3      H1            -19.6754503985       18.5843242534       25.9259153365  WZ4       3188            0.0000000000
     28350      9450  TIP3      H2            -19.6543103985       20.0925942534       26.0545053365  WZ4       3188            0.0000000000
     28351      9451  TIP3      OH2           -21.8165803985       22.3753742534       26.6929653365  WZ4       3189            0.0000000000
     28352      9451  TIP3      H1            -21.3246003985       22.1544242534       25.9021653365  WZ4       3189            0.0000000000
     28353      9451  TIP3      H2            -21.4544903985       23.2157142534       26.9739153365  WZ4       3189            0.0000000000
     28354      9452  TIP3      OH2            -3.8202003985       18.7055242534       32.9583653365  WZ4       3190            0.0000000000
     28355      9452  TIP3      H1             -4.7376303985       18.9762342534       32.9227153365  WZ4       3190            0.0000000000
     28356      9452  TIP3      H2             -3.6972603985       18.1703642534       32.1743353365  WZ4       3190            0.0000000000
     28357      9453  TIP3      OH2            -3.7840003985       18.6285142534       17.6201353365  WZ4       3191            0.0000000000
     28358      9453  TIP3      H1             -3.3717403985       17.9070842534       17.1449353365  WZ4       3191            0.0000000000
     28359      9453  TIP3      H2             -3.1023503985       19.2979742534       17.6785653365  WZ4       3191            0.0000000000
     28360      9454  TIP3      OH2           -21.5029303985       18.6332842534       20.7472053365  WZ4       3192            0.0000000000
     28361      9454  TIP3      H1            -22.4280903985       18.8419442534       20.6177553365  WZ4       3192            0.0000000000
     28362      9454  TIP3      H2            -21.0489403985       19.1173642534       20.0574353365  WZ4       3192            0.0000000000
     28363      9455  TIP3      OH2            -6.7322103985       33.6174542534       22.6929453365  WZ4       3193            0.0000000000
     28364      9455  TIP3      H1             -6.0799203985       33.2696642534       22.0848553365  WZ4       3193            0.0000000000
     28365      9455  TIP3      H2             -6.2218303985       34.1057742534       23.3389153365  WZ4       3193            0.0000000000
     28366      9456  TIP3      OH2           -21.5393903985       17.3711842534       29.0914553365  WZ4       3194            0.0000000000
     28367      9456  TIP3      H1            -22.2043403985       17.1252142534       29.7345453365  WZ4       3194            0.0000000000
     28368      9456  TIP3      H2            -21.9822603985       17.9932242534       28.5142553365  WZ4       3194            0.0000000000
     28369      9457  TIP3      OH2            -4.8196103985       16.7951542534       30.7774453365  WZ4       3199            0.0000000000
     28370      9457  TIP3      H1             -5.6322603985       17.1201842534       30.3899153365  WZ4       3199            0.0000000000
     28371      9457  TIP3      H2             -4.5867603985       16.0350042534       30.2443553365  WZ4       3199            0.0000000000
     28372      9458  TIP3      OH2           -11.3897603985       18.2442142534       25.1002653365  WZ4       3208            0.0000000000
     28373      9458  TIP3      H1            -12.0640803985       17.6147742534       25.3558453365  WZ4       3208            0.0000000000
     28374      9458  TIP3      H2            -10.8258403985       17.7601042534       24.4970553365  WZ4       3208            0.0000000000
     28375      9459  TIP3      OH2            -6.2470403985       16.3516142534       25.2129753365  WZ4       3209            0.0000000000
     28376      9459  TIP3      H1             -5.6432803985       16.8991542534       24.7110753365  WZ4       3209            0.0000000000
     28377      9459  TIP3      H2             -7.1168403985       16.6706542534       24.9723853365  WZ4       3209            0.0000000000
     28378      9460  TIP3      OH2            -4.5200003985       17.4904842534       23.5460653365  WZ4       3210            0.0000000000
     28379      9460  TIP3      H1             -3.9082503985       16.9760542534       23.0194253365  WZ4       3210            0.0000000000
     28380      9460  TIP3      H2             -4.1376603985       18.3676942534       23.5695053365  WZ4       3210            0.0000000000
     28381      9461  TIP3      OH2           -19.0630103985       16.8782442534       22.9222553365  WZ4       3211            0.0000000000
     28382      9461  TIP3      H1            -19.8400303985       16.6437342534       22.4148453365  WZ4       3211            0.0000000000
     28383      9461  TIP3      H2            -18.5326503985       16.0814542534       22.9310553365  WZ4       3211            0.0000000000
     28384      9462  TIP3      OH2           -20.2266703985       16.6760542534       18.7258653365  WZ4       3212            0.0000000000
     28385      9462  TIP3      H1            -19.7876003985       17.2871042534       18.1342153365  WZ4       3212            0.0000000000
     28386      9462  TIP3      H2            -20.8604303985       17.2144642534       19.1998653365  WZ4       3212            0.0000000000
     28387      9463  TIP3      OH2           -14.4837503985       16.8049542534       22.7355653365  WZ4       3213            0.0000000000
     28388      9463  TIP3      H1            -13.6094103985       17.1933842534       22.7059953365  WZ4       3213            0.0000000000
     28389      9463  TIP3      H2            -14.6196703985       16.5897342534       23.6582853365  WZ4       3213            0.0000000000
     28390      9464  TIP3      OH2            -8.9269103985       16.8349342534       24.3847353365  WZ4       3214            0.0000000000
     28391      9464  TIP3      H1             -8.8507503985       16.9300942534       23.4353353365  WZ4       3214            0.0000000000
     28392      9464  TIP3      H2             -9.2019903985       15.9272242534       24.5136453365  WZ4       3214            0.0000000000
     28393      9465  TIP3      OH2            -7.5736503985       16.8607142534       20.0772353365  WZ4       3215            0.0000000000
     28394      9465  TIP3      H1             -8.2765403985       17.4756342534       19.8673753365  WZ4       3215            0.0000000000
     28395      9465  TIP3      H2             -8.0185103985       16.0233842534       20.2083253365  WZ4       3215            0.0000000000
     28396      9466  TIP3      OH2           -20.3257203985       32.6242742534       19.6233753365  WZ4       3216            0.0000000000
     28397      9466  TIP3      H1            -21.0107303985       32.5861642534       18.9558853365  WZ4       3216            0.0000000000
     28398      9466  TIP3      H2            -20.3220003985       33.5370342534       19.9115853365  WZ4       3216            0.0000000000
     28399      9467  TIP3      OH2           -18.3657603985       18.5922042534       17.1682753365  WZ4       3217            0.0000000000
     28400      9467  TIP3      H1            -17.8744203985       17.9624442534       16.6408253365  WZ4       3217            0.0000000000
     28401      9467  TIP3      H2            -17.7421303985       18.8881442534       17.8313953365  WZ4       3217            0.0000000000
     28402      9468  TIP3      OH2           -13.3397503985       18.8853542534       19.6253253365  WZ4       3218            0.0000000000
     28403      9468  TIP3      H1            -13.1616203985       18.2386742534       20.3081853365  WZ4       3218            0.0000000000
     28404      9468  TIP3      H2            -13.3931303985       19.7191242534       20.0924353365  WZ4       3218            0.0000000000
     28405      9469  TIP3      OH2           -11.4613703985       33.8337642534       18.0209953365  WZ4       3219            0.0000000000
     28406      9469  TIP3      H1            -10.5953503985       34.2005042534       17.8428153365  WZ4       3219            0.0000000000
     28407      9469  TIP3      H2            -11.7080903985       33.3945642534       17.2070753365  WZ4       3219            0.0000000000
     28408      9470  TIP3      OH2            -4.7524103985       33.3967942534       20.7001053365  WZ4       3220            0.0000000000
     28409      9470  TIP3      H1             -4.9467003985       32.6490042534       20.1350653365  WZ4       3220            0.0000000000
     28410      9470  TIP3      H2             -4.7914003985       34.1548042534       20.1168953365  WZ4       3220            0.0000000000
     28411      9471  TIP3      OH2           -19.1052103985       17.3924342534       32.4398753365  WZ4       3221            0.0000000000
     28412      9471  TIP3      H1            -19.4713903985       16.6266942534       32.8823453365  WZ4       3221            0.0000000000
     28413      9471  TIP3      H2            -18.1923603985       17.4214542534       32.7263853365  WZ4       3221            0.0000000000
     28414      9472  TIP3      OH2           -17.1321303985       16.7428742534       33.9755853365  WZ4       3222            0.0000000000
     28415      9472  TIP3      H1            -16.2337703985       16.4688942534       33.7909253365  WZ4       3222            0.0000000000
     28416      9472  TIP3      H2            -17.5188203985       16.0004742534       34.4398453365  WZ4       3222            0.0000000000
     28417      9473  TIP3      OH2           -18.5076003985       33.5443542534       16.6485853365  WZ4       3223            0.0000000000
     28418      9473  TIP3      H1            -18.7751403985       33.8306442534       17.5218953365  WZ4       3223            0.0000000000
     28419      9473  TIP3      H2            -17.7363403985       32.9982742534       16.8008353365  WZ4       3223            0.0000000000
     28420      9474  TIP3      OH2            -8.7109003985       16.0754042534       34.1578653365  WZ4       3224            0.0000000000
     28421      9474  TIP3      H1             -8.6341803985       15.6494742534       35.0116353365  WZ4       3224            0.0000000000
     28422      9474  TIP3      H2             -7.8172403985       16.0888742534       33.8152153365  WZ4       3224            0.0000000000
     28423      9475  TIP3      OH2             8.8712496015       26.0344742534       22.8810053365  WZ4       3226            0.0000000000
     28424      9475  TIP3      H1              8.9603596015       26.9782942534       22.7487153365  WZ4       3226            0.0000000000
     28425      9475  TIP3      H2              8.2330096015       25.7591142534       22.2229453365  WZ4       3226            0.0000000000
     28426      9476  TIP3      OH2             7.8043796015       25.2895442534       26.2998253365  WZ4       3227            0.0000000000
     28427      9476  TIP3      H1              7.7661296015       24.6431742534       27.0047853365  WZ4       3227            0.0000000000
     28428      9476  TIP3      H2              7.4820296015       24.8229842534       25.5286953365  WZ4       3227            0.0000000000
     28429      9477  TIP3      OH2             0.1728796015       24.9037542534       27.8928153365  WZ4       3228            0.0000000000
     28430      9477  TIP3      H1              0.2140896015       24.2780842534       28.6160553365  WZ4       3228            0.0000000000
     28431      9477  TIP3      H2              0.8756496015       25.5276142534       28.0748553365  WZ4       3228            0.0000000000
     28432      9478  TIP3      OH2            11.5103996015       28.2285842534       24.6013353365  WZ4       3229            0.0000000000
     28433      9478  TIP3      H1             11.0696696015       27.5081842534       25.0518953365  WZ4       3229            0.0000000000
     28434      9478  TIP3      H2             11.4973696015       28.9493042534       25.2311053365  WZ4       3229            0.0000000000
     28435      9479  TIP3      OH2             1.0961896015       29.3536442534       26.4277253365  WZ4       3230            0.0000000000
     28436      9479  TIP3      H1              0.7267096015       28.5516942534       26.0581553365  WZ4       3230            0.0000000000
     28437      9479  TIP3      H2              2.0372996015       29.1851342534       26.4740653365  WZ4       3230            0.0000000000
     28438      9480  TIP3      OH2            -2.2937603985       23.0139042534       21.8206053365  WZ4       3231            0.0000000000
     28439      9480  TIP3      H1             -2.7414203985       23.8597742534       21.8022553365  WZ4       3231            0.0000000000
     28440      9480  TIP3      H2             -2.8546403985       22.4343242534       21.3051153365  WZ4       3231            0.0000000000
     28441      9481  TIP3      OH2            -1.5831503985       25.1758642534       23.9464053365  WZ4       3232            0.0000000000
     28442      9481  TIP3      H1             -1.3698003985       24.4060242534       24.4737053365  WZ4       3232            0.0000000000
     28443      9481  TIP3      H2             -0.8453903985       25.2655342534       23.3431653365  WZ4       3232            0.0000000000
     28444      9482  TIP3      OH2             8.6219496015       33.3327542534       24.8133753365  WZ4       3233            0.0000000000
     28445      9482  TIP3      H1              9.2415896015       32.6562242534       24.5402953365  WZ4       3233            0.0000000000
     28446      9482  TIP3      H2              8.4136896015       33.1148342534       25.7218653365  WZ4       3233            0.0000000000
     28447      9483  TIP3      OH2             6.1938196015       27.7216842534       26.7059253365  WZ4       3234            0.0000000000
     28448      9483  TIP3      H1              6.4976096015       27.0358242534       26.1113353365  WZ4       3234            0.0000000000
     28449      9483  TIP3      H2              6.9152196015       27.8405542534       27.3237253365  WZ4       3234            0.0000000000
     28450      9484  TIP3      OH2            14.8567996015       19.3232142534       27.5665453365  WZ4       3235            0.0000000000
     28451      9484  TIP3      H1             14.9060196015       19.9333342534       28.3024553365  WZ4       3235            0.0000000000
     28452      9484  TIP3      H2             15.2823096015       19.7843042534       26.8436553365  WZ4       3235            0.0000000000
     28453      9485  TIP3      OH2             9.3345196015       22.1159242534       27.0334053365  WZ4       3236            0.0000000000
     28454      9485  TIP3      H1              9.4771096015       21.1696242534       27.0535653365  WZ4       3236            0.0000000000
     28455      9485  TIP3      H2              9.2284196015       22.3229042534       26.1048953365  WZ4       3236            0.0000000000
     28456      9486  TIP3      OH2             2.4893496015       20.2175642534       24.3058853365  WZ4       3237            0.0000000000
     28457      9486  TIP3      H1              2.5324596015       21.0774142534       23.8875153365  WZ4       3237            0.0000000000
     28458      9486  TIP3      H2              2.0317596015       19.6650342534       23.6722053365  WZ4       3237            0.0000000000
     28459      9487  TIP3      OH2            10.2116196015       20.3481242534       22.7067153365  WZ4       3238            0.0000000000
     28460      9487  TIP3      H1             10.8580496015       20.0194442534       23.3314753365  WZ4       3238            0.0000000000
     28461      9487  TIP3      H2             10.7215596015       20.8660242534       22.0838553365  WZ4       3238            0.0000000000
     28462      9488  TIP3      OH2            -0.8905003985       22.6141442534       25.0680253365  WZ4       3239            0.0000000000
     28463      9488  TIP3      H1             -0.2368403985       22.0643142534       25.5000353365  WZ4       3239            0.0000000000
     28464      9488  TIP3      H2             -0.8665703985       22.3400442534       24.1512253365  WZ4       3239            0.0000000000
     28465      9489  TIP3      OH2             4.2659496015       24.1642742534       24.2831753365  WZ4       3240            0.0000000000
     28466      9489  TIP3      H1              4.8820496015       23.6378142534       24.7925753365  WZ4       3240            0.0000000000
     28467      9489  TIP3      H2              3.6798296015       23.5241442534       23.8795353365  WZ4       3240            0.0000000000
     28468      9490  TIP3      OH2             1.2995396015       19.1354042534       28.3799653365  WZ4       3242            0.0000000000
     28469      9490  TIP3      H1              1.0807096015       19.6654642534       27.6135653365  WZ4       3242            0.0000000000
     28470      9490  TIP3      H2              0.6316296015       19.3619542534       29.0271053365  WZ4       3242            0.0000000000
     28471      9491  TIP3      OH2             8.6685196015       28.6355142534       21.9238753365  WZ4       3243            0.0000000000
     28472      9491  TIP3      H1              8.3730296015       28.3127442534       21.0725653365  WZ4       3243            0.0000000000
     28473      9491  TIP3      H2              8.3442996015       29.5351842534       21.9651353365  WZ4       3243            0.0000000000
     28474      9492  TIP3      OH2             3.8686796015       26.8109742534       28.6673353365  WZ4       3244            0.0000000000
     28475      9492  TIP3      H1              3.1285896015       27.4091242534       28.7708553365  WZ4       3244            0.0000000000
     28476      9492  TIP3      H2              4.5826296015       27.3649342534       28.3516953365  WZ4       3244            0.0000000000
     28477      9493  TIP3      OH2            11.9754596015       19.6390542534       24.6873053365  WZ4       3245            0.0000000000
     28478      9493  TIP3      H1             11.7602596015       18.8733942534       25.2199053365  WZ4       3245            0.0000000000
     28479      9493  TIP3      H2             12.6311996015       20.1115142534       25.2001553365  WZ4       3245            0.0000000000
     28480      9494  TIP3      OH2             0.8932696015       21.0275842534       26.3321853365  WZ4       3246            0.0000000000
     28481      9494  TIP3      H1              1.5068996015       21.6603442534       26.7054253365  WZ4       3246            0.0000000000
     28482      9494  TIP3      H2              1.4053396015       20.5550842534       25.6758753365  WZ4       3246            0.0000000000
     28483      9495  TIP3      OH2             2.2761096015       28.7752742534       29.4544853365  WZ4       3247            0.0000000000
     28484      9495  TIP3      H1              2.2708696015       29.6546242534       29.0764153365  WZ4       3247            0.0000000000
     28485      9495  TIP3      H2              1.4225196015       28.6916842534       29.8794753365  WZ4       3247            0.0000000000
     28486      9496  TIP3      OH2            -1.6028003985       28.4460642534       20.2364153365  WZ4       3248            0.0000000000
     28487      9496  TIP3      H1             -1.8747103985       28.6751642534       19.3477053365  WZ4       3248            0.0000000000
     28488      9496  TIP3      H2             -1.5572303985       29.2839442534       20.6969453365  WZ4       3248            0.0000000000
     28489      9497  TIP3      OH2            12.3228696015       18.3541842534       28.3666553365  WZ4       3250            0.0000000000
     28490      9497  TIP3      H1             11.5867896015       18.9648942534       28.3287853365  WZ4       3250            0.0000000000
     28491      9497  TIP3      H2             13.0062696015       18.7690842534       27.8402953365  WZ4       3250            0.0000000000
     28492      9498  TIP3      OH2             5.3260096015       16.4409142534       25.8324553365  WZ4       3251            0.0000000000
     28493      9498  TIP3      H1              5.2084296015       15.4925142534       25.7782853365  WZ4       3251            0.0000000000
     28494      9498  TIP3      H2              4.4710196015       16.7735242534       26.1055653365  WZ4       3251            0.0000000000
     28495      9499  TIP3      OH2            10.2742896015       31.8490042534       23.5744253365  WZ4       3252            0.0000000000
     28496      9499  TIP3      H1             10.6995196015       31.1417942534       23.0893853365  WZ4       3252            0.0000000000
     28497      9499  TIP3      H2             10.5912896015       32.6502742534       23.1576453365  WZ4       3252            0.0000000000
     28498      9500  TIP3      OH2            11.4339396015       29.7498542534       22.0830853365  WZ4       3253            0.0000000000
     28499      9500  TIP3      H1             11.1764196015       29.0598642534       21.4716753365  WZ4       3253            0.0000000000
     28500      9500  TIP3      H2             11.5050196015       29.3069742534       22.9286753365  WZ4       3253            0.0000000000
     28501      9501  TIP3      OH2             7.5924996015       25.2784742534       20.3330353365  WZ4       3255            0.0000000000
     28502      9501  TIP3      H1              6.8810496015       25.8134442534       19.9810853365  WZ4       3255            0.0000000000
     28503      9501  TIP3      H2              8.2834596015       25.3336842534       19.6729253365  WZ4       3255            0.0000000000
     28504      9502  TIP3      OH2             7.6464196015       23.7359042534       17.3715353365  WZ4       3256            0.0000000000
     28505      9502  TIP3      H1              8.3474096015       23.7585942534       18.0229353365  WZ4       3256            0.0000000000
     28506      9502  TIP3      H2              7.9487096015       23.1078742534       16.7154653365  WZ4       3256            0.0000000000
     28507      9503  TIP3      OH2            10.9982696015       25.4878042534       21.2846253365  WZ4       3258            0.0000000000
     28508      9503  TIP3      H1             10.2663696015       25.7161742534       21.8576853365  WZ4       3258            0.0000000000
     28509      9503  TIP3      H2             11.4454896015       24.7740742534       21.7393753365  WZ4       3258            0.0000000000
     28510      9504  TIP3      OH2             2.6436396015       26.1184242534       23.1671253365  WZ4       3260            0.0000000000
     28511      9504  TIP3      H1              2.3131596015       25.7477642534       22.3488253365  WZ4       3260            0.0000000000
     28512      9504  TIP3      H2              3.2320496015       25.4478242534       23.5139553365  WZ4       3260            0.0000000000
     28513      9505  TIP3      OH2             4.0103896015       29.5464842534       25.8483453365  WZ4       3261            0.0000000000
     28514      9505  TIP3      H1              3.9155196015       28.9677942534       25.0918053365  WZ4       3261            0.0000000000
     28515      9505  TIP3      H2              4.7397496015       29.1750542534       26.3446253365  WZ4       3261            0.0000000000
     28516      9506  TIP3      OH2             3.0101896015       24.8869842534       26.8006253365  WZ4       3262            0.0000000000
     28517      9506  TIP3      H1              3.5754396015       25.0084042534       26.0377453365  WZ4       3262            0.0000000000
     28518      9506  TIP3      H2              3.3290796015       25.5244842534       27.4394753365  WZ4       3262            0.0000000000
     28519      9507  TIP3      OH2             9.8692196015       24.6500942534       18.9697453365  WZ4       3265            0.0000000000
     28520      9507  TIP3      H1             10.4487696015       24.8001242534       19.7166353365  WZ4       3265            0.0000000000
     28521      9507  TIP3      H2             10.2832196015       25.1208342534       18.2463853365  WZ4       3265            0.0000000000
     28522      9508  TIP3      OH2             0.8102496015       25.4843642534       30.7463853365  WZ4       3266            0.0000000000
     28523      9508  TIP3      H1              0.8805696015       26.1350442534       31.4448853365  WZ4       3266            0.0000000000
     28524      9508  TIP3      H2             -0.0805303985       25.5871142534       30.4114753365  WZ4       3266            0.0000000000
     28525      9509  TIP3      OH2             7.5957096015       31.3869442534       22.4050553365  WZ4       3267            0.0000000000
     28526      9509  TIP3      H1              8.0694696015       31.6825742534       23.1824753365  WZ4       3267            0.0000000000
     28527      9509  TIP3      H2              7.0326396015       32.1251042534       22.1720153365  WZ4       3267            0.0000000000
     28528      9510  TIP3      OH2            13.5680596015       16.4001342534       18.7827153365  WZ4       3269            0.0000000000
     28529      9510  TIP3      H1             12.6681296015       16.5390342534       19.0777753365  WZ4       3269            0.0000000000
     28530      9510  TIP3      H2             13.8198996015       17.2315942534       18.3808853365  WZ4       3269            0.0000000000
     28531      9511  TIP3      OH2             1.6339096015       25.1878542534       20.7564053365  WZ4       3270            0.0000000000
     28532      9511  TIP3      H1              1.3420396015       25.9560242534       20.2655353365  WZ4       3270            0.0000000000
     28533      9511  TIP3      H2              0.9594296015       24.5284742534       20.5935453365  WZ4       3270            0.0000000000
     28534      9512  TIP3      OH2            14.7571996015       30.7663742534       17.1591053365  WZ4       3271            0.0000000000
     28535      9512  TIP3      H1             14.8305496015       31.7053942534       17.3296353365  WZ4       3271            0.0000000000
     28536      9512  TIP3      H2             15.6627096015       30.4612342534       17.1028353365  WZ4       3271            0.0000000000
     28537      9513  TIP3      OH2            -2.2730803985       27.5507742534       29.5713853365  WZ4       3272            0.0000000000
     28538      9513  TIP3      H1             -2.7742403985       27.5227142534       28.7563553365  WZ4       3272            0.0000000000
     28539      9513  TIP3      H2             -2.2677103985       26.6450942534       29.8811153365  WZ4       3272            0.0000000000
     28540      9514  TIP3      OH2            -2.5228103985       30.3311542534       26.4554053365  WZ4       3273            0.0000000000
     28541      9514  TIP3      H1             -1.5767503985       30.1868542534       26.4363553365  WZ4       3273            0.0000000000
     28542      9514  TIP3      H2             -2.6351803985       31.1154342534       26.9925253365  WZ4       3273            0.0000000000
     28543      9515  TIP3      OH2             7.0680196015       34.3434142534       20.8199753365  WZ4       3276            0.0000000000
     28544      9515  TIP3      H1              6.9926196015       34.2221342534       19.8734953365  WZ4       3276            0.0000000000
     28545      9515  TIP3      H2              7.1008896015       35.2926842534       20.9384353365  WZ4       3276            0.0000000000
     28546      9516  TIP3      OH2             0.7213996015       33.1321142534       22.6008753365  WZ4       3277            0.0000000000
     28547      9516  TIP3      H1              0.8734396015       32.7841542534       23.4795253365  WZ4       3277            0.0000000000
     28548      9516  TIP3      H2             -0.1295603985       32.7758442534       22.3455953365  WZ4       3277            0.0000000000
     28549      9517  TIP3      OH2            10.1696196015       33.4974342534       17.8222153365  WZ4       3278            0.0000000000
     28550      9517  TIP3      H1             10.5444596015       32.7530442534       17.3514753365  WZ4       3278            0.0000000000
     28551      9517  TIP3      H2             10.1739896015       33.2274942534       18.7405453365  WZ4       3278            0.0000000000
     28552      9518  TIP3      OH2             9.8384296015       33.4231442534       20.5714353365  WZ4       3279            0.0000000000
     28553      9518  TIP3      H1              8.9034096015       33.5233342534       20.7501353365  WZ4       3279            0.0000000000
     28554      9518  TIP3      H2             10.1186196015       32.7137442534       21.1497553365  WZ4       3279            0.0000000000
     28555      9519  TIP3      OH2            -0.0240303985       28.8743142534       30.6146653365  WZ4       3281            0.0000000000
     28556      9519  TIP3      H1              0.1920996015       28.5128742534       31.4742453365  WZ4       3281            0.0000000000
     28557      9519  TIP3      H2             -0.8795603985       28.4996942534       30.4050153365  WZ4       3281            0.0000000000
     28558      9520  TIP3      OH2             2.5947696015       17.3443642534       26.6100853365  WZ4       3282            0.0000000000
     28559      9520  TIP3      H1              1.7331396015       17.2571842534       26.2023753365  WZ4       3282            0.0000000000
     28560      9520  TIP3      H2              2.5723396015       18.2003742534       27.0378453365  WZ4       3282            0.0000000000
     28561      9521  TIP3      OH2             7.2575496015       17.0664042534       29.9847853365  WZ4       3283            0.0000000000
     28562      9521  TIP3      H1              7.6778596015       16.6511142534       30.7378453365  WZ4       3283            0.0000000000
     28563      9521  TIP3      H2              6.3245096015       16.8877342534       30.1019853365  WZ4       3283            0.0000000000
     28564      9522  TIP3      OH2            11.3465296015       25.6829242534       16.5995353365  WZ4       3285            0.0000000000
     28565      9522  TIP3      H1             11.3886096015       25.4603142534       15.6695353365  WZ4       3285            0.0000000000
     28566      9522  TIP3      H2             12.1957396015       26.0816342534       16.7895253365  WZ4       3285            0.0000000000
     28567      9523  TIP3      OH2             6.9192796015       19.5587442534       17.2698653365  WZ4       3286            0.0000000000
     28568      9523  TIP3      H1              6.6657596015       19.5779042534       18.1926753365  WZ4       3286            0.0000000000
     28569      9523  TIP3      H2              6.6624896015       18.6872842534       16.9684853365  WZ4       3286            0.0000000000
     28570      9524  TIP3      OH2             2.6857796015       22.3098142534       27.7051053365  WZ4       3287            0.0000000000
     28571      9524  TIP3      H1              2.0439896015       22.2695442534       28.4141153365  WZ4       3287            0.0000000000
     28572      9524  TIP3      H2              2.7229796015       23.2362842534       27.4674053365  WZ4       3287            0.0000000000
     28573      9525  TIP3      OH2             2.6826896015       22.5308242534       22.6171053365  WZ4       3288            0.0000000000
     28574      9525  TIP3      H1              1.7899796015       22.1904342534       22.5584853365  WZ4       3288            0.0000000000
     28575      9525  TIP3      H2              3.1333496015       22.1539142534       21.8614253365  WZ4       3288            0.0000000000
     28576      9526  TIP3      OH2             8.2182396015       22.9468542534       21.4341853365  WZ4       3289            0.0000000000
     28577      9526  TIP3      H1              7.8092696015       23.7617142534       21.1426653365  WZ4       3289            0.0000000000
     28578      9526  TIP3      H2              8.9388596015       22.8068642534       20.8198953365  WZ4       3289            0.0000000000
     28579      9527  TIP3      OH2             9.2230096015       22.3928942534       24.2481553365  WZ4       3291            0.0000000000
     28580      9527  TIP3      H1              9.0274596015       22.9985742534       23.5332153365  WZ4       3291            0.0000000000
     28581      9527  TIP3      H2              9.4042696015       21.5594142534       23.8137853365  WZ4       3291            0.0000000000
     28582      9528  TIP3      OH2             0.4358296015       22.6301642534       29.5723053365  WZ4       3292            0.0000000000
     28583      9528  TIP3      H1              0.3977696015       23.0303242534       30.4410153365  WZ4       3292            0.0000000000
     28584      9528  TIP3      H2             -0.0550603985       21.8134042534       29.6625953365  WZ4       3292            0.0000000000
     28585      9529  TIP3      OH2             3.8015696015       20.0043942534       16.3709053365  WZ4       3293            0.0000000000
     28586      9529  TIP3      H1              3.3706396015       19.5594042534       17.1006453365  WZ4       3293            0.0000000000
     28587      9529  TIP3      H2              3.0834396015       20.3760242534       15.8586553365  WZ4       3293            0.0000000000
     28588      9530  TIP3      OH2            -2.9560903985       19.7463442534       23.4227753365  WZ4       3294            0.0000000000
     28589      9530  TIP3      H1             -2.3253203985       19.7175542534       24.1421653365  WZ4       3294            0.0000000000
     28590      9530  TIP3      H2             -2.5066603985       19.3212142534       22.6923653365  WZ4       3294            0.0000000000
     28591      9531  TIP3      OH2            -1.6818803985       20.4925442534       18.8468153365  WZ4       3295            0.0000000000
     28592      9531  TIP3      H1             -1.2077103985       21.0835342534       18.2619053365  WZ4       3295            0.0000000000
     28593      9531  TIP3      H2             -2.3992403985       21.0228342534       19.1938253365  WZ4       3295            0.0000000000
     28594      9532  TIP3      OH2             8.4869296015       24.0310242534       28.9193953365  WZ4       3296            0.0000000000
     28595      9532  TIP3      H1              8.8104096015       23.3999942534       28.2764453365  WZ4       3296            0.0000000000
     28596      9532  TIP3      H2              8.0468596015       23.4962442534       29.5801353365  WZ4       3296            0.0000000000
     28597      9533  TIP3      OH2             5.2642196015       19.9585742534       23.7035153365  WZ4       3297            0.0000000000
     28598      9533  TIP3      H1              4.3533296015       20.0152542534       23.9921153365  WZ4       3297            0.0000000000
     28599      9533  TIP3      H2              5.7695096015       19.8981242534       24.5142353365  WZ4       3297            0.0000000000
     28600      9534  TIP3      OH2             0.0925596015       21.5872042534       22.5302753365  WZ4       3298            0.0000000000
     28601      9534  TIP3      H1             -0.7966403985       21.6867542534       22.1902353365  WZ4       3298            0.0000000000
     28602      9534  TIP3      H2              0.3890496015       20.7455042534       22.1840653365  WZ4       3298            0.0000000000
     28603      9535  TIP3      OH2             3.7457396015       21.5874642534       20.1867353365  WZ4       3299            0.0000000000
     28604      9535  TIP3      H1              4.6772896015       21.7164642534       20.3650453365  WZ4       3299            0.0000000000
     28605      9535  TIP3      H2              3.5307696015       22.2568942534       19.5372053365  WZ4       3299            0.0000000000
     28606      9536  TIP3      OH2             9.6694096015       19.1932042534       26.9676953365  WZ4       3300            0.0000000000
     28607      9536  TIP3      H1              8.9925696015       19.3245142534       27.6316653365  WZ4       3300            0.0000000000
     28608      9536  TIP3      H2              9.1838996015       19.0381542534       26.1574653365  WZ4       3300            0.0000000000
     28609      9537  TIP3      OH2             2.4197596015       22.7816842534       17.7533453365  WZ4       3301            0.0000000000
     28610      9537  TIP3      H1              1.8772696015       22.4020642534       17.0621053365  WZ4       3301            0.0000000000
     28611      9537  TIP3      H2              3.2532496015       22.9761542534       17.3247553365  WZ4       3301            0.0000000000
     28612      9538  TIP3      OH2             0.5548996015       27.3388742534       32.8525053365  WZ4       3303            0.0000000000
     28613      9538  TIP3      H1              1.2871396015       27.5934642534       33.4139553365  WZ4       3303            0.0000000000
     28614      9538  TIP3      H2             -0.2252303985       27.5434142534       33.3680453365  WZ4       3303            0.0000000000
     28615      9539  TIP3      OH2             6.5841896015       22.7458742534       25.5904753365  WZ4       3304            0.0000000000
     28616      9539  TIP3      H1              7.1485296015       22.1995342534       25.0434353365  WZ4       3304            0.0000000000
     28617      9539  TIP3      H2              6.4365296015       22.2240642534       26.3792353365  WZ4       3304            0.0000000000
     28618      9540  TIP3      OH2             1.5861596015       18.8824842534       22.0089553365  WZ4       3305            0.0000000000
     28619      9540  TIP3      H1              1.2691096015       17.9800142534       21.9734953365  WZ4       3305            0.0000000000
     28620      9540  TIP3      H2              2.3675696015       18.8842242534       21.4561153365  WZ4       3305            0.0000000000
     28621      9541  TIP3      OH2             5.2107796015       21.1344842534       28.0045153365  WZ4       3306            0.0000000000
     28622      9541  TIP3      H1              4.3753096015       21.5884342534       28.1147553365  WZ4       3306            0.0000000000
     28623      9541  TIP3      H2              5.7348396015       21.4103342534       28.7565053365  WZ4       3306            0.0000000000
     28624      9542  TIP3      OH2             5.7550396015       27.3472542534       19.6891553365  WZ4       3307            0.0000000000
     28625      9542  TIP3      H1              5.0101396015       26.8397842534       19.3669453365  WZ4       3307            0.0000000000
     28626      9542  TIP3      H2              5.6207596015       27.3960542534       20.6356353365  WZ4       3307            0.0000000000
     28627      9543  TIP3      OH2             9.6527196015       20.1612442534       17.8884153365  WZ4       3309            0.0000000000
     28628      9543  TIP3      H1              8.7141396015       20.2728042534       17.7372953365  WZ4       3309            0.0000000000
     28629      9543  TIP3      H2              9.9499296015       21.0179342534       18.1949853365  WZ4       3309            0.0000000000
     28630      9544  TIP3      OH2            10.3710696015       22.0285142534       19.5491553365  WZ4       3311            0.0000000000
     28631      9544  TIP3      H1             11.2629696015       21.8910142534       19.8682753365  WZ4       3311            0.0000000000
     28632      9544  TIP3      H2             10.4274296015       22.8191242534       19.0125053365  WZ4       3311            0.0000000000
     28633      9545  TIP3      OH2             0.8798696015       26.6422542534       25.4589453365  WZ4       3312            0.0000000000
     28634      9545  TIP3      H1              1.6245896015       26.6398242534       24.8575953365  WZ4       3312            0.0000000000
     28635      9545  TIP3      H2              0.9575296015       25.8186342534       25.9404553365  WZ4       3312            0.0000000000
     28636      9546  TIP3      OH2             7.8804496015       28.8056842534       18.7146153365  WZ4       3313            0.0000000000
     28637      9546  TIP3      H1              7.5852896015       29.6324742534       19.0960953365  WZ4       3313            0.0000000000
     28638      9546  TIP3      H2              7.1774496015       28.1863742534       18.9107553365  WZ4       3313            0.0000000000
     28639      9547  TIP3      OH2            -2.1121603985       25.1029442534       30.7737953365  WZ4       3314            0.0000000000
     28640      9547  TIP3      H1             -1.8893003985       24.6849042534       31.6055453365  WZ4       3314            0.0000000000
     28641      9547  TIP3      H2             -2.7141503985       24.4904442534       30.3510753365  WZ4       3314            0.0000000000
     28642      9548  TIP3      OH2            15.2559396015       22.2379242534       19.2438253365  WZ4       3317            0.0000000000
     28643      9548  TIP3      H1             14.7015696015       21.8417242534       18.5715753365  WZ4       3317            0.0000000000
     28644      9548  TIP3      H2             15.3562996015       23.1484442534       18.9661553365  WZ4       3317            0.0000000000
     28645      9549  TIP3      OH2            13.5511096015       31.0239642534       19.7090353365  WZ4       3319            0.0000000000
     28646      9549  TIP3      H1             13.1782196015       30.1983442534       20.0180953365  WZ4       3319            0.0000000000
     28647      9549  TIP3      H2             13.8284596015       30.8409042534       18.8113753365  WZ4       3319            0.0000000000
     28648      9550  TIP3      OH2            10.7114996015       25.8319142534       26.7302253365  WZ4       3320            0.0000000000
     28649      9550  TIP3      H1              9.7831896015       25.6001042534       26.7031553365  WZ4       3320            0.0000000000
     28650      9550  TIP3      H2             11.1626096015       25.0548942534       26.4001053365  WZ4       3320            0.0000000000
     28651      9551  TIP3      OH2             3.2548096015       30.1600742534       22.8630953365  WZ4       3321            0.0000000000
     28652      9551  TIP3      H1              3.7820296015       30.9335142534       22.6629753365  WZ4       3321            0.0000000000
     28653      9551  TIP3      H2              2.3746596015       30.3849942534       22.5614953365  WZ4       3321            0.0000000000
     28654      9552  TIP3      OH2            -0.9904203985       25.0224842534       17.4503353365  WZ4       3322            0.0000000000
     28655      9552  TIP3      H1             -0.3744303985       25.6492042534       17.8298153365  WZ4       3322            0.0000000000
     28656      9552  TIP3      H2             -1.8521603985       25.3384642534       17.7219853365  WZ4       3322            0.0000000000
     28657      9553  TIP3      OH2             4.6820396015       27.8230642534       22.4395253365  WZ4       3323            0.0000000000
     28658      9553  TIP3      H1              4.4410396015       28.7485042534       22.4810553365  WZ4       3323            0.0000000000
     28659      9553  TIP3      H2              3.9413996015       27.3641942534       22.8359153365  WZ4       3323            0.0000000000
     28660      9554  TIP3      OH2             3.3651196015       32.8448242534       21.9847453365  WZ4       3325            0.0000000000
     28661      9554  TIP3      H1              2.4151696015       32.9505642534       22.0360753365  WZ4       3325            0.0000000000
     28662      9554  TIP3      H2              3.7169296015       33.6655642534       22.3294953365  WZ4       3325            0.0000000000
     28663      9555  TIP3      OH2             8.7407796015       28.0714942534       28.4551953365  WZ4       3326            0.0000000000
     28664      9555  TIP3      H1              8.3149096015       27.8436642534       29.2815953365  WZ4       3326            0.0000000000
     28665      9555  TIP3      H2              9.3213596015       27.3326742534       28.2727253365  WZ4       3326            0.0000000000
     28666      9556  TIP3      OH2            10.9436696015       29.0005442534       17.5290953365  WZ4       3327            0.0000000000
     28667      9556  TIP3      H1             11.2969796015       28.6205242534       18.3334453365  WZ4       3327            0.0000000000
     28668      9556  TIP3      H2              9.9950196015       28.9070242534       17.6160253365  WZ4       3327            0.0000000000
     28669      9557  TIP3      OH2            15.4471096015       33.4797942534       17.7301153365  WZ4       3329            0.0000000000
     28670      9557  TIP3      H1             16.1908996015       34.0658442534       17.5902753365  WZ4       3329            0.0000000000
     28671      9557  TIP3      H2             14.7529196015       34.0483742534       18.0633553365  WZ4       3329            0.0000000000
     28672      9558  TIP3      OH2            -0.4782103985       19.8562142534       30.3319353365  WZ4       3330            0.0000000000
     28673      9558  TIP3      H1             -1.3709803985       20.1947542534       30.2643353365  WZ4       3330            0.0000000000
     28674      9558  TIP3      H2             -0.5769303985       19.0008242534       30.7500153365  WZ4       3330            0.0000000000
     28675      9559  TIP3      OH2            11.8095996015       27.6727442534       19.7558853365  WZ4       3331            0.0000000000
     28676      9559  TIP3      H1             11.5323596015       26.9446742534       20.3119953365  WZ4       3331            0.0000000000
     28677      9559  TIP3      H2             12.7368996015       27.7919442534       19.9611453365  WZ4       3331            0.0000000000
     28678      9560  TIP3      OH2            -0.8270103985       31.6606542534       28.7668753365  WZ4       3332            0.0000000000
     28679      9560  TIP3      H1             -0.6099803985       30.7288942534       28.7358453365  WZ4       3332            0.0000000000
     28680      9560  TIP3      H2             -0.5806603985       31.9351542534       29.6501553365  WZ4       3332            0.0000000000
     28681      9561  TIP3      OH2             5.0344496015       30.1121542534       15.9760953365  WZ4       3333            0.0000000000
     28682      9561  TIP3      H1              5.2734296015       29.3639642534       15.4289853365  WZ4       3333            0.0000000000
     28683      9561  TIP3      H2              4.7655796015       29.7243242534       16.8088753365  WZ4       3333            0.0000000000
     28684      9562  TIP3      OH2             3.9715096015       29.6825342534       18.4323553365  WZ4       3334            0.0000000000
     28685      9562  TIP3      H1              4.1183096015       29.1625142534       19.2224453365  WZ4       3334            0.0000000000
     28686      9562  TIP3      H2              3.9686796015       30.5892942534       18.7389453365  WZ4       3334            0.0000000000
     28687      9563  TIP3      OH2             0.4246196015       26.9348642534       18.9428953365  WZ4       3335            0.0000000000
     28688      9563  TIP3      H1             -0.2614503985       27.2871142534       19.5098653365  WZ4       3335            0.0000000000
     28689      9563  TIP3      H2              0.9474096015       27.6978242534       18.6963253365  WZ4       3335            0.0000000000
     28690      9564  TIP3      OH2             8.2561296015       19.5972442534       29.2217953365  WZ4       3336            0.0000000000
     28691      9564  TIP3      H1              8.9549196015       19.6711142534       29.8717653365  WZ4       3336            0.0000000000
     28692      9564  TIP3      H2              7.8752696015       18.7327442534       29.3760853365  WZ4       3336            0.0000000000
     28693      9565  TIP3      OH2             9.0406196015       19.2494142534       20.3190253365  WZ4       3337            0.0000000000
     28694      9565  TIP3      H1              9.2604496015       19.7209542534       19.5155653365  WZ4       3337            0.0000000000
     28695      9565  TIP3      H2              9.5990196015       19.6436742534       20.9890853365  WZ4       3337            0.0000000000
     28696      9566  TIP3      OH2             6.7092296015       31.3798942534       19.1817753365  WZ4       3338            0.0000000000
     28697      9566  TIP3      H1              5.8928396015       31.8768642534       19.2342053365  WZ4       3338            0.0000000000
     28698      9566  TIP3      H2              7.2388596015       31.8552442534       18.5416553365  WZ4       3338            0.0000000000
     28699      9567  TIP3      OH2             6.2406096015       20.9772942534       21.1538653365  WZ4       3339            0.0000000000
     28700      9567  TIP3      H1              7.0528696015       21.4816142534       21.2000353365  WZ4       3339            0.0000000000
     28701      9567  TIP3      H2              5.9959096015       20.8322642534       22.0678253365  WZ4       3339            0.0000000000
     28702      9568  TIP3      OH2             6.7762496015       21.9635642534       30.3385253365  WZ4       3340            0.0000000000
     28703      9568  TIP3      H1              6.8952796015       22.5371042534       31.0955653365  WZ4       3340            0.0000000000
     28704      9568  TIP3      H2              7.4317096015       21.2755042534       30.4533053365  WZ4       3340            0.0000000000
     28705      9569  TIP3      OH2             7.1242796015       18.0585942534       22.0919753365  WZ4       3341            0.0000000000
     28706      9569  TIP3      H1              6.7776296015       18.6756542534       22.7364053365  WZ4       3341            0.0000000000
     28707      9569  TIP3      H2              7.7829696015       18.5591642534       21.6105253365  WZ4       3341            0.0000000000
     28708      9570  TIP3      OH2             4.0475396015       32.4236142534       19.1634653365  WZ4       3342            0.0000000000
     28709      9570  TIP3      H1              4.2084096015       33.2233642534       18.6627253365  WZ4       3342            0.0000000000
     28710      9570  TIP3      H2              3.8503196015       32.7302142534       20.0485253365  WZ4       3342            0.0000000000
     28711      9571  TIP3      OH2             2.7819796015       19.1215342534       18.7792253365  WZ4       3343            0.0000000000
     28712      9571  TIP3      H1              2.6984596015       20.0098442534       19.1258653365  WZ4       3343            0.0000000000
     28713      9571  TIP3      H2              3.6720096015       18.8562042534       19.0109053365  WZ4       3343            0.0000000000
     28714      9572  TIP3      OH2            11.5829296015       23.6206942534       25.2692253365  WZ4       3345            0.0000000000
     28715      9572  TIP3      H1             10.7853696015       23.2057142534       24.9407253365  WZ4       3345            0.0000000000
     28716      9572  TIP3      H2             12.0280396015       22.9300642534       25.7602753365  WZ4       3345            0.0000000000
     28717      9573  TIP3      OH2             1.0405096015       29.5487542534       17.8396753365  WZ4       3346            0.0000000000
     28718      9573  TIP3      H1              1.6326596015       30.2482342534       18.1159153365  WZ4       3346            0.0000000000
     28719      9573  TIP3      H2              1.4998096015       29.1157042534       17.1201353365  WZ4       3346            0.0000000000
     28720      9574  TIP3      OH2            -0.6435703985       22.2130542534       16.9556153365  WZ4       3347            0.0000000000
     28721      9574  TIP3      H1             -0.6883103985       23.1523642534       17.1343153365  WZ4       3347            0.0000000000
     28722      9574  TIP3      H2             -1.5312503985       21.9775442534       16.6858253365  WZ4       3347            0.0000000000
     28723      9575  TIP3      OH2             0.1646296015       16.9947142534       25.6287153365  WZ4       3349            0.0000000000
     28724      9575  TIP3      H1             -0.0643903985       17.0539642534       24.7012153365  WZ4       3349            0.0000000000
     28725      9575  TIP3      H2             -0.2780303985       16.2032642534       25.9351253365  WZ4       3349            0.0000000000
     28726      9576  TIP3      OH2            -0.9050403985       30.9354242534       21.7892953365  WZ4       3350            0.0000000000
     28727      9576  TIP3      H1             -1.7371803985       31.4076942534       21.8164353365  WZ4       3350            0.0000000000
     28728      9576  TIP3      H2             -0.3592103985       31.4451842534       21.1906053365  WZ4       3350            0.0000000000
     28729      9577  TIP3      OH2             7.0726296015       31.9752942534       16.1146953365  WZ4       3353            0.0000000000
     28730      9577  TIP3      H1              6.4287296015       31.3441542534       16.4360653365  WZ4       3353            0.0000000000
     28731      9577  TIP3      H2              7.8344596015       31.4440942534       15.8830453365  WZ4       3353            0.0000000000
     28732      9578  TIP3      OH2            11.6769196015       31.7922842534       16.3484953365  WZ4       3355            0.0000000000
     28733      9578  TIP3      H1             11.9599596015       30.9978042534       16.8011853365  WZ4       3355            0.0000000000
     28734      9578  TIP3      H2             12.4167096015       32.0253842534       15.7876053365  WZ4       3355            0.0000000000
     28735      9579  TIP3      OH2            -1.7097203985       27.3582042534       34.0735253365  WZ4       3356            0.0000000000
     28736      9579  TIP3      H1             -1.5656703985       26.4562742534       33.7871953365  WZ4       3356            0.0000000000
     28737      9579  TIP3      H2             -2.4819803985       27.6444142534       33.5857553365  WZ4       3356            0.0000000000
     28738      9580  TIP3      OH2             2.6316496015       27.7017742534       16.2059853365  WZ4       3357            0.0000000000
     28739      9580  TIP3      H1              2.6960596015       26.9077342534       16.7366253365  WZ4       3357            0.0000000000
     28740      9580  TIP3      H2              3.2845696015       27.5830542534       15.5161853365  WZ4       3357            0.0000000000
     28741      9581  TIP3      OH2             7.9839896015       28.7489442534       15.9417853365  WZ4       3359            0.0000000000
     28742      9581  TIP3      H1              7.7153996015       28.9291542534       16.8426753365  WZ4       3359            0.0000000000
     28743      9581  TIP3      H2              7.7775496015       27.8235642534       15.8103653365  WZ4       3359            0.0000000000
     28744      9582  TIP3      OH2            -0.8770703985       24.5585342534       33.4934553365  WZ4       3361            0.0000000000
     28745      9582  TIP3      H1             -0.4689503985       23.7011942534       33.3725153365  WZ4       3361            0.0000000000
     28746      9582  TIP3      H2             -1.1373103985       24.5726642534       34.4144853365  WZ4       3361            0.0000000000
     28747      9583  TIP3      OH2             3.7810296015       25.6743942534       18.5117853365  WZ4       3362            0.0000000000
     28748      9583  TIP3      H1              3.3212296015       25.1902242534       19.1976353365  WZ4       3362            0.0000000000
     28749      9583  TIP3      H2              4.0358996015       25.0059342534       17.8758353365  WZ4       3362            0.0000000000
     28750      9584  TIP3      OH2             3.0699596015       23.5671042534       30.8677453365  WZ4       3363            0.0000000000
     28751      9584  TIP3      H1              2.4515696015       24.2417642534       31.1482153365  WZ4       3363            0.0000000000
     28752      9584  TIP3      H2              3.4140796015       23.8884942534       30.0343653365  WZ4       3363            0.0000000000
     28753      9585  TIP3      OH2             4.8520696015       23.9175742534       16.7741053365  WZ4       3364            0.0000000000
     28754      9585  TIP3      H1              4.6715696015       23.7626942534       15.8469353365  WZ4       3364            0.0000000000
     28755      9585  TIP3      H2              5.8021196015       24.0254442534       16.8188953365  WZ4       3364            0.0000000000
     28756      9586  TIP3      OH2            14.2418996015       26.2719942534       16.2199153365  WZ4       3366            0.0000000000
     28757      9586  TIP3      H1             13.9683796015       25.8475442534       15.4067453365  WZ4       3366            0.0000000000
     28758      9586  TIP3      H2             14.2813096015       27.2034442534       16.0029553365  WZ4       3366            0.0000000000
     28759      9587  TIP3      OH2             3.4093296015       20.9221842534       31.9500553365  WZ4       3367            0.0000000000
     28760      9587  TIP3      H1              3.5594196015       20.1933142534       31.3480253365  WZ4       3367            0.0000000000
     28761      9587  TIP3      H2              3.4115696015       21.6993542534       31.3912753365  WZ4       3367            0.0000000000
     28762      9588  TIP3      OH2             3.8218996015       19.2917642534       29.4427953365  WZ4       3368            0.0000000000
     28763      9588  TIP3      H1              4.3576496015       19.7434342534       28.7907253365  WZ4       3368            0.0000000000
     28764      9588  TIP3      H2              2.9698596015       19.1837442534       29.0202053365  WZ4       3368            0.0000000000
     28765      9589  TIP3      OH2             5.4037396015       24.7313842534       29.6823153365  WZ4       3369            0.0000000000
     28766      9589  TIP3      H1              6.1542196015       24.5751342534       29.1090953365  WZ4       3369            0.0000000000
     28767      9589  TIP3      H2              5.0645696015       25.5830442534       29.4068653365  WZ4       3369            0.0000000000
     28768      9590  TIP3      OH2             1.8879596015       22.1205342534       33.8616153365  WZ4       3372            0.0000000000
     28769      9590  TIP3      H1              1.1208596015       21.5880142534       33.6513753365  WZ4       3372            0.0000000000
     28770      9590  TIP3      H2              2.5668596015       21.8105742534       33.2622453365  WZ4       3372            0.0000000000
     28771      9591  TIP3      OH2             4.6274496015       16.7483342534       29.8741553365  WZ4       3373            0.0000000000
     28772      9591  TIP3      H1              4.5294096015       17.6946542534       29.7687753365  WZ4       3373            0.0000000000
     28773      9591  TIP3      H2              3.8850696015       16.3757142534       29.3985053365  WZ4       3373            0.0000000000
     28774      9592  TIP3      OH2             5.8914996015       21.0698742534       33.4379953365  WZ4       3374            0.0000000000
     28775      9592  TIP3      H1              5.6560396015       20.8505442534       34.3394853365  WZ4       3374            0.0000000000
     28776      9592  TIP3      H2              5.1081896015       20.8629942534       32.9282453365  WZ4       3374            0.0000000000
     28777      9593  TIP3      OH2             0.0682396015       20.0409142534       33.5660853365  WZ4       3377            0.0000000000
     28778      9593  TIP3      H1              0.2799796015       19.3345242534       32.9558353365  WZ4       3377            0.0000000000
     28779      9593  TIP3      H2             -0.0430103985       19.6035142534       34.4102053365  WZ4       3377            0.0000000000
     28780      9594  TIP3      OH2             4.8492596015       16.0420742534       32.5454353365  WZ4       3378            0.0000000000
     28781      9594  TIP3      H1              5.5610996015       15.4022942534       32.5313453365  WZ4       3378            0.0000000000
     28782      9594  TIP3      H2              4.7482996015       16.3089042534       31.6317453365  WZ4       3378            0.0000000000
     28783      9595  TIP3      OH2             5.2030096015       17.7249142534       34.5990653365  WZ4       3379            0.0000000000
     28784      9595  TIP3      H1              5.0712296015       17.2492942534       33.7789153365  WZ4       3379            0.0000000000
     28785      9595  TIP3      H2              4.6037496015       18.4692742534       34.5437753365  WZ4       3379            0.0000000000
     28786      9596  TIP3      OH2             4.7492396015       34.6079442534       17.7754653365  WZ4       3380            0.0000000000
     28787      9596  TIP3      H1              5.6823096015       34.7658142534       17.9193053365  WZ4       3380            0.0000000000
     28788      9596  TIP3      H2              4.4851196015       35.2832442534       17.1506153365  WZ4       3380            0.0000000000
     28789      9597  TIP3      OH2            -1.6822703985       29.2443242534       17.2582753365  WZ4       3381            0.0000000000
     28790      9597  TIP3      H1             -0.7683503985       29.3232142534       17.5316653365  WZ4       3381            0.0000000000
     28791      9597  TIP3      H2             -1.6749603985       28.5572842534       16.5918353365  WZ4       3381            0.0000000000
     28792      9598  TIP3      OH2            -3.0332103985       34.6371742534       22.3356653365  WZ4       3382            0.0000000000
     28793      9598  TIP3      H1             -3.6805003985       34.1753442534       21.8027853365  WZ4       3382            0.0000000000
     28794      9598  TIP3      H2             -2.6787503985       33.9655042534       22.9182853365  WZ4       3382            0.0000000000
     28795      9599  TIP3      OH2            -2.1632903985       32.7178742534       24.1402853365  WZ4       3383            0.0000000000
     28796      9599  TIP3      H1             -2.4976103985       31.8376042534       24.3123053365  WZ4       3383            0.0000000000
     28797      9599  TIP3      H2             -1.9410503985       33.0633742534       25.0048453365  WZ4       3383            0.0000000000
     28798      9600  TIP3      OH2            14.7001796015       27.1408042534       20.1949553365  WZ4       3387            0.0000000000
     28799      9600  TIP3      H1             15.5503196015       27.5618942534       20.3221153365  WZ4       3387            0.0000000000
     28800      9600  TIP3      H2             14.7056896015       26.4008142534       20.8020953365  WZ4       3387            0.0000000000
     28801      9601  TIP3      OH2            15.0947396015       25.1945442534       22.0185253365  WZ4       3388            0.0000000000
     28802      9601  TIP3      H1             14.3681996015       24.7148042534       22.4162853365  WZ4       3388            0.0000000000
     28803      9601  TIP3      H2             15.6760696015       25.4000142534       22.7506853365  WZ4       3388            0.0000000000
     28804      9602  TIP3      OH2            15.3630496015       25.0953942534       18.4096553365  WZ4       3391            0.0000000000
     28805      9602  TIP3      H1             14.8411596015       25.4518042534       17.6907453365  WZ4       3391            0.0000000000
     28806      9602  TIP3      H2             15.3299696015       25.7701742534       19.0877453365  WZ4       3391            0.0000000000
     28807      9603  TIP3      OH2            13.7119496015       22.3349542534       16.9603653365  WZ4       3392            0.0000000000
     28808      9603  TIP3      H1             13.8083896015       23.0016542534       16.2803353365  WZ4       3392            0.0000000000
     28809      9603  TIP3      H2             13.5719096015       21.5195842534       16.4789153365  WZ4       3392            0.0000000000
     28810      9604  TIP3      OH2            12.8814196015       23.7151942534       22.5813953365  WZ4       3393            0.0000000000
     28811      9604  TIP3      H1             12.7312996015       22.7700542534       22.5611753365  WZ4       3393            0.0000000000
     28812      9604  TIP3      H2             12.5278696015       23.9963342534       23.4253053365  WZ4       3393            0.0000000000
     28813      9605  TIP3      OH2            -2.0833403985       25.7934142534       26.5917753365  WZ4       3394            0.0000000000
     28814      9605  TIP3      H1             -1.8990503985       25.7115842534       25.6560653365  WZ4       3394            0.0000000000
     28815      9605  TIP3      H2             -1.2340503985       25.6691142534       27.0154153365  WZ4       3394            0.0000000000
     28816      9606  TIP3      OH2            12.9593296015       19.7429342534       16.0779153365  WZ4       3397            0.0000000000
     28817      9606  TIP3      H1             13.5699096015       19.3716142534       16.7147353365  WZ4       3397            0.0000000000
     28818      9606  TIP3      H2             12.1224796015       19.3216242534       16.2739153365  WZ4       3397            0.0000000000
     28819      9607  TIP3      OH2            12.5918996015       21.2977742534       21.0439053365  WZ4       3398            0.0000000000
     28820      9607  TIP3      H1             12.8716096015       20.3908142534       21.1680753365  WZ4       3398            0.0000000000
     28821      9607  TIP3      H2             13.3510696015       21.7319242534       20.6548253365  WZ4       3398            0.0000000000
     28822      9608  TIP3      OH2            13.2037296015       21.8795142534       26.4797953365  WZ4       3399            0.0000000000
     28823      9608  TIP3      H1             14.1365296015       22.0915042534       26.4453953365  WZ4       3399            0.0000000000
     28824      9608  TIP3      H2             12.9684796015       21.9807242534       27.4020953365  WZ4       3399            0.0000000000
     28825      9609  TIP3      OH2            -2.4858603985       21.0639142534       32.7326553365  WZ4       3401            0.0000000000
     28826      9609  TIP3      H1             -1.5663703985       20.9417442534       32.9689653365  WZ4       3401            0.0000000000
     28827      9609  TIP3      H2             -2.9354103985       20.3138842534       33.1220053365  WZ4       3401            0.0000000000
     28828      9610  TIP3      OH2            13.2053796015       18.5607042534       21.0921053365  WZ4       3403            0.0000000000
     28829      9610  TIP3      H1             13.3878796015       18.1118542534       21.9176053365  WZ4       3403            0.0000000000
     28830      9610  TIP3      H2             12.6056696015       17.9761442534       20.6285653365  WZ4       3403            0.0000000000
     28831      9611  TIP3      OH2            -1.2646103985       19.3760742534       25.6239453365  WZ4       3404            0.0000000000
     28832      9611  TIP3      H1             -0.8194503985       18.5843242534       25.9259153365  WZ4       3404            0.0000000000
     28833      9611  TIP3      H2             -0.7983103985       20.0925942534       26.0545053365  WZ4       3404            0.0000000000
     28834      9612  TIP3      OH2            -2.9605803985       22.3753742534       26.6929653365  WZ4       3405            0.0000000000
     28835      9612  TIP3      H1             -2.4686003985       22.1544242534       25.9021653365  WZ4       3405            0.0000000000
     28836      9612  TIP3      H2             -2.5984903985       23.2157142534       26.9739153365  WZ4       3405            0.0000000000
     28837      9613  TIP3      OH2            15.0719996015       18.6285142534       17.6201353365  WZ4       3407            0.0000000000
     28838      9613  TIP3      H1             15.4842596015       17.9070842534       17.1449353365  WZ4       3407            0.0000000000
     28839      9613  TIP3      H2             15.7536496015       19.2979742534       17.6785653365  WZ4       3407            0.0000000000
     28840      9614  TIP3      OH2            -2.6469303985       18.6332842534       20.7472053365  WZ4       3408            0.0000000000
     28841      9614  TIP3      H1             -3.5720903985       18.8419442534       20.6177553365  WZ4       3408            0.0000000000
     28842      9614  TIP3      H2             -2.1929403985       19.1173642534       20.0574353365  WZ4       3408            0.0000000000
     28843      9615  TIP3      OH2            12.1237896015       33.6174542534       22.6929453365  WZ4       3409            0.0000000000
     28844      9615  TIP3      H1             12.7760796015       33.2696642534       22.0848553365  WZ4       3409            0.0000000000
     28845      9615  TIP3      H2             12.6341696015       34.1057742534       23.3389153365  WZ4       3409            0.0000000000
     28846      9616  TIP3      OH2            -2.6833903985       17.3711842534       29.0914553365  WZ4       3410            0.0000000000
     28847      9616  TIP3      H1             -3.3483403985       17.1252142534       29.7345453365  WZ4       3410            0.0000000000
     28848      9616  TIP3      H2             -3.1262603985       17.9932242534       28.5142553365  WZ4       3410            0.0000000000
     28849      9617  TIP3      OH2             2.4628296015       31.5207142534       29.4944353365  WZ4       3412            0.0000000000
     28850      9617  TIP3      H1              2.0379396015       32.3305642534       29.2118953365  WZ4       3412            0.0000000000
     28851      9617  TIP3      H2              3.3671096015       31.6061242534       29.1924153365  WZ4       3412            0.0000000000
     28852      9618  TIP3      OH2            14.0363896015       16.7951542534       30.7774453365  WZ4       3415            0.0000000000
     28853      9618  TIP3      H1             13.2237396015       17.1201842534       30.3899153365  WZ4       3415            0.0000000000
     28854      9618  TIP3      H2             14.2692396015       16.0350042534       30.2443553365  WZ4       3415            0.0000000000
     28855      9619  TIP3      OH2            -0.1355003985       34.7771042534       29.5419653365  WZ4       3416            0.0000000000
     28856      9619  TIP3      H1             -0.8558603985       35.2172042534       29.0907353365  WZ4       3416            0.0000000000
     28857      9619  TIP3      H2             -0.5011003985       34.5265742534       30.3903653365  WZ4       3416            0.0000000000
     28858      9620  TIP3      OH2             2.3317596015       34.3774942534       28.5716853365  WZ4       3417            0.0000000000
     28859      9620  TIP3      H1              1.4669796015       34.4493442534       28.9756953365  WZ4       3417            0.0000000000
     28860      9620  TIP3      H2              2.2766596015       34.9242242534       27.7879353365  WZ4       3417            0.0000000000
     28861      9621  TIP3      OH2            -0.7206903985       33.4003542534       26.4521453365  WZ4       3421            0.0000000000
     28862      9621  TIP3      H1             -0.7390903985       32.9748642534       27.3093753365  WZ4       3421            0.0000000000
     28863      9621  TIP3      H2              0.0840996015       33.0818542534       26.0433653365  WZ4       3421            0.0000000000
     28864      9622  TIP3      OH2             1.4206196015       32.1102242534       25.1071353365  WZ4       3422            0.0000000000
     28865      9622  TIP3      H1              1.2016896015       31.1939642534       25.2767353365  WZ4       3422            0.0000000000
     28866      9622  TIP3      H2              2.2448396015       32.2502642534       25.5732753365  WZ4       3422            0.0000000000
     28867      9623  TIP3      OH2             3.9578696015       32.5801542534       25.9559353365  WZ4       3423            0.0000000000
     28868      9623  TIP3      H1              4.1704396015       31.6920542534       25.6690253365  WZ4       3423            0.0000000000
     28869      9623  TIP3      H2              4.0223796015       32.5459242534       26.9103353365  WZ4       3423            0.0000000000
     28870      9624  TIP3      OH2             7.4662396015       18.2442142534       25.1002653365  WZ4       3424            0.0000000000
     28871      9624  TIP3      H1              6.7919196015       17.6147742534       25.3558453365  WZ4       3424            0.0000000000
     28872      9624  TIP3      H2              8.0301596015       17.7601042534       24.4970553365  WZ4       3424            0.0000000000
     28873      9625  TIP3      OH2            12.6089596015       16.3516142534       25.2129753365  WZ4       3425            0.0000000000
     28874      9625  TIP3      H1             13.2127196015       16.8991542534       24.7110753365  WZ4       3425            0.0000000000
     28875      9625  TIP3      H2             11.7391596015       16.6706542534       24.9723853365  WZ4       3425            0.0000000000
     28876      9626  TIP3      OH2            14.3359996015       17.4904842534       23.5460653365  WZ4       3426            0.0000000000
     28877      9626  TIP3      H1             14.9477496015       16.9760542534       23.0194253365  WZ4       3426            0.0000000000
     28878      9626  TIP3      H2             14.7183396015       18.3676942534       23.5695053365  WZ4       3426            0.0000000000
     28879      9627  TIP3      OH2            -0.2070103985       16.8782442534       22.9222553365  WZ4       3427            0.0000000000
     28880      9627  TIP3      H1             -0.9840303985       16.6437342534       22.4148453365  WZ4       3427            0.0000000000
     28881      9627  TIP3      H2              0.3233496015       16.0814542534       22.9310553365  WZ4       3427            0.0000000000
     28882      9628  TIP3      OH2            -1.3706703985       16.6760542534       18.7258653365  WZ4       3428            0.0000000000
     28883      9628  TIP3      H1             -0.9316003985       17.2871042534       18.1342153365  WZ4       3428            0.0000000000
     28884      9628  TIP3      H2             -2.0044303985       17.2144642534       19.1998653365  WZ4       3428            0.0000000000
     28885      9629  TIP3      OH2             4.3722496015       16.8049542534       22.7355653365  WZ4       3429            0.0000000000
     28886      9629  TIP3      H1              5.2465896015       17.1933842534       22.7059953365  WZ4       3429            0.0000000000
     28887      9629  TIP3      H2              4.2363296015       16.5897342534       23.6582853365  WZ4       3429            0.0000000000
     28888      9630  TIP3      OH2             9.9290896015       16.8349342534       24.3847353365  WZ4       3430            0.0000000000
     28889      9630  TIP3      H1             10.0052496015       16.9300942534       23.4353353365  WZ4       3430            0.0000000000
     28890      9630  TIP3      H2              9.6540096015       15.9272242534       24.5136453365  WZ4       3430            0.0000000000
     28891      9631  TIP3      OH2            11.2823496015       16.8607142534       20.0772353365  WZ4       3431            0.0000000000
     28892      9631  TIP3      H1             10.5794596015       17.4756342534       19.8673753365  WZ4       3431            0.0000000000
     28893      9631  TIP3      H2             10.8374896015       16.0233842534       20.2083253365  WZ4       3431            0.0000000000
     28894      9632  TIP3      OH2            -1.4697203985       32.6242742534       19.6233753365  WZ4       3432            0.0000000000
     28895      9632  TIP3      H1             -2.1547303985       32.5861642534       18.9558853365  WZ4       3432            0.0000000000
     28896      9632  TIP3      H2             -1.4660003985       33.5370342534       19.9115853365  WZ4       3432            0.0000000000
     28897      9633  TIP3      OH2             0.4902396015       18.5922042534       17.1682753365  WZ4       3433            0.0000000000
     28898      9633  TIP3      H1              0.9815796015       17.9624442534       16.6408253365  WZ4       3433            0.0000000000
     28899      9633  TIP3      H2              1.1138696015       18.8881442534       17.8313953365  WZ4       3433            0.0000000000
     28900      9634  TIP3      OH2             5.5162496015       18.8853542534       19.6253253365  WZ4       3434            0.0000000000
     28901      9634  TIP3      H1              5.6943796015       18.2386742534       20.3081853365  WZ4       3434            0.0000000000
     28902      9634  TIP3      H2              5.4628696015       19.7191242534       20.0924353365  WZ4       3434            0.0000000000
     28903      9635  TIP3      OH2             7.3946296015       33.8337642534       18.0209953365  WZ4       3435            0.0000000000
     28904      9635  TIP3      H1              8.2606496015       34.2005042534       17.8428153365  WZ4       3435            0.0000000000
     28905      9635  TIP3      H2              7.1479096015       33.3945642534       17.2070753365  WZ4       3435            0.0000000000
     28906      9636  TIP3      OH2            14.1035896015       33.3967942534       20.7001053365  WZ4       3436            0.0000000000
     28907      9636  TIP3      H1             13.9092996015       32.6490042534       20.1350653365  WZ4       3436            0.0000000000
     28908      9636  TIP3      H2             14.0645996015       34.1548042534       20.1168953365  WZ4       3436            0.0000000000
     28909      9637  TIP3      OH2            -0.2492103985       17.3924342534       32.4398753365  WZ4       3437            0.0000000000
     28910      9637  TIP3      H1             -0.6153903985       16.6266942534       32.8823453365  WZ4       3437            0.0000000000
     28911      9637  TIP3      H2              0.6636396015       17.4214542534       32.7263853365  WZ4       3437            0.0000000000
     28912      9638  TIP3      OH2             1.7238696015       16.7428742534       33.9755853365  WZ4       3438            0.0000000000
     28913      9638  TIP3      H1              2.6222296015       16.4688942534       33.7909253365  WZ4       3438            0.0000000000
     28914      9638  TIP3      H2              1.3371796015       16.0004742534       34.4398453365  WZ4       3438            0.0000000000
     28915      9639  TIP3      OH2             0.3483996015       33.5443542534       16.6485853365  WZ4       3439            0.0000000000
     28916      9639  TIP3      H1              0.0808596015       33.8306442534       17.5218953365  WZ4       3439            0.0000000000
     28917      9639  TIP3      H2              1.1196596015       32.9982742534       16.8008353365  WZ4       3439            0.0000000000
     28918      9640  TIP3      OH2            16.5622396015       23.0139042534       21.8206053365  WZ4       3447            0.0000000000
     28919      9640  TIP3      H1             16.1145796015       23.8597742534       21.8022553365  WZ4       3447            0.0000000000
     28920      9640  TIP3      H2             16.0013596015       22.4343242534       21.3051153365  WZ4       3447            0.0000000000
     28921      9641  TIP3      OH2            17.2728496015       25.1758642534       23.9464053365  WZ4       3448            0.0000000000
     28922      9641  TIP3      H1             17.4861996015       24.4060242534       24.4737053365  WZ4       3448            0.0000000000
     28923      9641  TIP3      H2             18.0106096015       25.2655342534       23.3431653365  WZ4       3448            0.0000000000
     28924      9642  TIP3      OH2            21.3453496015       20.2175642534       24.3058853365  WZ4       3453            0.0000000000
     28925      9642  TIP3      H1             21.3884596015       21.0774142534       23.8875153365  WZ4       3453            0.0000000000
     28926      9642  TIP3      H2             20.8877596015       19.6650342534       23.6722053365  WZ4       3453            0.0000000000
     28927      9643  TIP3      OH2            17.9654996015       22.6141442534       25.0680253365  WZ4       3455            0.0000000000
     28928      9643  TIP3      H1             18.6191596015       22.0643142534       25.5000353365  WZ4       3455            0.0000000000
     28929      9643  TIP3      H2             17.9894296015       22.3400442534       24.1512253365  WZ4       3455            0.0000000000
     28930      9644  TIP3      OH2            17.2531996015       28.4460642534       20.2364153365  WZ4       3464            0.0000000000
     28931      9644  TIP3      H1             16.9812896015       28.6751642534       19.3477053365  WZ4       3464            0.0000000000
     28932      9644  TIP3      H2             17.2987696015       29.2839442534       20.6969453365  WZ4       3464            0.0000000000
     28933      9645  TIP3      OH2            26.5024196015       23.7359042534       17.3715353365  WZ4       3472            0.0000000000
     28934      9645  TIP3      H1             27.2034096015       23.7585942534       18.0229353365  WZ4       3472            0.0000000000
     28935      9645  TIP3      H2             26.8047096015       23.1078742534       16.7154653365  WZ4       3472            0.0000000000
     28936      9646  TIP3      OH2            32.4240596015       16.4001342534       18.7827153365  WZ4       3485            0.0000000000
     28937      9646  TIP3      H1             31.5241296015       16.5390342534       19.0777753365  WZ4       3485            0.0000000000
     28938      9646  TIP3      H2             32.6758996015       17.2315942534       18.3808853365  WZ4       3485            0.0000000000
     28939      9647  TIP3      OH2            20.4899096015       25.1878542534       20.7564053365  WZ4       3486            0.0000000000
     28940      9647  TIP3      H1             20.1980396015       25.9560242534       20.2655353365  WZ4       3486            0.0000000000
     28941      9647  TIP3      H2             19.8154296015       24.5284742534       20.5935453365  WZ4       3486            0.0000000000
     28942      9648  TIP3      OH2            30.2025296015       25.6829242534       16.5995353365  WZ4       3501            0.0000000000
     28943      9648  TIP3      H1             30.2446096015       25.4603142534       15.6695353365  WZ4       3501            0.0000000000
     28944      9648  TIP3      H2             31.0517396015       26.0816342534       16.7895253365  WZ4       3501            0.0000000000
     28945      9649  TIP3      OH2            25.7752796015       19.5587442534       17.2698653365  WZ4       3502            0.0000000000
     28946      9649  TIP3      H1             25.5217596015       19.5779042534       18.1926753365  WZ4       3502            0.0000000000
     28947      9649  TIP3      H2             25.5184896015       18.6872842534       16.9684853365  WZ4       3502            0.0000000000
     28948      9650  TIP3      OH2            21.5386896015       22.5308242534       22.6171053365  WZ4       3504            0.0000000000
     28949      9650  TIP3      H1             20.6459796015       22.1904342534       22.5584853365  WZ4       3504            0.0000000000
     28950      9650  TIP3      H2             21.9893496015       22.1539142534       21.8614253365  WZ4       3504            0.0000000000
     28951      9651  TIP3      OH2            22.6575696015       20.0043942534       16.3709053365  WZ4       3509            0.0000000000
     28952      9651  TIP3      H1             22.2266396015       19.5594042534       17.1006453365  WZ4       3509            0.0000000000
     28953      9651  TIP3      H2             21.9394396015       20.3760242534       15.8586553365  WZ4       3509            0.0000000000
     28954      9652  TIP3      OH2            15.8999096015       19.7463442534       23.4227753365  WZ4       3510            0.0000000000
     28955      9652  TIP3      H1             16.5306796015       19.7175542534       24.1421653365  WZ4       3510            0.0000000000
     28956      9652  TIP3      H2             16.3493396015       19.3212142534       22.6923653365  WZ4       3510            0.0000000000
     28957      9653  TIP3      OH2            17.1741196015       20.4925442534       18.8468153365  WZ4       3511            0.0000000000
     28958      9653  TIP3      H1             17.6482896015       21.0835342534       18.2619053365  WZ4       3511            0.0000000000
     28959      9653  TIP3      H2             16.4567596015       21.0228342534       19.1938253365  WZ4       3511            0.0000000000
     28960      9654  TIP3      OH2            18.9485596015       21.5872042534       22.5302753365  WZ4       3514            0.0000000000
     28961      9654  TIP3      H1             18.0593596015       21.6867542534       22.1902353365  WZ4       3514            0.0000000000
     28962      9654  TIP3      H2             19.2450496015       20.7455042534       22.1840653365  WZ4       3514            0.0000000000
     28963      9655  TIP3      OH2            22.6017396015       21.5874642534       20.1867353365  WZ4       3515            0.0000000000
     28964      9655  TIP3      H1             23.5332896015       21.7164642534       20.3650453365  WZ4       3515            0.0000000000
     28965      9655  TIP3      H2             22.3867696015       22.2568942534       19.5372053365  WZ4       3515            0.0000000000
     28966      9656  TIP3      OH2            21.2757596015       22.7816842534       17.7533453365  WZ4       3517            0.0000000000
     28967      9656  TIP3      H1             20.7332696015       22.4020642534       17.0621053365  WZ4       3517            0.0000000000
     28968      9656  TIP3      H2             22.1092496015       22.9761542534       17.3247553365  WZ4       3517            0.0000000000
     28969      9657  TIP3      OH2            20.4421596015       18.8824842534       22.0089553365  WZ4       3521            0.0000000000
     28970      9657  TIP3      H1             20.1251096015       17.9800142534       21.9734953365  WZ4       3521            0.0000000000
     28971      9657  TIP3      H2             21.2235696015       18.8842242534       21.4561153365  WZ4       3521            0.0000000000
     28972      9658  TIP3      OH2            24.6110396015       27.3472542534       19.6891553365  WZ4       3523            0.0000000000
     28973      9658  TIP3      H1             23.8661396015       26.8397842534       19.3669453365  WZ4       3523            0.0000000000
     28974      9658  TIP3      H2             24.4767596015       27.3960542534       20.6356353365  WZ4       3523            0.0000000000
     28975      9659  TIP3      OH2            28.5087196015       20.1612442534       17.8884153365  WZ4       3525            0.0000000000
     28976      9659  TIP3      H1             27.5701396015       20.2728042534       17.7372953365  WZ4       3525            0.0000000000
     28977      9659  TIP3      H2             28.8059296015       21.0179342534       18.1949853365  WZ4       3525            0.0000000000
     28978      9660  TIP3      OH2            17.8655796015       25.0224842534       17.4503353365  WZ4       3538            0.0000000000
     28979      9660  TIP3      H1             18.4815696015       25.6492042534       17.8298153365  WZ4       3538            0.0000000000
     28980      9660  TIP3      H2             17.0038396015       25.3384642534       17.7219853365  WZ4       3538            0.0000000000
     28981      9661  TIP3      OH2            23.8904496015       30.1121542534       15.9760953365  WZ4       3549            0.0000000000
     28982      9661  TIP3      H1             24.1294296015       29.3639642534       15.4289853365  WZ4       3549            0.0000000000
     28983      9661  TIP3      H2             23.6215796015       29.7243242534       16.8088753365  WZ4       3549            0.0000000000
     28984      9662  TIP3      OH2            22.8275096015       29.6825342534       18.4323553365  WZ4       3550            0.0000000000
     28985      9662  TIP3      H1             22.9743096015       29.1625142534       19.2224453365  WZ4       3550            0.0000000000
     28986      9662  TIP3      H2             22.8246796015       30.5892942534       18.7389453365  WZ4       3550            0.0000000000
     28987      9663  TIP3      OH2            19.2806196015       26.9348642534       18.9428953365  WZ4       3551            0.0000000000
     28988      9663  TIP3      H1             18.5945496015       27.2871142534       19.5098653365  WZ4       3551            0.0000000000
     28989      9663  TIP3      H2             19.8034096015       27.6978242534       18.6963253365  WZ4       3551            0.0000000000
     28990      9664  TIP3      OH2            27.8966196015       19.2494142534       20.3190253365  WZ4       3553            0.0000000000
     28991      9664  TIP3      H1             28.1164496015       19.7209542534       19.5155653365  WZ4       3553            0.0000000000
     28992      9664  TIP3      H2             28.4550196015       19.6436742534       20.9890853365  WZ4       3553            0.0000000000
     28993      9665  TIP3      OH2            25.0966096015       20.9772942534       21.1538653365  WZ4       3555            0.0000000000
     28994      9665  TIP3      H1             25.9088696015       21.4816142534       21.2000353365  WZ4       3555            0.0000000000
     28995      9665  TIP3      H2             24.8519096015       20.8322642534       22.0678253365  WZ4       3555            0.0000000000
     28996      9666  TIP3      OH2            25.9802796015       18.0585942534       22.0919753365  WZ4       3557            0.0000000000
     28997      9666  TIP3      H1             25.6336296015       18.6756542534       22.7364053365  WZ4       3557            0.0000000000
     28998      9666  TIP3      H2             26.6389696015       18.5591642534       21.6105253365  WZ4       3557            0.0000000000
     28999      9667  TIP3      OH2            21.6379796015       19.1215342534       18.7792253365  WZ4       3559            0.0000000000
     29000      9667  TIP3      H1             21.5544596015       20.0098442534       19.1258653365  WZ4       3559            0.0000000000
     29001      9667  TIP3      H2             22.5280096015       18.8562042534       19.0109053365  WZ4       3559            0.0000000000
     29002      9668  TIP3      OH2            19.8965096015       29.5487542534       17.8396753365  WZ4       3562            0.0000000000
     29003      9668  TIP3      H1             20.4886596015       30.2482342534       18.1159153365  WZ4       3562            0.0000000000
     29004      9668  TIP3      H2             20.3558096015       29.1157042534       17.1201353365  WZ4       3562            0.0000000000
     29005      9669  TIP3      OH2            18.2124296015       22.2130542534       16.9556153365  WZ4       3563            0.0000000000
     29006      9669  TIP3      H1             18.1676896015       23.1523642534       17.1343153365  WZ4       3563            0.0000000000
     29007      9669  TIP3      H2             17.3247496015       21.9775442534       16.6858253365  WZ4       3563            0.0000000000
     29008      9670  TIP3      OH2            19.0206296015       16.9947142534       25.6287153365  WZ4       3565            0.0000000000
     29009      9670  TIP3      H1             18.7916096015       17.0539642534       24.7012153365  WZ4       3565            0.0000000000
     29010      9670  TIP3      H2             18.5779696015       16.2032642534       25.9351253365  WZ4       3565            0.0000000000
     29011      9671  TIP3      OH2            17.9509596015       30.9354242534       21.7892953365  WZ4       3566            0.0000000000
     29012      9671  TIP3      H1             17.1188196015       31.4076942534       21.8164353365  WZ4       3566            0.0000000000
     29013      9671  TIP3      H2             18.4967896015       31.4451842534       21.1906053365  WZ4       3566            0.0000000000
     29014      9672  TIP3      OH2            25.9286296015       31.9752942534       16.1146953365  WZ4       3569            0.0000000000
     29015      9672  TIP3      H1             25.2847296015       31.3441542534       16.4360653365  WZ4       3569            0.0000000000
     29016      9672  TIP3      H2             26.6904596015       31.4440942534       15.8830453365  WZ4       3569            0.0000000000
     29017      9673  TIP3      OH2            21.4876496015       27.7017742534       16.2059853365  WZ4       3573            0.0000000000
     29018      9673  TIP3      H1             21.5520596015       26.9077342534       16.7366253365  WZ4       3573            0.0000000000
     29019      9673  TIP3      H2             22.1405696015       27.5830542534       15.5161853365  WZ4       3573            0.0000000000
     29020      9674  TIP3      OH2            26.8399896015       28.7489442534       15.9417853365  WZ4       3575            0.0000000000
     29021      9674  TIP3      H1             26.5713996015       28.9291542534       16.8426753365  WZ4       3575            0.0000000000
     29022      9674  TIP3      H2             26.6335496015       27.8235642534       15.8103653365  WZ4       3575            0.0000000000
     29023      9675  TIP3      OH2            22.6370296015       25.6743942534       18.5117853365  WZ4       3578            0.0000000000
     29024      9675  TIP3      H1             22.1772296015       25.1902242534       19.1976353365  WZ4       3578            0.0000000000
     29025      9675  TIP3      H2             22.8918996015       25.0059342534       17.8758353365  WZ4       3578            0.0000000000
     29026      9676  TIP3      OH2            23.7080696015       23.9175742534       16.7741053365  WZ4       3580            0.0000000000
     29027      9676  TIP3      H1             23.5275696015       23.7626942534       15.8469353365  WZ4       3580            0.0000000000
     29028      9676  TIP3      H2             24.6581196015       24.0254442534       16.8188953365  WZ4       3580            0.0000000000
     29029      9677  TIP3      OH2            17.1737296015       29.2443242534       17.2582753365  WZ4       3597            0.0000000000
     29030      9677  TIP3      H1             18.0876496015       29.3232142534       17.5316653365  WZ4       3597            0.0000000000
     29031      9677  TIP3      H2             17.1810396015       28.5572842534       16.5918353365  WZ4       3597            0.0000000000
     29032      9678  TIP3      OH2            32.5679496015       22.3349542534       16.9603653365  WZ4       3608            0.0000000000
     29033      9678  TIP3      H1             32.6643896015       23.0016542534       16.2803353365  WZ4       3608            0.0000000000
     29034      9678  TIP3      H2             32.4279096015       21.5195842534       16.4789153365  WZ4       3608            0.0000000000
     29035      9679  TIP3      OH2            31.8153296015       19.7429342534       16.0779153365  WZ4       3613            0.0000000000
     29036      9679  TIP3      H1             32.4259096015       19.3716142534       16.7147353365  WZ4       3613            0.0000000000
     29037      9679  TIP3      H2             30.9784796015       19.3216242534       16.2739153365  WZ4       3613            0.0000000000
     29038      9680  TIP3      OH2            17.5913896015       19.3760742534       25.6239453365  WZ4       3620            0.0000000000
     29039      9680  TIP3      H1             18.0365496015       18.5843242534       25.9259153365  WZ4       3620            0.0000000000
     29040      9680  TIP3      H2             18.0576896015       20.0925942534       26.0545053365  WZ4       3620            0.0000000000
     29041      9681  TIP3      OH2            15.8954196015       22.3753742534       26.6929653365  WZ4       3621            0.0000000000
     29042      9681  TIP3      H1             16.3873996015       22.1544242534       25.9021653365  WZ4       3621            0.0000000000
     29043      9681  TIP3      H2             16.2575096015       23.2157142534       26.9739153365  WZ4       3621            0.0000000000
     29044      9682  TIP3      OH2            33.9279996015       18.6285142534       17.6201353365  WZ4       3623            0.0000000000
     29045      9682  TIP3      H1             34.3402596015       17.9070842534       17.1449353365  WZ4       3623            0.0000000000
     29046      9682  TIP3      H2             34.6096496015       19.2979742534       17.6785653365  WZ4       3623            0.0000000000
     29047      9683  TIP3      OH2            16.2090696015       18.6332842534       20.7472053365  WZ4       3624            0.0000000000
     29048      9683  TIP3      H1             15.2839096015       18.8419442534       20.6177553365  WZ4       3624            0.0000000000
     29049      9683  TIP3      H2             16.6630596015       19.1173642534       20.0574353365  WZ4       3624            0.0000000000
     29050      9684  TIP3      OH2            18.6489896015       16.8782442534       22.9222553365  WZ4       3643            0.0000000000
     29051      9684  TIP3      H1             17.8719696015       16.6437342534       22.4148453365  WZ4       3643            0.0000000000
     29052      9684  TIP3      H2             19.1793496015       16.0814542534       22.9310553365  WZ4       3643            0.0000000000
     29053      9685  TIP3      OH2            17.4853296015       16.6760542534       18.7258653365  WZ4       3644            0.0000000000
     29054      9685  TIP3      H1             17.9243996015       17.2871042534       18.1342153365  WZ4       3644            0.0000000000
     29055      9685  TIP3      H2             16.8515696015       17.2144642534       19.1998653365  WZ4       3644            0.0000000000
     29056      9686  TIP3      OH2            23.2282496015       16.8049542534       22.7355653365  WZ4       3645            0.0000000000
     29057      9686  TIP3      H1             24.1025896015       17.1933842534       22.7059953365  WZ4       3645            0.0000000000
     29058      9686  TIP3      H2             23.0923296015       16.5897342534       23.6582853365  WZ4       3645            0.0000000000
     29059      9687  TIP3      OH2            30.1383496015       16.8607142534       20.0772353365  WZ4       3647            0.0000000000
     29060      9687  TIP3      H1             29.4354596015       17.4756342534       19.8673753365  WZ4       3647            0.0000000000
     29061      9687  TIP3      H2             29.6934896015       16.0233842534       20.2083253365  WZ4       3647            0.0000000000
     29062      9688  TIP3      OH2            17.3862796015       32.6242742534       19.6233753365  WZ4       3648            0.0000000000
     29063      9688  TIP3      H1             16.7012696015       32.5861642534       18.9558853365  WZ4       3648            0.0000000000
     29064      9688  TIP3      H2             17.3899996015       33.5370342534       19.9115853365  WZ4       3648            0.0000000000
     29065      9689  TIP3      OH2            19.3462396015       18.5922042534       17.1682753365  WZ4       3649            0.0000000000
     29066      9689  TIP3      H1             19.8375796015       17.9624442534       16.6408253365  WZ4       3649            0.0000000000
     29067      9689  TIP3      H2             19.9698696015       18.8881442534       17.8313953365  WZ4       3649            0.0000000000
     29068      9690  TIP3      OH2            24.3722496015       18.8853542534       19.6253253365  WZ4       3650            0.0000000000
     29069      9690  TIP3      H1             24.5503796015       18.2386742534       20.3081853365  WZ4       3650            0.0000000000
     29070      9690  TIP3      H2             24.3188696015       19.7191242534       20.0924353365  WZ4       3650            0.0000000000
     29071      9691  TIP3      OH2            19.2043996015       33.5443542534       16.6485853365  WZ4       3655            0.0000000000
     29072      9691  TIP3      H1             18.9368596015       33.8306442534       17.5218953365  WZ4       3655            0.0000000000
     29073      9691  TIP3      H2             19.9756596015       32.9982742534       16.8008353365  WZ4       3655            0.0000000000
     29074      9692  TIP3      OH2            -5.2879403985       35.2561342534       18.7827153365  WZ4       3801            0.0000000000
     29075      9692  TIP3      H1             -6.1878703985       35.3950342534       19.0777753365  WZ4       3801            0.0000000000
     29076      9692  TIP3      H2             -5.0361003985       36.0875942534       18.3808853365  WZ4       3801            0.0000000000
     29077      9693  TIP3      OH2            -6.2470403985       35.2076142534       25.2129753365  WZ4       3847            0.0000000000
     29078      9693  TIP3      H1             -5.6432803985       35.7551542534       24.7110753365  WZ4       3847            0.0000000000
     29079      9693  TIP3      H2             -7.1168403985       35.5266542534       24.9723853365  WZ4       3847            0.0000000000
     29080      9694  TIP3      OH2            -4.5200003985       36.3464842534       23.5460653365  WZ4       3848            0.0000000000
     29081      9694  TIP3      H1             -3.9082503985       35.8320542534       23.0194253365  WZ4       3848            0.0000000000
     29082      9694  TIP3      H2             -4.1376603985       37.2236942534       23.5695053365  WZ4       3848            0.0000000000
     29083      9695  TIP3      OH2           -20.2266703985       35.5320542534       18.7258653365  WZ4       3850            0.0000000000
     29084      9695  TIP3      H1            -19.7876003985       36.1431042534       18.1342153365  WZ4       3850            0.0000000000
     29085      9695  TIP3      H2            -20.8604303985       36.0704642534       19.1998653365  WZ4       3850            0.0000000000
     29086      9696  TIP3      OH2            -8.9269103985       35.6909342534       24.3847353365  WZ4       3852            0.0000000000
     29087      9696  TIP3      H1             -8.8507503985       35.7860942534       23.4353353365  WZ4       3852            0.0000000000
     29088      9696  TIP3      H2             -9.2019903985       34.7832242534       24.5136453365  WZ4       3852            0.0000000000
     29089      9697  TIP3      OH2            -7.5736503985       35.7167142534       20.0772353365  WZ4       3853            0.0000000000
     29090      9697  TIP3      H1             -8.2765403985       36.3316342534       19.8673753365  WZ4       3853            0.0000000000
     29091      9697  TIP3      H2             -8.0185103985       34.8793842534       20.2083253365  WZ4       3853            0.0000000000
     29092      9698  TIP3      OH2             5.3260096015       35.2969142534       25.8324553365  WZ4       3867            0.0000000000
     29093      9698  TIP3      H1              5.2084296015       34.3485142534       25.7782853365  WZ4       3867            0.0000000000
     29094      9698  TIP3      H2              4.4710196015       35.6295242534       26.1055653365  WZ4       3867            0.0000000000
     29095      9699  TIP3      OH2            13.5680596015       35.2561342534       18.7827153365  WZ4       3868            0.0000000000
     29096      9699  TIP3      H1             12.6681296015       35.3950342534       19.0777753365  WZ4       3868            0.0000000000
     29097      9699  TIP3      H2             13.8198996015       36.0875942534       18.3808853365  WZ4       3868            0.0000000000
     29098      9700  TIP3      OH2             2.5947696015       36.2003642534       26.6100853365  WZ4       3869            0.0000000000
     29099      9700  TIP3      H1              1.7331396015       36.1131842534       26.2023753365  WZ4       3869            0.0000000000
     29100      9700  TIP3      H2              2.5723396015       37.0563742534       27.0378453365  WZ4       3869            0.0000000000
     29101      9701  TIP3      OH2             0.1646296015       35.8507142534       25.6287153365  WZ4       3891            0.0000000000
     29102      9701  TIP3      H1             -0.0643903985       35.9099642534       24.7012153365  WZ4       3891            0.0000000000
     29103      9701  TIP3      H2             -0.2780303985       35.0592642534       25.9351253365  WZ4       3891            0.0000000000
     29104      9702  TIP3      OH2             7.4662396015       37.1002142534       25.1002653365  WZ4       3913            0.0000000000
     29105      9702  TIP3      H1              6.7919196015       36.4707742534       25.3558453365  WZ4       3913            0.0000000000
     29106      9702  TIP3      H2              8.0301596015       36.6161042534       24.4970553365  WZ4       3913            0.0000000000
     29107      9703  TIP3      OH2            -0.2070103985       35.7342442534       22.9222553365  WZ4       3916            0.0000000000
     29108      9703  TIP3      H1             -0.9840303985       35.4997342534       22.4148453365  WZ4       3916            0.0000000000
     29109      9703  TIP3      H2              0.3233496015       34.9374542534       22.9310553365  WZ4       3916            0.0000000000
     29110      9704  TIP3      OH2            -1.3706703985       35.5320542534       18.7258653365  WZ4       3917            0.0000000000
     29111      9704  TIP3      H1             -0.9316003985       36.1431042534       18.1342153365  WZ4       3917            0.0000000000
     29112      9704  TIP3      H2             -2.0044303985       36.0704642534       19.1998653365  WZ4       3917            0.0000000000
     29113      9705  TIP3      OH2             4.3722496015       35.6609542534       22.7355653365  WZ4       3918            0.0000000000
     29114      9705  TIP3      H1              5.2465896015       36.0493842534       22.7059953365  WZ4       3918            0.0000000000
     29115      9705  TIP3      H2              4.2363296015       35.4457342534       23.6582853365  WZ4       3918            0.0000000000
     29116      9706  TIP3      OH2             9.9290896015       35.6909342534       24.3847353365  WZ4       3919            0.0000000000
     29117      9706  TIP3      H1             10.0052496015       35.7860942534       23.4353353365  WZ4       3919            0.0000000000
     29118      9706  TIP3      H2              9.6540096015       34.7832242534       24.5136453365  WZ4       3919            0.0000000000
     29119      9707  TIP3      OH2            11.2823496015       35.7167142534       20.0772353365  WZ4       3920            0.0000000000
     29120      9707  TIP3      H1             10.5794596015       36.3316342534       19.8673753365  WZ4       3920            0.0000000000
     29121      9707  TIP3      H2             10.8374896015       34.8793842534       20.2083253365  WZ4       3920            0.0000000000
     29122      9708  TIP3      OH2            17.4853296015       35.5320542534       18.7258653365  WZ4       3984            0.0000000000
     29123      9708  TIP3      H1             17.9243996015       36.1431042534       18.1342153365  WZ4       3984            0.0000000000
     29124      9708  TIP3      H2             16.8515696015       36.0704642534       19.1998653365  WZ4       3984            0.0000000000
     29125      9709  TIP3      OH2             5.0344496015      -26.4558457466       34.8320953365  WZ5       540             0.0000000000
     29126      9709  TIP3      H1              5.2734296015      -27.2040357466       34.2849853365  WZ5       540             0.0000000000
     29127      9709  TIP3      H2              4.7655796015      -26.8436757466       35.6648753365  WZ5       540             0.0000000000
     29128      9710  TIP3      OH2             7.0726296015      -24.5927057466       34.9706953365  WZ5       560             0.0000000000
     29129      9710  TIP3      H1              6.4287296015      -25.2238457466       35.2920653365  WZ5       560             0.0000000000
     29130      9710  TIP3      H2              7.8344596015      -25.1239057466       34.7390453365  WZ5       560             0.0000000000
     29131      9711  TIP3      OH2             4.7492396015      -21.9600557466       36.6314653365  WZ5       587             0.0000000000
     29132      9711  TIP3      H1              5.6823096015      -21.8021857466       36.7753053365  WZ5       587             0.0000000000
     29133      9711  TIP3      H2              4.4851196015      -21.2847557466       36.0066153365  WZ5       587             0.0000000000
     29134      9712  TIP3      OH2             7.3946296015      -22.7342357466       36.8769953365  WZ5       642             0.0000000000
     29135      9712  TIP3      H1              8.2606496015      -22.3674957466       36.6988153365  WZ5       642             0.0000000000
     29136      9712  TIP3      H2              7.1479096015      -23.1734357466       36.0630753365  WZ5       642             0.0000000000
     29137      9713  TIP3      OH2             0.3483996015      -23.0236457466       35.5045853365  WZ5       646             0.0000000000
     29138      9713  TIP3      H1              0.0808596015      -22.7373557466       36.3778953365  WZ5       646             0.0000000000
     29139      9713  TIP3      H2              1.1196596015      -23.5697257466       35.6568353365  WZ5       646             0.0000000000
     29140      9714  TIP3      OH2            -4.0988003985       -6.9456257466       36.0151053365  WZ5       1193            0.0000000000
     29141      9714  TIP3      H1             -4.0254503985       -6.0066057466       36.1856353365  WZ5       1193            0.0000000000
     29142      9714  TIP3      H2             -3.1932903985       -7.2507657466       35.9588353365  WZ5       1193            0.0000000000
     29143      9715  TIP3      OH2            -8.6863803985       -4.2145657466       36.6782153365  WZ5       1200            0.0000000000
     29144      9715  TIP3      H1             -8.3115403985       -4.9589557466       36.2074753365  WZ5       1200            0.0000000000
     29145      9715  TIP3      H2             -8.6820103985       -4.4845057466       37.5965453365  WZ5       1200            0.0000000000
     29146      9716  TIP3      OH2            -7.5094703985      -12.0290757466       35.4555353365  WZ5       1207            0.0000000000
     29147      9716  TIP3      H1             -7.4673903985      -12.2516857466       34.5255353365  WZ5       1207            0.0000000000
     29148      9716  TIP3      H2             -6.6602603985      -11.6303657466       35.6455253365  WZ5       1207            0.0000000000
     29149      9717  TIP3      OH2            -5.3048903985       -6.6880357466       38.5650353365  WZ5       1241            0.0000000000
     29150      9717  TIP3      H1             -5.6777803985       -7.5136557466       38.8740953365  WZ5       1241            0.0000000000
     29151      9717  TIP3      H2             -5.0275403985       -6.8710957466       37.6673753365  WZ5       1241            0.0000000000
     29152      9718  TIP3      OH2            -7.9123303985       -8.7114557466       36.3850953365  WZ5       1249            0.0000000000
     29153      9718  TIP3      H1             -7.5590203985       -9.0914757466       37.1894453365  WZ5       1249            0.0000000000
     29154      9718  TIP3      H2             -8.8609803985       -8.8049757466       36.4720253365  WZ5       1249            0.0000000000
     29155      9719  TIP3      OH2            -3.4088903985       -4.2322057466       36.5861153365  WZ5       1251            0.0000000000
     29156      9719  TIP3      H1             -2.6651003985       -3.6461557466       36.4462753365  WZ5       1251            0.0000000000
     29157      9719  TIP3      H2             -4.1030803985       -3.6636257466       36.9193553365  WZ5       1251            0.0000000000
     29158      9720  TIP3      OH2           -11.7833703985       -5.7367057466       34.9706953365  WZ5       1275            0.0000000000
     29159      9720  TIP3      H1            -12.4272703985       -6.3678457466       35.2920653365  WZ5       1275            0.0000000000
     29160      9720  TIP3      H2            -11.0215403985       -6.2679057466       34.7390453365  WZ5       1275            0.0000000000
     29161      9721  TIP3      OH2            -7.1790803985       -5.9197157466       35.2044953365  WZ5       1277            0.0000000000
     29162      9721  TIP3      H1             -6.8960403985       -6.7141957466       35.6571853365  WZ5       1277            0.0000000000
     29163      9721  TIP3      H2             -6.4392903985       -5.6866157466       34.6436053365  WZ5       1277            0.0000000000
     29164      9722  TIP3      OH2            -4.6141003985      -11.4400057466       35.0759153365  WZ5       1288            0.0000000000
     29165      9722  TIP3      H1             -4.8876203985      -11.8644557466       34.2627453365  WZ5       1288            0.0000000000
     29166      9722  TIP3      H2             -4.5746903985      -10.5085557466       34.8589553365  WZ5       1288            0.0000000000
     29167      9723  TIP3      OH2            -3.4929503985      -12.6166057466       37.2656553365  WZ5       1313            0.0000000000
     29168      9723  TIP3      H1             -4.0148403985      -12.2601957466       36.5467453365  WZ5       1313            0.0000000000
     29169      9723  TIP3      H2             -3.5260303985      -11.9418257466       37.9437453365  WZ5       1313            0.0000000000
     29170      9724  TIP3      OH2            -5.1440503985      -15.3770457466       35.8163653365  WZ5       1314            0.0000000000
     29171      9724  TIP3      H1             -5.0476103985      -14.7103457466       35.1363353365  WZ5       1314            0.0000000000
     29172      9724  TIP3      H2             -5.2840903985      -16.1924157466       35.3349153365  WZ5       1314            0.0000000000
     29173      9725  TIP3      OH2           -11.4613703985       -3.8782357466       36.8769953365  WZ5       1357            0.0000000000
     29174      9725  TIP3      H1            -10.5953503985       -3.5114957466       36.6988153365  WZ5       1357            0.0000000000
     29175      9725  TIP3      H2            -11.7080903985       -4.3174357466       36.0630753365  WZ5       1357            0.0000000000
     29176      9726  TIP3      OH2            -4.7524103985       -4.3152057466       39.5561053365  WZ5       1358            0.0000000000
     29177      9726  TIP3      H1             -4.9467003985       -5.0629957466       38.9910653365  WZ5       1358            0.0000000000
     29178      9726  TIP3      H2             -4.7914003985       -3.5571957466       38.9728953365  WZ5       1358            0.0000000000
     29179      9727  TIP3      OH2            -1.6028003985       -9.2659357466       39.0924153365  WZ5       1386            0.0000000000
     29180      9727  TIP3      H1             -1.8747103985       -9.0368357466       38.2037053365  WZ5       1386            0.0000000000
     29181      9727  TIP3      H2             -1.5572303985       -8.4280557466       39.5529453365  WZ5       1386            0.0000000000
     29182      9728  TIP3      OH2             7.5924996015      -12.4335257466       39.1890353365  WZ5       1393            0.0000000000
     29183      9728  TIP3      H1              6.8810496015      -11.8985557466       38.8370853365  WZ5       1393            0.0000000000
     29184      9728  TIP3      H2              8.2834596015      -12.3783157466       38.5289253365  WZ5       1393            0.0000000000
     29185      9729  TIP3      OH2             7.6464196015      -13.9760957466       36.2275353365  WZ5       1394            0.0000000000
     29186      9729  TIP3      H1              8.3474096015      -13.9534057466       36.8789353365  WZ5       1394            0.0000000000
     29187      9729  TIP3      H2              7.9487096015      -14.6041257466       35.5714653365  WZ5       1394            0.0000000000
     29188      9730  TIP3      OH2            10.9982696015      -12.2241957466       40.1406253365  WZ5       1396            0.0000000000
     29189      9730  TIP3      H1             10.2663696015      -11.9958257466       40.7136853365  WZ5       1396            0.0000000000
     29190      9730  TIP3      H2             11.4454896015      -12.9379257466       40.5953753365  WZ5       1396            0.0000000000
     29191      9731  TIP3      OH2             9.8692196015      -13.0619057466       37.8257453365  WZ5       1403            0.0000000000
     29192      9731  TIP3      H1             10.4487696015      -12.9118757466       38.5726353365  WZ5       1403            0.0000000000
     29193      9731  TIP3      H2             10.2832196015      -12.5911657466       37.1023853365  WZ5       1403            0.0000000000
     29194      9732  TIP3      OH2             1.6339096015      -12.5241457466       39.6124053365  WZ5       1408            0.0000000000
     29195      9732  TIP3      H1              1.3420396015      -11.7559757466       39.1215353365  WZ5       1408            0.0000000000
     29196      9732  TIP3      H2              0.9594296015      -13.1835257466       39.4495453365  WZ5       1408            0.0000000000
     29197      9733  TIP3      OH2            14.7571996015       -6.9456257466       36.0151053365  WZ5       1409            0.0000000000
     29198      9733  TIP3      H1             14.8305496015       -6.0066057466       36.1856353365  WZ5       1409            0.0000000000
     29199      9733  TIP3      H2             15.6627096015       -7.2507657466       35.9588353365  WZ5       1409            0.0000000000
     29200      9734  TIP3      OH2             7.0680196015       -3.3685857466       39.6759753365  WZ5       1414            0.0000000000
     29201      9734  TIP3      H1              6.9926196015       -3.4898657466       38.7294953365  WZ5       1414            0.0000000000
     29202      9734  TIP3      H2              7.1008896015       -2.4193157466       39.7944353365  WZ5       1414            0.0000000000
     29203      9735  TIP3      OH2            10.1696196015       -4.2145657466       36.6782153365  WZ5       1416            0.0000000000
     29204      9735  TIP3      H1             10.5444596015       -4.9589557466       36.2074753365  WZ5       1416            0.0000000000
     29205      9735  TIP3      H2             10.1739896015       -4.4845057466       37.5965453365  WZ5       1416            0.0000000000
     29206      9736  TIP3      OH2             9.8384296015       -4.2888557466       39.4274353365  WZ5       1417            0.0000000000
     29207      9736  TIP3      H1              8.9034096015       -4.1886657466       39.6061353365  WZ5       1417            0.0000000000
     29208      9736  TIP3      H2             10.1186196015       -4.9982557466       40.0057553365  WZ5       1417            0.0000000000
     29209      9737  TIP3      OH2            11.3465296015      -12.0290757466       35.4555353365  WZ5       1423            0.0000000000
     29210      9737  TIP3      H1             11.3886096015      -12.2516857466       34.5255353365  WZ5       1423            0.0000000000
     29211      9737  TIP3      H2             12.1957396015      -11.6303657466       35.6455253365  WZ5       1423            0.0000000000
     29212      9738  TIP3      OH2             6.9192796015      -18.1532557466       36.1258653365  WZ5       1424            0.0000000000
     29213      9738  TIP3      H1              6.6657596015      -18.1340957466       37.0486753365  WZ5       1424            0.0000000000
     29214      9738  TIP3      H2              6.6624896015      -19.0247157466       35.8244853365  WZ5       1424            0.0000000000
     29215      9739  TIP3      OH2             8.2182396015      -14.7651457466       40.2901853365  WZ5       1427            0.0000000000
     29216      9739  TIP3      H1              7.8092696015      -13.9502857466       39.9986653365  WZ5       1427            0.0000000000
     29217      9739  TIP3      H2              8.9388596015      -14.9051357466       39.6758953365  WZ5       1427            0.0000000000
     29218      9740  TIP3      OH2             3.8015696015      -17.7076057466       35.2269053365  WZ5       1431            0.0000000000
     29219      9740  TIP3      H1              3.3706396015      -18.1525957466       35.9566453365  WZ5       1431            0.0000000000
     29220      9740  TIP3      H2              3.0834396015      -17.3359757466       34.7146553365  WZ5       1431            0.0000000000
     29221      9741  TIP3      OH2             3.7457396015      -16.1245357466       39.0427353365  WZ5       1437            0.0000000000
     29222      9741  TIP3      H1              4.6772896015      -15.9955357466       39.2210453365  WZ5       1437            0.0000000000
     29223      9741  TIP3      H2              3.5307696015      -15.4551057466       38.3932053365  WZ5       1437            0.0000000000
     29224      9742  TIP3      OH2             2.4197596015      -14.9303157466       36.6093453365  WZ5       1439            0.0000000000
     29225      9742  TIP3      H1              1.8772696015      -15.3099357466       35.9181053365  WZ5       1439            0.0000000000
     29226      9742  TIP3      H2              3.2532496015      -14.7358457466       36.1807553365  WZ5       1439            0.0000000000
     29227      9743  TIP3      OH2             5.7550396015      -10.3647457466       38.5451553365  WZ5       1445            0.0000000000
     29228      9743  TIP3      H1              5.0101396015      -10.8722157466       38.2229453365  WZ5       1445            0.0000000000
     29229      9743  TIP3      H2              5.6207596015      -10.3159457466       39.4916353365  WZ5       1445            0.0000000000
     29230      9744  TIP3      OH2             9.6527196015      -17.5507557466       36.7444153365  WZ5       1447            0.0000000000
     29231      9744  TIP3      H1              8.7141396015      -17.4391957466       36.5932953365  WZ5       1447            0.0000000000
     29232      9744  TIP3      H2              9.9499296015      -16.6940657466       37.0509853365  WZ5       1447            0.0000000000
     29233      9745  TIP3      OH2            10.3710696015      -15.6834857466       38.4051553365  WZ5       1449            0.0000000000
     29234      9745  TIP3      H1             11.2629696015      -15.8209857466       38.7242753365  WZ5       1449            0.0000000000
     29235      9745  TIP3      H2             10.4274296015      -14.8928757466       37.8685053365  WZ5       1449            0.0000000000
     29236      9746  TIP3      OH2             7.8804496015       -8.9063157466       37.5706153365  WZ5       1451            0.0000000000
     29237      9746  TIP3      H1              7.5852896015       -8.0795257466       37.9520953365  WZ5       1451            0.0000000000
     29238      9746  TIP3      H2              7.1774496015       -9.5256257466       37.7667553365  WZ5       1451            0.0000000000
     29239      9747  TIP3      OH2            15.2559396015      -15.4740757466       38.0998253365  WZ5       1455            0.0000000000
     29240      9747  TIP3      H1             14.7015696015      -15.8702757466       37.4275753365  WZ5       1455            0.0000000000
     29241      9747  TIP3      H2             15.3562996015      -14.5635557466       37.8221553365  WZ5       1455            0.0000000000
     29242      9748  TIP3      OH2            13.5511096015       -6.6880357466       38.5650353365  WZ5       1457            0.0000000000
     29243      9748  TIP3      H1             13.1782196015       -7.5136557466       38.8740953365  WZ5       1457            0.0000000000
     29244      9748  TIP3      H2             13.8284596015       -6.8710957466       37.6673753365  WZ5       1457            0.0000000000
     29245      9749  TIP3      OH2            -0.9904203985      -12.6895157466       36.3063353365  WZ5       1460            0.0000000000
     29246      9749  TIP3      H1             -0.3744303985      -12.0627957466       36.6858153365  WZ5       1460            0.0000000000
     29247      9749  TIP3      H2             -1.8521603985      -12.3735357466       36.5779853365  WZ5       1460            0.0000000000
     29248      9750  TIP3      OH2            10.9436696015       -8.7114557466       36.3850953365  WZ5       1465            0.0000000000
     29249      9750  TIP3      H1             11.2969796015       -9.0914757466       37.1894453365  WZ5       1465            0.0000000000
     29250      9750  TIP3      H2              9.9950196015       -8.8049757466       36.4720253365  WZ5       1465            0.0000000000
     29251      9751  TIP3      OH2            15.4471096015       -4.2322057466       36.5861153365  WZ5       1467            0.0000000000
     29252      9751  TIP3      H1             16.1908996015       -3.6461557466       36.4462753365  WZ5       1467            0.0000000000
     29253      9751  TIP3      H2             14.7529196015       -3.6636257466       36.9193553365  WZ5       1467            0.0000000000
     29254      9752  TIP3      OH2            11.8095996015      -10.0392557466       38.6118853365  WZ5       1469            0.0000000000
     29255      9752  TIP3      H1             11.5323596015      -10.7673257466       39.1679953365  WZ5       1469            0.0000000000
     29256      9752  TIP3      H2             12.7368996015       -9.9200557466       38.8171453365  WZ5       1469            0.0000000000
     29257      9753  TIP3      OH2             5.0344496015       -7.5998457466       34.8320953365  WZ5       1471            0.0000000000
     29258      9753  TIP3      H1              5.2734296015       -8.3480357466       34.2849853365  WZ5       1471            0.0000000000
     29259      9753  TIP3      H2              4.7655796015       -7.9876757466       35.6648753365  WZ5       1471            0.0000000000
     29260      9754  TIP3      OH2             3.9715096015       -8.0294657466       37.2883553365  WZ5       1472            0.0000000000
     29261      9754  TIP3      H1              4.1183096015       -8.5494857466       38.0784453365  WZ5       1472            0.0000000000
     29262      9754  TIP3      H2              3.9686796015       -7.1227057466       37.5949453365  WZ5       1472            0.0000000000
     29263      9755  TIP3      OH2             0.4246196015      -10.7771357466       37.7988953365  WZ5       1473            0.0000000000
     29264      9755  TIP3      H1             -0.2614503985      -10.4248857466       38.3658653365  WZ5       1473            0.0000000000
     29265      9755  TIP3      H2              0.9474096015      -10.0141757466       37.5523253365  WZ5       1473            0.0000000000
     29266      9756  TIP3      OH2             9.0406196015      -18.4625857466       39.1750253365  WZ5       1475            0.0000000000
     29267      9756  TIP3      H1              9.2604496015      -17.9910457466       38.3715653365  WZ5       1475            0.0000000000
     29268      9756  TIP3      H2              9.5990196015      -18.0683257466       39.8450853365  WZ5       1475            0.0000000000
     29269      9757  TIP3      OH2             6.7092296015       -6.3321057466       38.0377753365  WZ5       1476            0.0000000000
     29270      9757  TIP3      H1              5.8928396015       -5.8351357466       38.0902053365  WZ5       1476            0.0000000000
     29271      9757  TIP3      H2              7.2388596015       -5.8567557466       37.3976553365  WZ5       1476            0.0000000000
     29272      9758  TIP3      OH2             6.2406096015      -16.7347057466       40.0098653365  WZ5       1477            0.0000000000
     29273      9758  TIP3      H1              7.0528696015      -16.2303857466       40.0560353365  WZ5       1477            0.0000000000
     29274      9758  TIP3      H2              5.9959096015      -16.8797357466       40.9238253365  WZ5       1477            0.0000000000
     29275      9759  TIP3      OH2             4.0475396015       -5.2883857466       38.0194653365  WZ5       1480            0.0000000000
     29276      9759  TIP3      H1              4.2084096015       -4.4886357466       37.5187253365  WZ5       1480            0.0000000000
     29277      9759  TIP3      H2              3.8503196015       -4.9817857466       38.9045253365  WZ5       1480            0.0000000000
     29278      9760  TIP3      OH2             2.7819796015      -18.5904657466       37.6352253365  WZ5       1481            0.0000000000
     29279      9760  TIP3      H1              2.6984596015      -17.7021557466       37.9818653365  WZ5       1481            0.0000000000
     29280      9760  TIP3      H2              3.6720096015      -18.8557957466       37.8669053365  WZ5       1481            0.0000000000
     29281      9761  TIP3      OH2             1.0405096015       -8.1632457466       36.6956753365  WZ5       1484            0.0000000000
     29282      9761  TIP3      H1              1.6326596015       -7.4637657466       36.9719153365  WZ5       1484            0.0000000000
     29283      9761  TIP3      H2              1.4998096015       -8.5962957466       35.9761353365  WZ5       1484            0.0000000000
     29284      9762  TIP3      OH2            -0.6435703985      -15.4989457466       35.8116153365  WZ5       1485            0.0000000000
     29285      9762  TIP3      H1             -0.6883103985      -14.5596357466       35.9903153365  WZ5       1485            0.0000000000
     29286      9762  TIP3      H2             -1.5312503985      -15.7344557466       35.5418253365  WZ5       1485            0.0000000000
     29287      9763  TIP3      OH2            -0.9050403985       -6.7765757466       40.6452953365  WZ5       1488            0.0000000000
     29288      9763  TIP3      H1             -1.7371803985       -6.3043057466       40.6724353365  WZ5       1488            0.0000000000
     29289      9763  TIP3      H2             -0.3592103985       -6.2668157466       40.0466053365  WZ5       1488            0.0000000000
     29290      9764  TIP3      OH2             7.0726296015       -5.7367057466       34.9706953365  WZ5       1491            0.0000000000
     29291      9764  TIP3      H1              6.4287296015       -6.3678457466       35.2920653365  WZ5       1491            0.0000000000
     29292      9764  TIP3      H2              7.8344596015       -6.2679057466       34.7390453365  WZ5       1491            0.0000000000
     29293      9765  TIP3      OH2            11.6769196015       -5.9197157466       35.2044953365  WZ5       1493            0.0000000000
     29294      9765  TIP3      H1             11.9599596015       -6.7141957466       35.6571853365  WZ5       1493            0.0000000000
     29295      9765  TIP3      H2             12.4167096015       -5.6866157466       34.6436053365  WZ5       1493            0.0000000000
     29296      9766  TIP3      OH2             2.6316496015      -10.0102257466       35.0619853365  WZ5       1495            0.0000000000
     29297      9766  TIP3      H1              2.6960596015      -10.8042657466       35.5926253365  WZ5       1495            0.0000000000
     29298      9766  TIP3      H2              3.2845696015      -10.1289457466       34.3721853365  WZ5       1495            0.0000000000
     29299      9767  TIP3      OH2             7.9839896015       -8.9630557466       34.7977853365  WZ5       1497            0.0000000000
     29300      9767  TIP3      H1              7.7153996015       -8.7828457466       35.6986753365  WZ5       1497            0.0000000000
     29301      9767  TIP3      H2              7.7775496015       -9.8884357466       34.6663653365  WZ5       1497            0.0000000000
     29302      9768  TIP3      OH2             3.7810296015      -12.0376057466       37.3677853365  WZ5       1500            0.0000000000
     29303      9768  TIP3      H1              3.3212296015      -12.5217757466       38.0536353365  WZ5       1500            0.0000000000
     29304      9768  TIP3      H2              4.0358996015      -12.7060657466       36.7318353365  WZ5       1500            0.0000000000
     29305      9769  TIP3      OH2             4.8520696015      -13.7944257466       35.6301053365  WZ5       1502            0.0000000000
     29306      9769  TIP3      H1              4.6715696015      -13.9493057466       34.7029353365  WZ5       1502            0.0000000000
     29307      9769  TIP3      H2              5.8021196015      -13.6865557466       35.6748953365  WZ5       1502            0.0000000000
     29308      9770  TIP3      OH2            14.2418996015      -11.4400057466       35.0759153365  WZ5       1504            0.0000000000
     29309      9770  TIP3      H1             13.9683796015      -11.8644557466       34.2627453365  WZ5       1504            0.0000000000
     29310      9770  TIP3      H2             14.2813096015      -10.5085557466       34.8589553365  WZ5       1504            0.0000000000
     29311      9771  TIP3      OH2             4.7492396015       -3.1040557466       36.6314653365  WZ5       1518            0.0000000000
     29312      9771  TIP3      H1              5.6823096015       -2.9461857466       36.7753053365  WZ5       1518            0.0000000000
     29313      9771  TIP3      H2              4.4851196015       -2.4287557466       36.0066153365  WZ5       1518            0.0000000000
     29314      9772  TIP3      OH2            -1.6822703985       -8.4676757466       36.1142753365  WZ5       1519            0.0000000000
     29315      9772  TIP3      H1             -0.7683503985       -8.3887857466       36.3876653365  WZ5       1519            0.0000000000
     29316      9772  TIP3      H2             -1.6749603985       -9.1547157466       35.4478353365  WZ5       1519            0.0000000000
     29317      9773  TIP3      OH2            14.7001796015      -10.5711957466       39.0509553365  WZ5       1525            0.0000000000
     29318      9773  TIP3      H1             15.5503196015      -10.1501057466       39.1781153365  WZ5       1525            0.0000000000
     29319      9773  TIP3      H2             14.7056896015      -11.3111857466       39.6580953365  WZ5       1525            0.0000000000
     29320      9774  TIP3      OH2            15.3630496015      -12.6166057466       37.2656553365  WZ5       1529            0.0000000000
     29321      9774  TIP3      H1             14.8411596015      -12.2601957466       36.5467453365  WZ5       1529            0.0000000000
     29322      9774  TIP3      H2             15.3299696015      -11.9418257466       37.9437453365  WZ5       1529            0.0000000000
     29323      9775  TIP3      OH2            13.7119496015      -15.3770457466       35.8163653365  WZ5       1530            0.0000000000
     29324      9775  TIP3      H1             13.8083896015      -14.7103457466       35.1363353365  WZ5       1530            0.0000000000
     29325      9775  TIP3      H2             13.5719096015      -16.1924157466       35.3349153365  WZ5       1530            0.0000000000
     29326      9776  TIP3      OH2            12.9593296015      -17.9690657466       34.9339153365  WZ5       1535            0.0000000000
     29327      9776  TIP3      H1             13.5699096015      -18.3403857466       35.5707353365  WZ5       1535            0.0000000000
     29328      9776  TIP3      H2             12.1224796015      -18.3903757466       35.1299153365  WZ5       1535            0.0000000000
     29329      9777  TIP3      OH2            -1.4697203985       -5.0877257466       38.4793753365  WZ5       1570            0.0000000000
     29330      9777  TIP3      H1             -2.1547303985       -5.1258357466       37.8118853365  WZ5       1570            0.0000000000
     29331      9777  TIP3      H2             -1.4660003985       -4.1749657466       38.7675853365  WZ5       1570            0.0000000000
     29332      9778  TIP3      OH2             0.4902396015      -19.1197957466       36.0242753365  WZ5       1571            0.0000000000
     29333      9778  TIP3      H1              0.9815796015      -19.7495557466       35.4968253365  WZ5       1571            0.0000000000
     29334      9778  TIP3      H2              1.1138696015      -18.8238557466       36.6873953365  WZ5       1571            0.0000000000
     29335      9779  TIP3      OH2             5.5162496015      -18.8266457466       38.4813253365  WZ5       1572            0.0000000000
     29336      9779  TIP3      H1              5.6943796015      -19.4733257466       39.1641853365  WZ5       1572            0.0000000000
     29337      9779  TIP3      H2              5.4628696015      -17.9928757466       38.9484353365  WZ5       1572            0.0000000000
     29338      9780  TIP3      OH2             7.3946296015       -3.8782357466       36.8769953365  WZ5       1573            0.0000000000
     29339      9780  TIP3      H1              8.2606496015       -3.5114957466       36.6988153365  WZ5       1573            0.0000000000
     29340      9780  TIP3      H2              7.1479096015       -4.3174357466       36.0630753365  WZ5       1573            0.0000000000
     29341      9781  TIP3      OH2             0.3483996015       -4.1676457466       35.5045853365  WZ5       1577            0.0000000000
     29342      9781  TIP3      H1              0.0808596015       -3.8813557466       36.3778953365  WZ5       1577            0.0000000000
     29343      9781  TIP3      H2              1.1196596015       -4.7137257466       35.6568353365  WZ5       1577            0.0000000000
     29344      9782  TIP3      OH2            17.2531996015       -9.2659357466       39.0924153365  WZ5       1602            0.0000000000
     29345      9782  TIP3      H1             16.9812896015       -9.0368357466       38.2037053365  WZ5       1602            0.0000000000
     29346      9782  TIP3      H2             17.2987696015       -8.4280557466       39.5529453365  WZ5       1602            0.0000000000
     29347      9783  TIP3      OH2            17.8655796015      -12.6895157466       36.3063353365  WZ5       1676            0.0000000000
     29348      9783  TIP3      H1             18.4815696015      -12.0627957466       36.6858153365  WZ5       1676            0.0000000000
     29349      9783  TIP3      H2             17.0038396015      -12.3735357466       36.5779853365  WZ5       1676            0.0000000000
     29350      9784  TIP3      OH2            19.2806196015      -10.7771357466       37.7988953365  WZ5       1689            0.0000000000
     29351      9784  TIP3      H1             18.5945496015      -10.4248857466       38.3658653365  WZ5       1689            0.0000000000
     29352      9784  TIP3      H2             19.8034096015      -10.0141757466       37.5523253365  WZ5       1689            0.0000000000
     29353      9785  TIP3      OH2            19.8965096015       -8.1632457466       36.6956753365  WZ5       1700            0.0000000000
     29354      9785  TIP3      H1             20.4886596015       -7.4637657466       36.9719153365  WZ5       1700            0.0000000000
     29355      9785  TIP3      H2             20.3558096015       -8.5962957466       35.9761353365  WZ5       1700            0.0000000000
     29356      9786  TIP3      OH2            18.2124296015      -15.4989457466       35.8116153365  WZ5       1701            0.0000000000
     29357      9786  TIP3      H1             18.1676896015      -14.5596357466       35.9903153365  WZ5       1701            0.0000000000
     29358      9786  TIP3      H2             17.3247496015      -15.7344557466       35.5418253365  WZ5       1701            0.0000000000
     29359      9787  TIP3      OH2            21.4876496015      -10.0102257466       35.0619853365  WZ5       1711            0.0000000000
     29360      9787  TIP3      H1             21.5520596015      -10.8042657466       35.5926253365  WZ5       1711            0.0000000000
     29361      9787  TIP3      H2             22.1405696015      -10.1289457466       34.3721853365  WZ5       1711            0.0000000000
     29362      9788  TIP3      OH2            17.1737296015       -8.4676757466       36.1142753365  WZ5       1735            0.0000000000
     29363      9788  TIP3      H1             18.0876496015       -8.3887857466       36.3876653365  WZ5       1735            0.0000000000
     29364      9788  TIP3      H2             17.1810396015       -9.1547157466       35.4478353365  WZ5       1735            0.0000000000
     29365      9789  TIP3      OH2           -22.9548003985       11.9103742534       36.0151053365  WZ5       1908            0.0000000000
     29366      9789  TIP3      H1            -22.8814503985       12.8493942534       36.1856353365  WZ5       1908            0.0000000000
     29367      9789  TIP3      H2            -22.0492903985       11.6052342534       35.9588353365  WZ5       1908            0.0000000000
     29368      9790  TIP3      OH2           -26.0350803985       12.9362842534       35.2044953365  WZ5       1992            0.0000000000
     29369      9790  TIP3      H1            -25.7520403985       12.1418042534       35.6571853365  WZ5       1992            0.0000000000
     29370      9790  TIP3      H2            -25.2952903985       13.1693842534       34.6436053365  WZ5       1992            0.0000000000
     29371      9791  TIP3      OH2           -23.4701003985        7.4159942534       35.0759153365  WZ5       2003            0.0000000000
     29372      9791  TIP3      H1            -23.7436203985        6.9915442534       34.2627453365  WZ5       2003            0.0000000000
     29373      9791  TIP3      H2            -23.4306903985        8.3474442534       34.8589553365  WZ5       2003            0.0000000000
     29374      9792  TIP3      OH2           -11.2635003985        6.4224742534       39.1890353365  WZ5       2108            0.0000000000
     29375      9792  TIP3      H1            -11.9749503985        6.9574442534       38.8370853365  WZ5       2108            0.0000000000
     29376      9792  TIP3      H2            -10.5725403985        6.4776842534       38.5289253365  WZ5       2108            0.0000000000
     29377      9793  TIP3      OH2           -11.2095803985        4.8799042534       36.2275353365  WZ5       2109            0.0000000000
     29378      9793  TIP3      H1            -10.5085903985        4.9025942534       36.8789353365  WZ5       2109            0.0000000000
     29379      9793  TIP3      H2            -10.9072903985        4.2518742534       35.5714653365  WZ5       2109            0.0000000000
     29380      9794  TIP3      OH2            -7.8577303985        6.6318042534       40.1406253365  WZ5       2111            0.0000000000
     29381      9794  TIP3      H1             -8.5896303985        6.8601742534       40.7136853365  WZ5       2111            0.0000000000
     29382      9794  TIP3      H2             -7.4105103985        5.9180742534       40.5953753365  WZ5       2111            0.0000000000
     29383      9795  TIP3      OH2            -8.9867803985        5.7940942534       37.8257453365  WZ5       2118            0.0000000000
     29384      9795  TIP3      H1             -8.4072303985        5.9441242534       38.5726353365  WZ5       2118            0.0000000000
     29385      9795  TIP3      H2             -8.5727803985        6.2648342534       37.1023853365  WZ5       2118            0.0000000000
     29386      9796  TIP3      OH2            -5.2879403985       -2.4558657466       37.6387153365  WZ5       2122            0.0000000000
     29387      9796  TIP3      H1             -6.1878703985       -2.3169657466       37.9337753365  WZ5       2122            0.0000000000
     29388      9796  TIP3      H2             -5.0361003985       -1.6244057466       37.2368853365  WZ5       2122            0.0000000000
     29389      9797  TIP3      OH2            -4.0988003985       11.9103742534       36.0151053365  WZ5       2124            0.0000000000
     29390      9797  TIP3      H1             -4.0254503985       12.8493942534       36.1856353365  WZ5       2124            0.0000000000
     29391      9797  TIP3      H2             -3.1932903985       11.6052342534       35.9588353365  WZ5       2124            0.0000000000
     29392      9798  TIP3      OH2           -11.7879803985       15.4874142534       39.6759753365  WZ5       2129            0.0000000000
     29393      9798  TIP3      H1            -11.8633803985       15.3661342534       38.7294953365  WZ5       2129            0.0000000000
     29394      9798  TIP3      H2            -11.7551103985       16.4366842534       39.7944353365  WZ5       2129            0.0000000000
     29395      9799  TIP3      OH2            -8.6863803985       14.6414342534       36.6782153365  WZ5       2131            0.0000000000
     29396      9799  TIP3      H1             -8.3115403985       13.8970442534       36.2074753365  WZ5       2131            0.0000000000
     29397      9799  TIP3      H2             -8.6820103985       14.3714942534       37.5965453365  WZ5       2131            0.0000000000
     29398      9800  TIP3      OH2            -9.0175703985       14.5671442534       39.4274353365  WZ5       2132            0.0000000000
     29399      9800  TIP3      H1             -9.9525903985       14.6673342534       39.6061353365  WZ5       2132            0.0000000000
     29400      9800  TIP3      H2             -8.7373803985       13.8577442534       40.0057553365  WZ5       2132            0.0000000000
     29401      9801  TIP3      OH2            -7.5094703985        6.8269242534       35.4555353365  WZ5       2138            0.0000000000
     29402      9801  TIP3      H1             -7.4673903985        6.6043142534       34.5255353365  WZ5       2138            0.0000000000
     29403      9801  TIP3      H2             -6.6602603985        7.2256342534       35.6455253365  WZ5       2138            0.0000000000
     29404      9802  TIP3      OH2           -11.9367203985        0.7027442534       36.1258653365  WZ5       2139            0.0000000000
     29405      9802  TIP3      H1            -12.1902403985        0.7219042534       37.0486753365  WZ5       2139            0.0000000000
     29406      9802  TIP3      H2            -12.1935103985       -0.1687157466       35.8244853365  WZ5       2139            0.0000000000
     29407      9803  TIP3      OH2           -10.6377603985        4.0908542534       40.2901853365  WZ5       2142            0.0000000000
     29408      9803  TIP3      H1            -11.0467303985        4.9057142534       39.9986653365  WZ5       2142            0.0000000000
     29409      9803  TIP3      H2             -9.9171403985        3.9508642534       39.6758953365  WZ5       2142            0.0000000000
     29410      9804  TIP3      OH2           -15.0544303985        1.1483942534       35.2269053365  WZ5       2146            0.0000000000
     29411      9804  TIP3      H1            -15.4853603985        0.7034042534       35.9566453365  WZ5       2146            0.0000000000
     29412      9804  TIP3      H2            -15.7725603985        1.5200242534       34.7146553365  WZ5       2146            0.0000000000
     29413      9805  TIP3      OH2           -16.4362403985        3.9256842534       36.6093453365  WZ5       2154            0.0000000000
     29414      9805  TIP3      H1            -16.9787303985        3.5460642534       35.9181053365  WZ5       2154            0.0000000000
     29415      9805  TIP3      H2            -15.6027503985        4.1201542534       36.1807553365  WZ5       2154            0.0000000000
     29416      9806  TIP3      OH2           -13.1009603985        8.4912542534       38.5451553365  WZ5       2160            0.0000000000
     29417      9806  TIP3      H1            -13.8458603985        7.9837842534       38.2229453365  WZ5       2160            0.0000000000
     29418      9806  TIP3      H2            -13.2352403985        8.5400542534       39.4916353365  WZ5       2160            0.0000000000
     29419      9807  TIP3      OH2            -9.2032803985        1.3052442534       36.7444153365  WZ5       2162            0.0000000000
     29420      9807  TIP3      H1            -10.1418603985        1.4168042534       36.5932953365  WZ5       2162            0.0000000000
     29421      9807  TIP3      H2             -8.9060703985        2.1619342534       37.0509853365  WZ5       2162            0.0000000000
     29422      9808  TIP3      OH2            -8.4849303985        3.1725142534       38.4051553365  WZ5       2164            0.0000000000
     29423      9808  TIP3      H1             -7.5930303985        3.0350142534       38.7242753365  WZ5       2164            0.0000000000
     29424      9808  TIP3      H2             -8.4285703985        3.9631242534       37.8685053365  WZ5       2164            0.0000000000
     29425      9809  TIP3      OH2           -10.9755503985        9.9496842534       37.5706153365  WZ5       2166            0.0000000000
     29426      9809  TIP3      H1            -11.2707103985       10.7764742534       37.9520953365  WZ5       2166            0.0000000000
     29427      9809  TIP3      H2            -11.6785503985        9.3303742534       37.7667553365  WZ5       2166            0.0000000000
     29428      9810  TIP3      OH2            -3.6000603985        3.3819242534       38.0998253365  WZ5       2170            0.0000000000
     29429      9810  TIP3      H1             -4.1544303985        2.9857242534       37.4275753365  WZ5       2170            0.0000000000
     29430      9810  TIP3      H2             -3.4997003985        4.2924442534       37.8221553365  WZ5       2170            0.0000000000
     29431      9811  TIP3      OH2            -5.3048903985       12.1679642534       38.5650353365  WZ5       2172            0.0000000000
     29432      9811  TIP3      H1             -5.6777803985       11.3423442534       38.8740953365  WZ5       2172            0.0000000000
     29433      9811  TIP3      H2             -5.0275403985       11.9849042534       37.6673753365  WZ5       2172            0.0000000000
     29434      9812  TIP3      OH2            -7.9123303985       10.1445442534       36.3850953365  WZ5       2180            0.0000000000
     29435      9812  TIP3      H1             -7.5590203985        9.7645242534       37.1894453365  WZ5       2180            0.0000000000
     29436      9812  TIP3      H2             -8.8609803985       10.0510242534       36.4720253365  WZ5       2180            0.0000000000
     29437      9813  TIP3      OH2            -3.4088903985       14.6237942534       36.5861153365  WZ5       2182            0.0000000000
     29438      9813  TIP3      H1             -2.6651003985       15.2098442534       36.4462753365  WZ5       2182            0.0000000000
     29439      9813  TIP3      H2             -4.1030803985       15.1923742534       36.9193553365  WZ5       2182            0.0000000000
     29440      9814  TIP3      OH2            -7.0464003985        8.8167442534       38.6118853365  WZ5       2184            0.0000000000
     29441      9814  TIP3      H1             -7.3236403985        8.0886742534       39.1679953365  WZ5       2184            0.0000000000
     29442      9814  TIP3      H2             -6.1191003985        8.9359442534       38.8171453365  WZ5       2184            0.0000000000
     29443      9815  TIP3      OH2           -13.8215503985       11.2561542534       34.8320953365  WZ5       2186            0.0000000000
     29444      9815  TIP3      H1            -13.5825703985       10.5079642534       34.2849853365  WZ5       2186            0.0000000000
     29445      9815  TIP3      H2            -14.0904203985       10.8683242534       35.6648753365  WZ5       2186            0.0000000000
     29446      9816  TIP3      OH2           -14.8844903985       10.8265342534       37.2883553365  WZ5       2187            0.0000000000
     29447      9816  TIP3      H1            -14.7376903985       10.3065142534       38.0784453365  WZ5       2187            0.0000000000
     29448      9816  TIP3      H2            -14.8873203985       11.7332942534       37.5949453365  WZ5       2187            0.0000000000
     29449      9817  TIP3      OH2           -18.4313803985        8.0788642534       37.7988953365  WZ5       2188            0.0000000000
     29450      9817  TIP3      H1            -19.1174503985        8.4311142534       38.3658653365  WZ5       2188            0.0000000000
     29451      9817  TIP3      H2            -17.9085903985        8.8418242534       37.5523253365  WZ5       2188            0.0000000000
     29452      9818  TIP3      OH2            -9.8153803985        0.3934142534       39.1750253365  WZ5       2190            0.0000000000
     29453      9818  TIP3      H1             -9.5955503985        0.8649542534       38.3715653365  WZ5       2190            0.0000000000
     29454      9818  TIP3      H2             -9.2569803985        0.7876742534       39.8450853365  WZ5       2190            0.0000000000
     29455      9819  TIP3      OH2           -12.1467703985       12.5238942534       38.0377753365  WZ5       2191            0.0000000000
     29456      9819  TIP3      H1            -12.9631603985       13.0208642534       38.0902053365  WZ5       2191            0.0000000000
     29457      9819  TIP3      H2            -11.6171403985       12.9992442534       37.3976553365  WZ5       2191            0.0000000000
     29458      9820  TIP3      OH2           -14.8084603985       13.5676142534       38.0194653365  WZ5       2195            0.0000000000
     29459      9820  TIP3      H1            -14.6475903985       14.3673642534       37.5187253365  WZ5       2195            0.0000000000
     29460      9820  TIP3      H2            -15.0056803985       13.8742142534       38.9045253365  WZ5       2195            0.0000000000
     29461      9821  TIP3      OH2           -17.8154903985       10.6927542534       36.6956753365  WZ5       2199            0.0000000000
     29462      9821  TIP3      H1            -17.2233403985       11.3922342534       36.9719153365  WZ5       2199            0.0000000000
     29463      9821  TIP3      H2            -17.3561903985       10.2597042534       35.9761353365  WZ5       2199            0.0000000000
     29464      9822  TIP3      OH2           -11.7833703985       13.1192942534       34.9706953365  WZ5       2206            0.0000000000
     29465      9822  TIP3      H1            -12.4272703985       12.4881542534       35.2920653365  WZ5       2206            0.0000000000
     29466      9822  TIP3      H2            -11.0215403985       12.5880942534       34.7390453365  WZ5       2206            0.0000000000
     29467      9823  TIP3      OH2            -7.1790803985       12.9362842534       35.2044953365  WZ5       2208            0.0000000000
     29468      9823  TIP3      H1             -6.8960403985       12.1418042534       35.6571853365  WZ5       2208            0.0000000000
     29469      9823  TIP3      H2             -6.4392903985       13.1693842534       34.6436053365  WZ5       2208            0.0000000000
     29470      9824  TIP3      OH2           -16.2243503985        8.8457742534       35.0619853365  WZ5       2210            0.0000000000
     29471      9824  TIP3      H1            -16.1599403985        8.0517342534       35.5926253365  WZ5       2210            0.0000000000
     29472      9824  TIP3      H2            -15.5714303985        8.7270542534       34.3721853365  WZ5       2210            0.0000000000
     29473      9825  TIP3      OH2           -10.8720103985        9.8929442534       34.7977853365  WZ5       2212            0.0000000000
     29474      9825  TIP3      H1            -11.1406003985       10.0731542534       35.6986753365  WZ5       2212            0.0000000000
     29475      9825  TIP3      H2            -11.0784503985        8.9675642534       34.6663653365  WZ5       2212            0.0000000000
     29476      9826  TIP3      OH2           -15.0749703985        6.8183942534       37.3677853365  WZ5       2215            0.0000000000
     29477      9826  TIP3      H1            -15.5347703985        6.3342242534       38.0536353365  WZ5       2215            0.0000000000
     29478      9826  TIP3      H2            -14.8201003985        6.1499342534       36.7318353365  WZ5       2215            0.0000000000
     29479      9827  TIP3      OH2           -14.0039303985        5.0615742534       35.6301053365  WZ5       2217            0.0000000000
     29480      9827  TIP3      H1            -14.1844303985        4.9066942534       34.7029353365  WZ5       2217            0.0000000000
     29481      9827  TIP3      H2            -13.0538803985        5.1694442534       35.6748953365  WZ5       2217            0.0000000000
     29482      9828  TIP3      OH2            -4.6141003985        7.4159942534       35.0759153365  WZ5       2219            0.0000000000
     29483      9828  TIP3      H1             -4.8876203985        6.9915442534       34.2627453365  WZ5       2219            0.0000000000
     29484      9828  TIP3      H2             -4.5746903985        8.3474442534       34.8589553365  WZ5       2219            0.0000000000
     29485      9829  TIP3      OH2           -14.1067603985       15.7519442534       36.6314653365  WZ5       2233            0.0000000000
     29486      9829  TIP3      H1            -13.1736903985       15.9098142534       36.7753053365  WZ5       2233            0.0000000000
     29487      9829  TIP3      H2            -14.3708803985       16.4272442534       36.0066153365  WZ5       2233            0.0000000000
     29488      9830  TIP3      OH2           -20.5382703985       10.3883242534       36.1142753365  WZ5       2234            0.0000000000
     29489      9830  TIP3      H1            -19.6243503985       10.4672142534       36.3876653365  WZ5       2234            0.0000000000
     29490      9830  TIP3      H2            -20.5309603985        9.7012842534       35.4478353365  WZ5       2234            0.0000000000
     29491      9831  TIP3      OH2            -4.1558203985        8.2848042534       39.0509553365  WZ5       2240            0.0000000000
     29492      9831  TIP3      H1             -3.3056803985        8.7058942534       39.1781153365  WZ5       2240            0.0000000000
     29493      9831  TIP3      H2             -4.1503103985        7.5448142534       39.6580953365  WZ5       2240            0.0000000000
     29494      9832  TIP3      OH2            -3.4929503985        6.2393942534       37.2656553365  WZ5       2244            0.0000000000
     29495      9832  TIP3      H1             -4.0148403985        6.5958042534       36.5467453365  WZ5       2244            0.0000000000
     29496      9832  TIP3      H2             -3.5260303985        6.9141742534       37.9437453365  WZ5       2244            0.0000000000
     29497      9833  TIP3      OH2            -5.1440503985        3.4789542534       35.8163653365  WZ5       2245            0.0000000000
     29498      9833  TIP3      H1             -5.0476103985        4.1456542534       35.1363353365  WZ5       2245            0.0000000000
     29499      9833  TIP3      H2             -5.2840903985        2.6635842534       35.3349153365  WZ5       2245            0.0000000000
     29500      9834  TIP3      OH2            -5.8966703985        0.8869342534       34.9339153365  WZ5       2250            0.0000000000
     29501      9834  TIP3      H1             -5.2860903985        0.5156142534       35.5707353365  WZ5       2250            0.0000000000
     29502      9834  TIP3      H2             -6.7335203985        0.4656242534       35.1299153365  WZ5       2250            0.0000000000
     29503      9835  TIP3      OH2            -6.2641003985        2.4417742534       39.8999053365  WZ5       2251            0.0000000000
     29504      9835  TIP3      H1             -5.9843903985        1.5348142534       40.0240753365  WZ5       2251            0.0000000000
     29505      9835  TIP3      H2             -5.5049303985        2.8759242534       39.5108253365  WZ5       2251            0.0000000000
     29506      9836  TIP3      OH2            -5.6506203985       -0.2952957466       39.9481053365  WZ5       2256            0.0000000000
     29507      9836  TIP3      H1             -5.4681203985       -0.7441457466       40.7736053365  WZ5       2256            0.0000000000
     29508      9836  TIP3      H2             -6.2503303985       -0.8798557466       39.4845653365  WZ5       2256            0.0000000000
     29509      9837  TIP3      OH2            -3.7840003985       -0.2274857466       36.4761353365  WZ5       2260            0.0000000000
     29510      9837  TIP3      H1             -3.3717403985       -0.9489157466       36.0009353365  WZ5       2260            0.0000000000
     29511      9837  TIP3      H2             -3.1023503985        0.4419742534       36.5345653365  WZ5       2260            0.0000000000
     29512      9838  TIP3      OH2            -7.5736503985       -1.9952857466       38.9332353365  WZ5       2284            0.0000000000
     29513      9838  TIP3      H1             -8.2765403985       -1.3803657466       38.7233753365  WZ5       2284            0.0000000000
     29514      9838  TIP3      H2             -8.0185103985       -2.8326157466       39.0643253365  WZ5       2284            0.0000000000
     29515      9839  TIP3      OH2           -11.4613703985       14.9777642534       36.8769953365  WZ5       2288            0.0000000000
     29516      9839  TIP3      H1            -10.5953503985       15.3445042534       36.6988153365  WZ5       2288            0.0000000000
     29517      9839  TIP3      H2            -11.7080903985       14.5385642534       36.0630753365  WZ5       2288            0.0000000000
     29518      9840  TIP3      OH2            -4.7524103985       14.5407942534       39.5561053365  WZ5       2289            0.0000000000
     29519      9840  TIP3      H1             -4.9467003985       13.7930042534       38.9910653365  WZ5       2289            0.0000000000
     29520      9840  TIP3      H2             -4.7914003985       15.2988042534       38.9728953365  WZ5       2289            0.0000000000
     29521      9841  TIP3      OH2           -18.5076003985       14.6883542534       35.5045853365  WZ5       2292            0.0000000000
     29522      9841  TIP3      H1            -18.7751403985       14.9746442534       36.3778953365  WZ5       2292            0.0000000000
     29523      9841  TIP3      H2            -17.7363403985       14.1422742534       35.6568353365  WZ5       2292            0.0000000000
     29524      9842  TIP3      OH2            -2.2937603985        4.1579042534       40.6766053365  WZ5       2300            0.0000000000
     29525      9842  TIP3      H1             -2.7414203985        5.0037742534       40.6582553365  WZ5       2300            0.0000000000
     29526      9842  TIP3      H2             -2.8546403985        3.5783242534       40.1611153365  WZ5       2300            0.0000000000
     29527      9843  TIP3      OH2            -1.6028003985        9.5900642534       39.0924153365  WZ5       2317            0.0000000000
     29528      9843  TIP3      H1             -1.8747103985        9.8191642534       38.2037053365  WZ5       2317            0.0000000000
     29529      9843  TIP3      H2             -1.5572303985       10.4279442534       39.5529453365  WZ5       2317            0.0000000000
     29530      9844  TIP3      OH2             7.6464196015        4.8799042534       36.2275353365  WZ5       2325            0.0000000000
     29531      9844  TIP3      H1              8.3474096015        4.9025942534       36.8789353365  WZ5       2325            0.0000000000
     29532      9844  TIP3      H2              7.9487096015        4.2518742534       35.5714653365  WZ5       2325            0.0000000000
     29533      9845  TIP3      OH2            13.5680596015       -2.4558657466       37.6387153365  WZ5       2338            0.0000000000
     29534      9845  TIP3      H1             12.6681296015       -2.3169657466       37.9337753365  WZ5       2338            0.0000000000
     29535      9845  TIP3      H2             13.8198996015       -1.6244057466       37.2368853365  WZ5       2338            0.0000000000
     29536      9846  TIP3      OH2             1.6339096015        6.3318542534       39.6124053365  WZ5       2339            0.0000000000
     29537      9846  TIP3      H1              1.3420396015        7.1000242534       39.1215353365  WZ5       2339            0.0000000000
     29538      9846  TIP3      H2              0.9594296015        5.6724742534       39.4495453365  WZ5       2339            0.0000000000
     29539      9847  TIP3      OH2            11.3465296015        6.8269242534       35.4555353365  WZ5       2354            0.0000000000
     29540      9847  TIP3      H1             11.3886096015        6.6043142534       34.5255353365  WZ5       2354            0.0000000000
     29541      9847  TIP3      H2             12.1957396015        7.2256342534       35.6455253365  WZ5       2354            0.0000000000
     29542      9848  TIP3      OH2             6.9192796015        0.7027442534       36.1258653365  WZ5       2355            0.0000000000
     29543      9848  TIP3      H1              6.6657596015        0.7219042534       37.0486753365  WZ5       2355            0.0000000000
     29544      9848  TIP3      H2              6.6624896015       -0.1687157466       35.8244853365  WZ5       2355            0.0000000000
     29545      9849  TIP3      OH2             3.8015696015        1.1483942534       35.2269053365  WZ5       2362            0.0000000000
     29546      9849  TIP3      H1              3.3706396015        0.7034042534       35.9566453365  WZ5       2362            0.0000000000
     29547      9849  TIP3      H2              3.0834396015        1.5200242534       34.7146553365  WZ5       2362            0.0000000000
     29548      9850  TIP3      OH2            -1.6818803985        1.6365442534       37.7028153365  WZ5       2364            0.0000000000
     29549      9850  TIP3      H1             -1.2077103985        2.2275342534       37.1179053365  WZ5       2364            0.0000000000
     29550      9850  TIP3      H2             -2.3992403985        2.1668342534       38.0498253365  WZ5       2364            0.0000000000
     29551      9851  TIP3      OH2             3.7457396015        2.7314642534       39.0427353365  WZ5       2368            0.0000000000
     29552      9851  TIP3      H1              4.6772896015        2.8604642534       39.2210453365  WZ5       2368            0.0000000000
     29553      9851  TIP3      H2              3.5307696015        3.4008942534       38.3932053365  WZ5       2368            0.0000000000
     29554      9852  TIP3      OH2             2.4197596015        3.9256842534       36.6093453365  WZ5       2370            0.0000000000
     29555      9852  TIP3      H1              1.8772696015        3.5460642534       35.9181053365  WZ5       2370            0.0000000000
     29556      9852  TIP3      H2              3.2532496015        4.1201542534       36.1807553365  WZ5       2370            0.0000000000
     29557      9853  TIP3      OH2             5.7550396015        8.4912542534       38.5451553365  WZ5       2376            0.0000000000
     29558      9853  TIP3      H1              5.0101396015        7.9837842534       38.2229453365  WZ5       2376            0.0000000000
     29559      9853  TIP3      H2              5.6207596015        8.5400542534       39.4916353365  WZ5       2376            0.0000000000
     29560      9854  TIP3      OH2             9.6527196015        1.3052442534       36.7444153365  WZ5       2378            0.0000000000
     29561      9854  TIP3      H1              8.7141396015        1.4168042534       36.5932953365  WZ5       2378            0.0000000000
     29562      9854  TIP3      H2              9.9499296015        2.1619342534       37.0509853365  WZ5       2378            0.0000000000
     29563      9855  TIP3      OH2            -0.9904203985        6.1664842534       36.3063353365  WZ5       2391            0.0000000000
     29564      9855  TIP3      H1             -0.3744303985        6.7932042534       36.6858153365  WZ5       2391            0.0000000000
     29565      9855  TIP3      H2             -1.8521603985        6.4824642534       36.5779853365  WZ5       2391            0.0000000000
     29566      9856  TIP3      OH2             5.0344496015       11.2561542534       34.8320953365  WZ5       2402            0.0000000000
     29567      9856  TIP3      H1              5.2734296015       10.5079642534       34.2849853365  WZ5       2402            0.0000000000
     29568      9856  TIP3      H2              4.7655796015       10.8683242534       35.6648753365  WZ5       2402            0.0000000000
     29569      9857  TIP3      OH2             3.9715096015       10.8265342534       37.2883553365  WZ5       2403            0.0000000000
     29570      9857  TIP3      H1              4.1183096015       10.3065142534       38.0784453365  WZ5       2403            0.0000000000
     29571      9857  TIP3      H2              3.9686796015       11.7332942534       37.5949453365  WZ5       2403            0.0000000000
     29572      9858  TIP3      OH2             0.4246196015        8.0788642534       37.7988953365  WZ5       2404            0.0000000000
     29573      9858  TIP3      H1             -0.2614503985        8.4311142534       38.3658653365  WZ5       2404            0.0000000000
     29574      9858  TIP3      H2              0.9474096015        8.8418242534       37.5523253365  WZ5       2404            0.0000000000
     29575      9859  TIP3      OH2             9.0406196015        0.3934142534       39.1750253365  WZ5       2406            0.0000000000
     29576      9859  TIP3      H1              9.2604496015        0.8649542534       38.3715653365  WZ5       2406            0.0000000000
     29577      9859  TIP3      H2              9.5990196015        0.7876742534       39.8450853365  WZ5       2406            0.0000000000
     29578      9860  TIP3      OH2             6.2406096015        2.1212942534       40.0098653365  WZ5       2408            0.0000000000
     29579      9860  TIP3      H1              7.0528696015        2.6256142534       40.0560353365  WZ5       2408            0.0000000000
     29580      9860  TIP3      H2              5.9959096015        1.9762642534       40.9238253365  WZ5       2408            0.0000000000
     29581      9861  TIP3      OH2             2.7819796015        0.2655342534       37.6352253365  WZ5       2412            0.0000000000
     29582      9861  TIP3      H1              2.6984596015        1.1538442534       37.9818653365  WZ5       2412            0.0000000000
     29583      9861  TIP3      H2              3.6720096015        0.0002042534       37.8669053365  WZ5       2412            0.0000000000
     29584      9862  TIP3      OH2             1.0405096015       10.6927542534       36.6956753365  WZ5       2415            0.0000000000
     29585      9862  TIP3      H1              1.6326596015       11.3922342534       36.9719153365  WZ5       2415            0.0000000000
     29586      9862  TIP3      H2              1.4998096015       10.2597042534       35.9761353365  WZ5       2415            0.0000000000
     29587      9863  TIP3      OH2            -0.6435703985        3.3570542534       35.8116153365  WZ5       2416            0.0000000000
     29588      9863  TIP3      H1             -0.6883103985        4.2963642534       35.9903153365  WZ5       2416            0.0000000000
     29589      9863  TIP3      H2             -1.5312503985        3.1215442534       35.5418253365  WZ5       2416            0.0000000000
     29590      9864  TIP3      OH2            -0.9050403985       12.0794242534       40.6452953365  WZ5       2419            0.0000000000
     29591      9864  TIP3      H1             -1.7371803985       12.5516942534       40.6724353365  WZ5       2419            0.0000000000
     29592      9864  TIP3      H2             -0.3592103985       12.5891842534       40.0466053365  WZ5       2419            0.0000000000
     29593      9865  TIP3      OH2             7.0726296015       13.1192942534       34.9706953365  WZ5       2422            0.0000000000
     29594      9865  TIP3      H1              6.4287296015       12.4881542534       35.2920653365  WZ5       2422            0.0000000000
     29595      9865  TIP3      H2              7.8344596015       12.5880942534       34.7390453365  WZ5       2422            0.0000000000
     29596      9866  TIP3      OH2             2.6316496015        8.8457742534       35.0619853365  WZ5       2426            0.0000000000
     29597      9866  TIP3      H1              2.6960596015        8.0517342534       35.5926253365  WZ5       2426            0.0000000000
     29598      9866  TIP3      H2              3.2845696015        8.7270542534       34.3721853365  WZ5       2426            0.0000000000
     29599      9867  TIP3      OH2             7.9839896015        9.8929442534       34.7977853365  WZ5       2428            0.0000000000
     29600      9867  TIP3      H1              7.7153996015       10.0731542534       35.6986753365  WZ5       2428            0.0000000000
     29601      9867  TIP3      H2              7.7775496015        8.9675642534       34.6663653365  WZ5       2428            0.0000000000
     29602      9868  TIP3      OH2             3.7810296015        6.8183942534       37.3677853365  WZ5       2431            0.0000000000
     29603      9868  TIP3      H1              3.3212296015        6.3342242534       38.0536353365  WZ5       2431            0.0000000000
     29604      9868  TIP3      H2              4.0358996015        6.1499342534       36.7318353365  WZ5       2431            0.0000000000
     29605      9869  TIP3      OH2             4.8520696015        5.0615742534       35.6301053365  WZ5       2433            0.0000000000
     29606      9869  TIP3      H1              4.6715696015        4.9066942534       34.7029353365  WZ5       2433            0.0000000000
     29607      9869  TIP3      H2              5.8021196015        5.1694442534       35.6748953365  WZ5       2433            0.0000000000
     29608      9870  TIP3      OH2            -1.6822703985       10.3883242534       36.1142753365  WZ5       2450            0.0000000000
     29609      9870  TIP3      H1             -0.7683503985       10.4672142534       36.3876653365  WZ5       2450            0.0000000000
     29610      9870  TIP3      H2             -1.6749603985        9.7012842534       35.4478353365  WZ5       2450            0.0000000000
     29611      9871  TIP3      OH2            13.7119496015        3.4789542534       35.8163653365  WZ5       2461            0.0000000000
     29612      9871  TIP3      H1             13.8083896015        4.1456542534       35.1363353365  WZ5       2461            0.0000000000
     29613      9871  TIP3      H2             13.5719096015        2.6635842534       35.3349153365  WZ5       2461            0.0000000000
     29614      9872  TIP3      OH2            12.9593296015        0.8869342534       34.9339153365  WZ5       2466            0.0000000000
     29615      9872  TIP3      H1             13.5699096015        0.5156142534       35.5707353365  WZ5       2466            0.0000000000
     29616      9872  TIP3      H2             12.1224796015        0.4656242534       35.1299153365  WZ5       2466            0.0000000000
     29617      9873  TIP3      OH2            15.0719996015       -0.2274857466       36.4761353365  WZ5       2476            0.0000000000
     29618      9873  TIP3      H1             15.4842596015       -0.9489157466       36.0009353365  WZ5       2476            0.0000000000
     29619      9873  TIP3      H2             15.7536496015        0.4419742534       36.5345653365  WZ5       2476            0.0000000000
     29620      9874  TIP3      OH2            -2.6469303985       -0.2227157466       39.6032053365  WZ5       2477            0.0000000000
     29621      9874  TIP3      H1             -3.5720903985       -0.0140557466       39.4737553365  WZ5       2477            0.0000000000
     29622      9874  TIP3      H2             -2.1929403985        0.2613642534       38.9134353365  WZ5       2477            0.0000000000
     29623      9875  TIP3      OH2            -1.3706703985       -2.1799457466       37.5818653365  WZ5       2497            0.0000000000
     29624      9875  TIP3      H1             -0.9316003985       -1.5688957466       36.9902153365  WZ5       2497            0.0000000000
     29625      9875  TIP3      H2             -2.0044303985       -1.6415357466       38.0558653365  WZ5       2497            0.0000000000
     29626      9876  TIP3      OH2            11.2823496015       -1.9952857466       38.9332353365  WZ5       2500            0.0000000000
     29627      9876  TIP3      H1             10.5794596015       -1.3803657466       38.7233753365  WZ5       2500            0.0000000000
     29628      9876  TIP3      H2             10.8374896015       -2.8326157466       39.0643253365  WZ5       2500            0.0000000000
     29629      9877  TIP3      OH2            -1.4697203985       13.7682742534       38.4793753365  WZ5       2501            0.0000000000
     29630      9877  TIP3      H1             -2.1547303985       13.7301642534       37.8118853365  WZ5       2501            0.0000000000
     29631      9877  TIP3      H2             -1.4660003985       14.6810342534       38.7675853365  WZ5       2501            0.0000000000
     29632      9878  TIP3      OH2             0.4902396015       -0.2637957466       36.0242753365  WZ5       2502            0.0000000000
     29633      9878  TIP3      H1              0.9815796015       -0.8935557466       35.4968253365  WZ5       2502            0.0000000000
     29634      9878  TIP3      H2              1.1138696015        0.0321442534       36.6873953365  WZ5       2502            0.0000000000
     29635      9879  TIP3      OH2             5.5162496015        0.0293542534       38.4813253365  WZ5       2503            0.0000000000
     29636      9879  TIP3      H1              5.6943796015       -0.6173257466       39.1641853365  WZ5       2503            0.0000000000
     29637      9879  TIP3      H2              5.4628696015        0.8631242534       38.9484353365  WZ5       2503            0.0000000000
     29638      9880  TIP3      OH2             0.3483996015       14.6883542534       35.5045853365  WZ5       2508            0.0000000000
     29639      9880  TIP3      H1              0.0808596015       14.9746442534       36.3778953365  WZ5       2508            0.0000000000
     29640      9880  TIP3      H2              1.1196596015       14.1422742534       35.6568353365  WZ5       2508            0.0000000000
     29641      9881  TIP3      OH2            -5.2879403985       16.4001342534       37.6387153365  WZ5       3053            0.0000000000
     29642      9881  TIP3      H1             -6.1878703985       16.5390342534       37.9337753365  WZ5       3053            0.0000000000
     29643      9881  TIP3      H2             -5.0361003985       17.2315942534       37.2368853365  WZ5       3053            0.0000000000
     29644      9882  TIP3      OH2            -7.5094703985       25.6829242534       35.4555353365  WZ5       3069            0.0000000000
     29645      9882  TIP3      H1             -7.4673903985       25.4603142534       34.5255353365  WZ5       3069            0.0000000000
     29646      9882  TIP3      H2             -6.6602603985       26.0816342534       35.6455253365  WZ5       3069            0.0000000000
     29647      9883  TIP3      OH2           -11.9367203985       19.5587442534       36.1258653365  WZ5       3070            0.0000000000
     29648      9883  TIP3      H1            -12.1902403985       19.5779042534       37.0486753365  WZ5       3070            0.0000000000
     29649      9883  TIP3      H2            -12.1935103985       18.6872842534       35.8244853365  WZ5       3070            0.0000000000
     29650      9884  TIP3      OH2            -9.2032803985       20.1612442534       36.7444153365  WZ5       3093            0.0000000000
     29651      9884  TIP3      H1            -10.1418603985       20.2728042534       36.5932953365  WZ5       3093            0.0000000000
     29652      9884  TIP3      H2             -8.9060703985       21.0179342534       37.0509853365  WZ5       3093            0.0000000000
     29653      9885  TIP3      OH2            -3.6000603985       22.2379242534       38.0998253365  WZ5       3101            0.0000000000
     29654      9885  TIP3      H1             -4.1544303985       21.8417242534       37.4275753365  WZ5       3101            0.0000000000
     29655      9885  TIP3      H2             -3.4997003985       23.1484442534       37.8221553365  WZ5       3101            0.0000000000
     29656      9886  TIP3      OH2            -4.6141003985       26.2719942534       35.0759153365  WZ5       3150            0.0000000000
     29657      9886  TIP3      H1             -4.8876203985       25.8475442534       34.2627453365  WZ5       3150            0.0000000000
     29658      9886  TIP3      H2             -4.5746903985       27.2034442534       34.8589553365  WZ5       3150            0.0000000000
     29659      9887  TIP3      OH2            -5.1440503985       22.3349542534       35.8163653365  WZ5       3176            0.0000000000
     29660      9887  TIP3      H1             -5.0476103985       23.0016542534       35.1363353365  WZ5       3176            0.0000000000
     29661      9887  TIP3      H2             -5.2840903985       21.5195842534       35.3349153365  WZ5       3176            0.0000000000
     29662      9888  TIP3      OH2            -5.8966703985       19.7429342534       34.9339153365  WZ5       3181            0.0000000000
     29663      9888  TIP3      H1             -5.2860903985       19.3716142534       35.5707353365  WZ5       3181            0.0000000000
     29664      9888  TIP3      H2             -6.7335203985       19.3216242534       35.1299153365  WZ5       3181            0.0000000000
     29665      9889  TIP3      OH2            -6.2641003985       21.2977742534       39.8999053365  WZ5       3182            0.0000000000
     29666      9889  TIP3      H1             -5.9843903985       20.3908142534       40.0240753365  WZ5       3182            0.0000000000
     29667      9889  TIP3      H2             -5.5049303985       21.7319242534       39.5108253365  WZ5       3182            0.0000000000
     29668      9890  TIP3      OH2            -5.6506203985       18.5607042534       39.9481053365  WZ5       3187            0.0000000000
     29669      9890  TIP3      H1             -5.4681203985       18.1118542534       40.7736053365  WZ5       3187            0.0000000000
     29670      9890  TIP3      H2             -6.2503303985       17.9761442534       39.4845653365  WZ5       3187            0.0000000000
     29671      9891  TIP3      OH2            -3.7840003985       18.6285142534       36.4761353365  WZ5       3191            0.0000000000
     29672      9891  TIP3      H1             -3.3717403985       17.9070842534       36.0009353365  WZ5       3191            0.0000000000
     29673      9891  TIP3      H2             -3.1023503985       19.2979742534       36.5345653365  WZ5       3191            0.0000000000
     29674      9892  TIP3      OH2            -7.5736503985       16.8607142534       38.9332353365  WZ5       3215            0.0000000000
     29675      9892  TIP3      H1             -8.2765403985       17.4756342534       38.7233753365  WZ5       3215            0.0000000000
     29676      9892  TIP3      H2             -8.0185103985       16.0233842534       39.0643253365  WZ5       3215            0.0000000000
     29677      9893  TIP3      OH2            -1.6818803985       20.4925442534       37.7028153365  WZ5       3295            0.0000000000
     29678      9893  TIP3      H1             -1.2077103985       21.0835342534       37.1179053365  WZ5       3295            0.0000000000
     29679      9893  TIP3      H2             -2.3992403985       21.0228342534       38.0498253365  WZ5       3295            0.0000000000
     29680      9894  TIP3      OH2            -0.6435703985       22.2130542534       35.8116153365  WZ5       3347            0.0000000000
     29681      9894  TIP3      H1             -0.6883103985       23.1523642534       35.9903153365  WZ5       3347            0.0000000000
     29682      9894  TIP3      H2             -1.5312503985       21.9775442534       35.5418253365  WZ5       3347            0.0000000000
     29683      9895  TIP3      OH2            -2.6469303985       18.6332842534       39.6032053365  WZ5       3408            0.0000000000
     29684      9895  TIP3      H1             -3.5720903985       18.8419442534       39.4737553365  WZ5       3408            0.0000000000
     29685      9895  TIP3      H2             -2.1929403985       19.1173642534       38.9134353365  WZ5       3408            0.0000000000
     29686      9896  TIP3      OH2            -1.3706703985       16.6760542534       37.5818653365  WZ5       3428            0.0000000000
     29687      9896  TIP3      H1             -0.9316003985       17.2871042534       36.9902153365  WZ5       3428            0.0000000000
     29688      9896  TIP3      H2             -2.0044303985       17.2144642534       38.0558653365  WZ5       3428            0.0000000000
     29689      9897  TIP3      OH2             0.4902396015       18.5922042534       36.0242753365  WZ5       3433            0.0000000000
     29690      9897  TIP3      H1              0.9815796015       17.9624442534       35.4968253365  WZ5       3433            0.0000000000
     29691      9897  TIP3      H2              1.1138696015       18.8881442534       36.6873953365  WZ5       3433            0.0000000000
