* GENERATED BY CHARMM-GUI (HTTP://WWW.CHARMM-GUI.ORG) V3.7 ON JUN, 17. 2026. JOB
* READ PDB, MANIPULATE STRUCTURE IF NEEDED, AND GENERATE TOPOLOGY FILE
*  DATE:     6/17/26     23:40:29      CREATED BY USER: charmm-gui
*
       114  EXT
         1         1  ASP       N               3.3680000000       11.1600000000       10.3270000000  PROA      1              92.3600000000
         2         1  ASP       HT1             2.6040958781       11.8615139120       10.2500017931  PROA      1               0.0000000000
         3         1  ASP       HT2             4.2489781666       11.6361891225       10.6075726746  PROA      1               0.0000000000
         4         1  ASP       HT3             3.1152952973       10.4494932030       11.0431843763  PROA      1               0.0000000000
         5         1  ASP       CA              3.5590000000       10.5040000000        9.0370000000  PROA      1              93.9000000000
         6         1  ASP       HA              3.6437446241       11.2735423969        8.2841697860  PROA      1               0.0000000000
         7         1  ASP       CB              4.8180000000        9.6350000000        9.0580000000  PROA      1              87.2500000000
         8         1  ASP       HB1             4.9058859830        9.1059455910        8.0853492812  PROA      1               0.0000000000
         9         1  ASP       HB2             4.7246500271        8.8865812078        9.8733692590  PROA      1               0.0000000000
        10         1  ASP       CG              6.0880000000       10.4360000000        9.2850000000  PROA      1              70.5200000000
        11         1  ASP       OD1             6.0590000000       11.6770000000        9.1460000000  PROA      1              58.6300000000
        12         1  ASP       OD2             7.1280000000        9.8190000000        9.6030000000  PROA      1              67.8900000000
        13         1  ASP       C               2.3430000000        9.6580000000        8.6660000000  PROA      1              95.4900000000
        14         1  ASP       O               1.7120000000        9.0540000000        9.5360000000  PROA      1              92.8200000000
        15         2  GLY       N               1.4300000000        9.7250000000        7.5430000000  PROA      2              91.8000000000
        16         2  GLY       HN              1.6416652281       10.4485870489        6.9126016422  PROA      2               0.0000000000
        17         2  GLY       CA              0.2550000000        9.0360000000        7.0320000000  PROA      2              91.1700000000
        18         2  GLY       HA1            -0.1282229388        9.6091069714        6.2007486280  PROA      2               0.0000000000
        19         2  GLY       HA2            -0.4760140523        8.9968716597        7.8259632820  PROA      2               0.0000000000
        20         2  GLY       C               0.5490000000        7.6240000000        6.5630000000  PROA      2              91.8500000000
        21         2  GLY       O               1.7120000000        7.2340000000        6.4380000000  PROA      2              88.7000000000
        22         3  ASP       N              -0.4660000000        6.9500000000        6.3560000000  PROA      3              94.1300000000
        23         3  ASP       HN             -1.3941183316        7.2519295484        6.5580168367  PROA      3               0.0000000000
        24         3  ASP       CA             -0.2770000000        5.6240000000        5.7760000000  PROA      3              93.8800000000
        25         3  ASP       HA              0.4220979717        5.0835016380        6.3967156377  PROA      3               0.0000000000
        26         3  ASP       CB             -1.6090000000        4.8760000000        5.7000000000  PROA      3              92.1700000000
        27         3  ASP       HB1            -1.4290601851        3.8631912649        5.2810626991  PROA      3               0.0000000000
        28         3  ASP       HB2            -2.2957920453        5.4323973122        5.0273878900  PROA      3               0.0000000000
        29         3  ASP       CG             -2.2820000000        4.7230000000        7.0530000000  PROA      3              87.3200000000
        30         3  ASP       OD1            -1.7670000000        3.9710000000        7.9080000000  PROA      3              84.4800000000
        31         3  ASP       OD2            -3.3370000000        5.3580000000        7.2640000000  PROA      3              85.1600000000
        32         3  ASP       C               0.3540000000        5.7160000000        4.3880000000  PROA      3              94.4200000000
        33         3  ASP       O               0.1960000000        6.7230000000        3.6950000000  PROA      3              93.2400000000
        34         4  GLY       N               1.4790000000        5.0250000000        4.0650000000  PROA      4              91.0200000000
        35         4  GLY       HN              2.0160580943        4.5577797746        4.7623592272  PROA      4               0.0000000000
        36         4  GLY       CA              1.9890000000        4.9070000000        2.7080000000  PROA      4              90.7600000000
        37         4  GLY       HA1             2.6916765183        4.0871211267        2.6898011375  PROA      4               0.0000000000
        38         4  GLY       HA2             2.4893272546        5.8319102904        2.4620316122  PROA      4               0.0000000000
        39         4  GLY       C               0.9020000000        4.6470000000        1.6820000000  PROA      4              90.6200000000
        40         4  GLY       O              -0.2650000000        4.4700000000        2.0380000000  PROA      4              88.1700000000
        41         5  PRO       N               1.1990000000        4.6010000000        0.2750000000  PROA      5              92.8900000000
        42         5  PRO       CD              2.5470000000        4.7360000000       -0.1710000000  PROA      5              88.7800000000
        43         5  PRO       HD1             3.1957134680        4.0078046210        0.3597838864  PROA      5               0.0000000000
        44         5  PRO       HD2             2.9056112941        5.7699828503        0.0163675870  PROA      5               0.0000000000
        45         5  PRO       CA              0.2470000000        4.2510000000       -0.7820000000  PROA      5              93.2400000000
        46         5  PRO       HA             -0.6480866944        4.8455634488       -0.6935416481  PROA      5               0.0000000000
        47         5  PRO       CB              1.0450000000        4.4840000000       -2.0670000000  PROA      5              92.1400000000
        48         5  PRO       HB1             0.7973451344        5.4715762740       -2.5113342377  PROA      5               0.0000000000
        49         5  PRO       HB2             0.8301492051        3.6902894162       -2.8139507276  PROA      5               0.0000000000
        50         5  PRO       CG              2.4770000000        4.4380000000       -1.6410000000  PROA      5              89.6700000000
        51         5  PRO       HG1             2.8987073164        3.4300971960       -1.8424674651  PROA      5               0.0000000000
        52         5  PRO       HG2             3.0639193988        5.1922133592       -2.2075528137  PROA      5               0.0000000000
        53         5  PRO       C              -0.2290000000        2.8030000000       -0.6910000000  PROA      5              93.9300000000
        54         5  PRO       O               0.4270000000        1.9720000000       -0.0560000000  PROA      5              93.0100000000
        55         6  GLY       N              -1.3470000000        2.6590000000       -1.0870000000  PROA      6              93.7200000000
        56         6  GLY       HN             -1.9159311728        3.3994717375       -1.4358078987  PROA      6               0.0000000000
        57         6  GLY       CA             -1.9100000000        1.3190000000       -1.0570000000  PROA      6              93.7200000000
        58         6  GLY       HA1            -2.9011840802        1.3678593857       -1.4829769795  PROA      6               0.0000000000
        59         6  GLY       HA2            -1.9632332554        1.0064292529       -0.0246457701  PROA      6               0.0000000000
        60         6  GLY       C              -1.0880000000        0.3090000000       -1.8360000000  PROA      6              95.0500000000
        61         6  GLY       O              -0.2710000000        0.6840000000       -2.6780000000  PROA      6              94.6100000000
        62         7  ASP       N              -1.1650000000       -1.0450000000       -1.5570000000  PROA      7              94.3900000000
        63         7  ASP       HN             -1.6729763110       -1.3481816810       -0.7571447739  PROA      7               0.0000000000
        64         7  ASP       CA             -0.5730000000       -2.1440000000       -2.3140000000  PROA      7              94.8000000000
        65         7  ASP       HA              0.4973167678       -2.0014364093       -2.3302886571  PROA      7               0.0000000000
        66         7  ASP       CB             -0.9210000000       -3.4870000000       -1.6700000000  PROA      7              93.4500000000
        67         7  ASP       HB1            -0.7248674466       -4.2985513759       -2.4025240996  PROA      7               0.0000000000
        68         7  ASP       HB2            -1.9991501609       -3.4890855469       -1.4030485968  PROA      7               0.0000000000
        69         7  ASP       CG             -0.1150000000       -3.7690000000       -0.4140000000  PROA      7              89.5100000000
        70         7  ASP       OD1             0.8700000000       -3.0480000000       -0.1470000000  PROA      7              89.3900000000
        71         7  ASP       OD2            -0.4680000000       -4.7220000000        0.3140000000  PROA      7              89.8300000000
        72         7  ASP       C              -1.0390000000       -2.1220000000       -3.7680000000  PROA      7              96.0700000000
        73         7  ASP       O              -2.1360000000       -1.6450000000       -4.0670000000  PROA      7              95.8400000000
        74         8  PRO       N              -0.3250000000       -2.5930000000       -4.7570000000  PROA      8              94.0000000000
        75         8  PRO       CD              0.9840000000       -2.9980000000       -4.5980000000  PROA      8              89.4200000000
        76         8  PRO       HD1             1.0201482460       -3.9569776462       -4.0397118294  PROA      8               0.0000000000
        77         8  PRO       HD2             1.5591696938       -2.2201304577       -4.0532713504  PROA      8               0.0000000000
        78         8  PRO       CA             -0.8820000000       -2.7440000000       -6.1030000000  PROA      8              93.9500000000
        79         8  PRO       HA             -1.2665424317       -1.8016030257       -6.4587450148  PROA      8               0.0000000000
        80         8  PRO       CB              0.2940000000       -3.3010000000       -6.9100000000  PROA      8              92.6200000000
        81         8  PRO       HB1             0.4411890597       -2.7194334758       -7.8449809415  PROA      8               0.0000000000
        82         8  PRO       HB2             0.1220163391       -4.3664392971       -7.1733141224  PROA      8               0.0000000000
        83         8  PRO       CG              1.4770000000       -3.1620000000       -6.0070000000  PROA      8              88.4000000000
        84         8  PRO       HG1             2.1166630342       -4.0673952956       -6.0803913492  PROA      8               0.0000000000
        85         8  PRO       HG2             2.0761214439       -2.2745417441       -6.3032550728  PROA      8               0.0000000000
        86         8  PRO       C              -2.0730000000       -3.6990000000       -6.1460000000  PROA      8              95.1400000000
        87         8  PRO       O              -2.1590000000       -4.6210000000       -5.3300000000  PROA      8              94.5900000000
        88         9  GLY       N              -3.1240000000       -3.3220000000       -6.9730000000  PROA      9              94.5000000000
        89         9  GLY       HN             -3.1301919640       -2.4529208703       -7.4613395307  PROA      9               0.0000000000
        90         9  GLY       CA             -4.2820000000       -4.1800000000       -7.1740000000  PROA      9              94.3800000000
        91         9  GLY       HA1            -4.9605610725       -3.6677779972       -7.8399366684  PROA      9               0.0000000000
        92         9  GLY       HA2            -4.7491553546       -4.3343246779       -6.2126270630  PROA      9               0.0000000000
        93         9  GLY       C              -3.9290000000       -5.5280000000       -7.7720000000  PROA      9              95.5400000000
        94         9  GLY       O              -2.8460000000       -5.6990000000       -8.3360000000  PROA      9              95.3200000000
        95        10  ASP       N              -4.5630000000       -6.5940000000       -7.6200000000  PROA      10             95.6200000000
        96        10  ASP       HN             -5.3010278724       -6.5910070196       -6.9574518399  PROA      10              0.0000000000
        97        10  ASP       CA             -4.4280000000       -7.9030000000       -8.2520000000  PROA      10             95.3100000000
        98        10  ASP       HA             -3.4307454926       -8.2681459013       -8.0562546893  PROA      10              0.0000000000
        99        10  ASP       CB             -5.4690000000       -8.8770000000       -7.6980000000  PROA      10             92.8500000000
       100        10  ASP       HB1            -5.5012794003       -9.7769057287       -8.3482327601  PROA      10              0.0000000000
       101        10  ASP       HB2            -6.4640987428       -8.3836910976       -7.7079870648  PROA      10              0.0000000000
       102        10  ASP       CG             -5.1680000000       -9.3220000000       -6.2770000000  PROA      10             84.1200000000
       103        10  ASP       OD1            -4.0120000000       -9.1760000000       -5.8240000000  PROA      10             82.4000000000
       104        10  ASP       OD2            -6.0940000000       -9.8260000000       -5.6060000000  PROA      10             84.4100000000
       105        10  ASP       C              -4.5640000000       -7.7960000000       -9.7690000000  PROA      10             95.5200000000
       106        10  ASP       O              -5.4450000000       -7.0950000000      -10.2710000000  PROA      10             94.0900000000
       107        11  GLY       N              -3.3170000000       -7.9340000000      -10.7950000000  PROA      11             87.7200000000
       108        11  GLY       HN             -2.3989393944       -8.0525165936      -10.4305521349  PROA      11              0.0000000000
       109        11  GLY       CA             -3.3580000000       -7.9070000000      -12.2480000000  PROA      11             88.0300000000
       110        11  GLY       HA1            -2.3730998047       -8.1617868299      -12.6104064720  PROA      11              0.0000000000
       111        11  GLY       HA2            -3.6188012744       -6.9040442476      -12.5518842352  PROA      11              0.0000000000
       112        11  GLY       C              -4.3650000000       -8.8770000000      -12.8360000000  PROA      11             88.2900000000
       113        11  GLY       OT1            -5.0404627286       -9.5830126307      -12.0404522217  PROA      11              0.0000000000
       114        11  GLY       OT2            -4.4749717589       -8.9275627943      -14.0901728813  PROA      11              0.0000000000
