Title t=  47.00000 step= 23500
44469
    1GLY      N    1   5.640   5.576   4.016
    1GLY    HT1    2   5.592   5.635   4.087
    1GLY    HT2    3   5.696   5.647   3.965
    1GLY    HT3    4   5.714   5.519   4.063
    1GLY     CA    5   5.549   5.482   3.933
    1GLY    HA1    6   5.508   5.408   3.999
    1GLY    HA2    7   5.601   5.447   3.845
    1GLY      C    8   5.439   5.569   3.877
    1GLY      O    9   5.439   5.686   3.914
    2PRO      N   10   5.357   5.520   3.788
    2PRO     CD   11   5.354   5.374   3.758
    2PRO    HD1   12   5.326   5.321   3.851
    2PRO    HD2   13   5.446   5.322   3.723
    2PRO     CA   14   5.268   5.594   3.712
    2PRO     HA   15   5.323   5.682   3.682
    2PRO     CB   16   5.246   5.501   3.592
    2PRO    HB1   17   5.329   5.517   3.521
    2PRO    HB2   18   5.147   5.524   3.547
    2PRO     CG   19   5.255   5.360   3.645
    2PRO    HG1   20   5.154   5.331   3.681
    2PRO    HG2   21   5.292   5.289   3.568
    2PRO      C   22   5.143   5.631   3.782
    2PRO      O   23   5.057   5.695   3.722
    3GLY      N   24   5.123   5.588   3.905
    3GLY     HN   25   5.177   5.518   3.951
    3GLY     CA   26   5.005   5.620   3.986
    3GLY    HA1   27   4.982   5.532   4.045
    3GLY    HA2   28   4.925   5.657   3.923
    3GLY      C   29   5.037   5.734   4.083
    3GLY      O   30   4.945   5.775   4.152
    4ASN      N   31   5.160   5.786   4.090
    4ASN     HN   32   5.231   5.752   4.030
    4ASN     CA   33   5.197   5.902   4.170
    4ASN     HA   34   5.166   5.879   4.271
    4ASN     CB   35   5.352   5.927   4.164
    4ASN    HB1   36   5.385   6.017   4.221
    4ASN    HB2   37   5.382   5.955   4.061
    4ASN     CG   38   5.431   5.809   4.218
    4ASN    OD1   39   5.538   5.772   4.165
    4ASN    ND2   40   5.385   5.749   4.330
    4ASN   HD21   41   5.439   5.676   4.372
    4ASN   HD22   42   5.309   5.785   4.383
    4ASN      C   43   5.140   6.035   4.121
    4ASN      O   44   5.111   6.044   3.999
    5PRO      N   45   5.116   6.133   4.206
    5PRO     CD   46   5.083   6.113   4.352
    5PRO    HD1   47   5.169   6.083   4.415
    5PRO    HD2   48   5.006   6.034   4.363
    5PRO     CA   49   5.093   6.272   4.164
    5PRO     HA   50   4.988   6.274   4.141
    5PRO     CB   51   5.093   6.348   4.302
    5PRO    HB1   52   5.034   6.441   4.288
    5PRO    HB2   53   5.201   6.361   4.327
    5PRO     CG   54   5.029   6.250   4.398
    5PRO    HG1   55   5.053   6.286   4.500
    5PRO    HG2   56   4.922   6.227   4.380
    5PRO      C   57   5.175   6.324   4.048
    5PRO      O   58   5.290   6.280   4.039
    6GLY      N   59   5.112   6.401   3.959
    6GLY     HN   60   5.020   6.429   3.984
    6GLY     CA   61   5.171   6.475   3.843
    6GLY    HA1   62   5.088   6.535   3.810
    6GLY    HA2   63   5.208   6.409   3.766
    6GLY      C   64   5.284   6.563   3.900
    6GLY      O   65   5.273   6.609   4.010
    7PRO      N   66   5.381   6.601   3.824
    7PRO     CD   67   5.400   6.547   3.692
    7PRO    HD1   68   5.321   6.578   3.620
    7PRO    HD2   69   5.424   6.439   3.698
    7PRO     CA   70   5.483   6.705   3.860
    7PRO     HA   71   5.548   6.653   3.929
    7PRO     CB   72   5.540   6.745   3.719
    7PRO    HB1   73   5.640   6.793   3.720
    7PRO    HB2   74   5.475   6.821   3.670
    7PRO     CG   75   5.524   6.610   3.635
    7PRO    HG1   76   5.514   6.635   3.527
    7PRO    HG2   77   5.613   6.544   3.650
    7PRO      C   78   5.441   6.828   3.941
    7PRO      O   79   5.327   6.876   3.933
    8GLY      N   80   5.534   6.877   4.029
    8GLY     HN   81   5.616   6.822   4.038
    8GLY     CA   82   5.505   6.985   4.128
    8GLY    HA1   83   5.440   7.051   4.074
    8GLY    HA2   84   5.595   7.038   4.157
    8GLY      C   85   5.444   6.938   4.264
    8GLY      O   86   5.383   6.828   4.275
    9ASN      N   87   5.472   7.019   4.372
    9ASN     HN   88   5.536   7.096   4.368
    9ASN     CA   89   5.408   6.990   4.502
    9ASN     HA   90   5.451   6.894   4.530
    9ASN     CB   91   5.448   7.084   4.617
    9ASN    HB1   92   5.387   7.054   4.704
    9ASN    HB2   93   5.429   7.191   4.591
    9ASN     CG   94   5.597   7.075   4.644
    9ASN    OD1   95   5.677   7.014   4.567
    9ASN    ND2   96   5.644   7.123   4.764
    9ASN   HD21   97   5.737   7.105   4.796
    9ASN   HD22   98   5.574   7.164   4.822
    9ASN      C   99   5.253   6.986   4.492
    9ASN      O  100   5.201   7.063   4.406
   10PRO      N  101   5.170   6.894   4.554
   10PRO     CD  102   5.225   6.783   4.627
   10PRO    HD1  103   5.274   6.806   4.724
   10PRO    HD2  104   5.292   6.726   4.559
   10PRO     CA  105   5.035   6.857   4.500
   10PRO     HA  106   5.032   6.872   4.393
   10PRO     CB  107   5.027   6.704   4.522
   10PRO    HB1  108   5.082   6.653   4.440
   10PRO    HB2  109   4.927   6.657   4.525
   10PRO     CG  110   5.107   6.691   4.649
   10PRO    HG1  111   5.048   6.706   4.742
   10PRO    HG2  112   5.155   6.591   4.652
   10PRO      C  113   4.924   6.937   4.574
   10PRO      O  114   4.941   6.977   4.688
   11GLY      N  115   4.806   6.959   4.513
   11GLY     HN  116   4.778   6.913   4.429
   11GLY     CA  117   4.701   7.048   4.564
   11GLY    HA1  118   4.694   7.129   4.492
   11GLY    HA2  119   4.736   7.074   4.663
   11GLY      C  120   4.581   6.962   4.583
   11GLY      O  121   4.591   6.844   4.552
   12PRO      N  122   4.474   7.025   4.629
   12PRO     CD  123   4.472   7.169   4.636
   12PRO    HD1  124   4.488   7.208   4.533
   12PRO    HD2  125   4.552   7.198   4.708
   12PRO     CA  126   4.343   6.969   4.663
   12PRO     HA  127   4.352   6.938   4.766
   12PRO     CB  128   4.253   7.087   4.651
   12PRO    HB1  129   4.172   7.077   4.727
   12PRO    HB2  130   4.213   7.105   4.549
   12PRO     CG  131   4.336   7.206   4.699
   12PRO    HG1  132   4.291   7.302   4.666
   12PRO    HG2  133   4.341   7.207   4.810
   12PRO      C  134   4.290   6.852   4.585
   12PRO      O  135   4.291   6.856   4.463
   13GLY      N  136   4.240   6.751   4.656
   13GLY     HN  137   4.222   6.761   4.753
   13GLY     CA  138   4.193   6.620   4.619
   13GLY    HA1  139   4.151   6.617   4.519
   13GLY    HA2  140   4.125   6.587   4.695
   13GLY      C  141   4.300   6.513   4.622
   13GLY      O  142   4.424   6.537   4.632
   14ASN      N  143   4.255   6.389   4.619
   14ASN     HN  144   4.157   6.375   4.617
   14ASN     CA  145   4.336   6.264   4.623
   14ASN     HA  146   4.439   6.293   4.638
   14ASN     CB  147   4.269   6.168   4.720
   14ASN    HB1  148   4.315   6.067   4.711
   14ASN    HB2  149   4.163   6.162   4.687
   14ASN     CG  150   4.287   6.203   4.865
   14ASN    OD1  151   4.365   6.294   4.910
   14ASN    ND2  152   4.202   6.141   4.945
   14ASN   HD21  153   4.209   6.161   5.043
   14ASN   HD22  154   4.146   6.070   4.904
   14ASN      C  155   4.326   6.198   4.485
   14ASN      O  156   4.224   6.131   4.455
   15PRO      N  157   4.421   6.204   4.397
   15PRO     CD  158   4.557   6.260   4.418
   15PRO    HD1  159   4.600   6.210   4.508
   15PRO    HD2  160   4.534   6.367   4.432
   15PRO     CA  161   4.399   6.142   4.261
   15PRO     HA  162   4.297   6.157   4.228
   15PRO     CB  163   4.511   6.210   4.182
   15PRO    HB1  164   4.472   6.309   4.148
   15PRO    HB2  165   4.537   6.145   4.096
   15PRO     CG  166   4.627   6.234   4.278
   15PRO    HG1  167   4.690   6.142   4.284
   15PRO    HG2  168   4.691   6.321   4.250
   15PRO      C  169   4.415   5.984   4.260
   15PRO    OT1  170   4.443   5.929   4.150
   15PRO    OT2  171   4.395   5.914   4.361
   16LIT    LIT  172   0.376   5.025   2.615
   17LIT    LIT  173   7.277   2.808   6.753
   18LIT    LIT  174   5.388   2.672   5.715
   19LIT    LIT  175   1.332   7.158   4.434
   20LIT    LIT  176   2.228   1.307   3.325
   21LIT    LIT  177   0.643   6.883   5.797
   22LIT    LIT  178   6.567   7.738   3.938
   23LIT    LIT  179   4.303   1.836   4.045
   24LIT    LIT  180   4.229   5.104   3.296
   25LIT    LIT  181   7.866   7.073   5.412
   26LIT    LIT  182   5.858   6.949   0.339
   27LIT    LIT  183   2.548   5.687   1.262
   28LIT    LIT  184   8.132   4.689   5.150
   29LIT    LIT  185   8.221   3.799   6.314
   30LIT    LIT  186   3.746   1.068   3.570
   31LIT    LIT  187   8.128   2.542   0.156
   32LIT    LIT  188   5.687   0.754   3.299
   33LIT    LIT  189   1.683   5.002   4.380
   34LIT    LIT  190   0.673   2.075   2.048
   35LIT    LIT  191   6.192   4.457   2.831
   36LIT    LIT  192   2.667   1.562   6.710
   37LIT    LIT  193   2.115   1.740   6.332
   38LIT    LIT  194   1.497   3.627   2.572
   39LIT    LIT  195   3.103   6.920   4.561
   40LIT    LIT  196   7.279   0.898   5.908
   41LIT    LIT  197   1.341   5.156   5.967
   42LIT    LIT  198   2.831   2.546   6.707
   43LIT    LIT  199   4.414   5.748   4.205
   44LIT    LIT  200   4.973   4.789   4.702
   45LIT    LIT  201   2.542   3.939   6.558
   46LIT    LIT  202   1.851   1.212   1.940
   47LIT    LIT  203   7.693   3.266   5.273
   48LIT    LIT  204   5.851   0.338   1.013
   49LIT    LIT  205   0.327   0.606   5.914
   50LIT    LIT  206   4.625   4.166   1.913
   51LIT    LIT  207   5.587   0.745   1.914
   52LIT    LIT  208   5.199   3.770   1.405
   53LIT    LIT  209   7.491   6.554   1.425
   54LIT    LIT  210   4.503   6.688   0.634
   55LIT    LIT  211   1.897   3.152   0.747
   56LIT    LIT  212   3.605   7.500   6.253
   57LIT    LIT  213   7.047   3.875   4.489
   58CLA    CLA  214   2.708   3.906   2.894
   59CLA    CLA  215   0.948   7.184   1.715
   60CLA    CLA  216   0.282   1.722   2.950
   61CLA    CLA  217   4.093   1.139   2.797
   62CLA    CLA  218   6.584   5.905   0.595
   63CLA    CLA  219   2.680   0.107   4.448
   64CLA    CLA  220   7.195   1.364   1.056
   65CLA    CLA  221   5.385   3.562   6.774
   66CLA    CLA  222   4.206   2.231   6.765
   67CLA    CLA  223   8.187   2.907   2.077
   68CLA    CLA  224   0.964   4.542   0.540
   69CLA    CLA  225   8.208   5.515   5.446
   70CLA    CLA  226   2.263   6.944   3.979
   71CLA    CLA  227   7.036   3.797   4.697
   72CLA    CLA  228   6.331   4.893   2.587
   73CLA    CLA  229   8.248   5.030   2.655
   74CLA    CLA  230   2.164   5.398   5.164
   75CLA    CLA  231   4.009   4.023   5.879
   76CLA    CLA  232   4.555   2.328   5.014
   77CLA    CLA  233   6.688   7.459   6.483
   78CLA    CLA  234   8.267   1.479   4.099
   79CLA    CLA  235   2.278   4.172   2.547
   80CLA    CLA  236   0.356   5.141   3.039
   81CLA    CLA  237   4.361   3.443   0.814
   82CLA    CLA  238   5.882   1.347   2.220
   83CLA    CLA  239   3.952   6.170   2.102
   84CLA    CLA  240   1.285   5.833   4.008
   85CLA    CLA  241   3.666   6.761   5.391
   86CLA    CLA  242   4.141   6.755   1.603
   87CLA    CLA  243   7.578   0.059   0.789
   88CLA    CLA  244   6.820   0.254   5.917
   89CLA    CLA  245   6.752   3.444   0.254
   90CLA    CLA  246   1.155   6.700   6.520
   91CLA    CLA  247   1.820   1.124   3.233
   92CLA    CLA  248   8.047   3.854   6.451
   93CLA    CLA  249   4.407   3.113   4.061
   94CLA    CLA  250   5.171   5.112   2.990
   95CLA    CLA  251   2.560   1.695   5.690
   96CLA    CLA  252   1.964   3.352   6.357
   97CLA    CLA  253   7.925   6.626   0.696
   98CLA    CLA  254   0.606   7.124   5.142
   99CLA    CLA  255   8.232   3.666   0.010
  100TIP3   OH2  256   5.207   0.567   5.244
  100TIP3    H1  257   5.300   0.578   5.264
  100TIP3    H2  258   5.174   0.507   5.310
  101TIP3   OH2  259   1.671   5.222   4.319
  101TIP3    H1  260   1.764   5.239   4.336
  101TIP3    H2  261   1.651   5.277   4.243
  102TIP3   OH2  262   6.153   0.878   1.130
  102TIP3    H1  263   6.164   0.918   1.043
  102TIP3    H2  264   6.108   0.795   1.113
  103TIP3   OH2  265   2.669   3.577   5.058
  103TIP3    H1  266   2.693   3.619   5.141
  103TIP3    H2  267   2.600   3.633   5.022
  104TIP3   OH2  268   0.396   3.417   0.864
  104TIP3    H1  269   0.472   3.471   0.883
  104TIP3    H2  270   0.401   3.345   0.928
  105TIP3   OH2  271   6.318   4.591   1.091
  105TIP3    H1  272   6.240   4.636   1.059
  105TIP3    H2  273   6.366   4.567   1.011
  106TIP3   OH2  274   5.381   6.416   5.585
  106TIP3    H1  275   5.386   6.496   5.637
  106TIP3    H2  276   5.472   6.397   5.562
  107TIP3   OH2  277   3.495   0.945   3.294
  107TIP3    H1  278   3.479   0.909   3.207
  107TIP3    H2  279   3.520   1.036   3.279
  108TIP3   OH2  280   4.488   3.283   0.154
  108TIP3    H1  281   4.435   3.203   0.146
  108TIP3    H2  282   4.476   3.329   0.071
  109TIP3   OH2  283   4.933   5.598   4.692
  109TIP3    H1  284   4.886   5.556   4.764
  109TIP3    H2  285   5.014   5.548   4.684
  110TIP3   OH2  286   4.765   3.599   1.035
  110TIP3    H1  287   4.688   3.649   1.006
  110TIP3    H2  288   4.765   3.521   0.979
  111TIP3   OH2  289   7.217   0.556   5.300
  111TIP3    H1  290   7.230   0.637   5.252
  111TIP3    H2  291   7.247   0.576   5.389
  112TIP3   OH2  292   3.343   2.415   5.541
  112TIP3    H1  293   3.260   2.443   5.580
  112TIP3    H2  294   3.321   2.339   5.488
  113TIP3   OH2  295   6.564   6.935   6.235
  113TIP3    H1  296   6.582   6.968   6.324
  113TIP3    H2  297   6.468   6.930   6.231
  114TIP3   OH2  298   6.976   3.487   0.031
  114TIP3    H1  299   7.043   3.423   0.052
  114TIP3    H2  300   6.925   3.495   0.112
  115TIP3   OH2  301   5.964   4.196   5.849
  115TIP3    H1  302   6.009   4.262   5.798
  115TIP3    H2  303   6.026   4.122   5.853
  116TIP3   OH2  304   5.007   3.886   2.843
  116TIP3    H1  305   5.065   3.936   2.785
  116TIP3    H2  306   4.964   3.953   2.896
  117TIP3   OH2  307   5.997   4.399   5.410
  117TIP3    H1  308   6.026   4.448   5.487
  117TIP3    H2  309   6.061   4.329   5.401
  118TIP3   OH2  310   2.572   6.704   3.417
  118TIP3    H1  311   2.596   6.617   3.385
  118TIP3    H2  312   2.502   6.688   3.480
  119TIP3   OH2  313   5.167   7.152   6.412
  119TIP3    H1  314   5.155   7.078   6.352
  119TIP3    H2  315   5.085   7.202   6.404
  120TIP3   OH2  316   0.499   0.042   5.068
  120TIP3    H1  317   0.546   0.102   5.010
  120TIP3    H2  318   0.410   0.039   5.033
  121TIP3   OH2  319   2.491   6.516   3.995
  121TIP3    H1  320   2.479   6.424   3.972
  121TIP3    H2  321   2.545   6.514   4.074
  122TIP3   OH2  322   0.272   1.454   1.067
  122TIP3    H1  323   0.304   1.379   1.115
  122TIP3    H2  324   0.195   1.421   1.020
  123TIP3   OH2  325   0.653   7.597   5.240
  123TIP3    H1  326   0.603   7.670   5.276
  123TIP3    H2  327   0.671   7.623   5.149
  124TIP3   OH2  328   8.161   5.833   3.919
  124TIP3    H1  329   8.078   5.832   3.871
  124TIP3    H2  330   8.183   5.741   3.931
  125TIP3   OH2  331   1.345   2.899   6.405
  125TIP3    H1  332   1.351   2.864   6.316
  125TIP3    H2  333   1.254   2.888   6.430
  126TIP3   OH2  334   2.209   2.247   4.247
  126TIP3    H1  335   2.148   2.222   4.178
  126TIP3    H2  336   2.294   2.216   4.216
  127TIP3   OH2  337   1.252   1.985   4.744
  127TIP3    H1  338   1.232   2.074   4.772
  127TIP3    H2  339   1.345   1.987   4.721
  128TIP3   OH2  340   6.245   7.024   0.479
  128TIP3    H1  341   6.278   7.000   0.566
  128TIP3    H2  342   6.298   6.973   0.418
  129TIP3   OH2  343   2.572   3.303   5.014
  129TIP3    H1  344   2.666   3.289   5.007
  129TIP3    H2  345   2.563   3.397   5.028
  130TIP3   OH2  346   2.791   1.937   0.325
  130TIP3    H1  347   2.789   2.003   0.255
  130TIP3    H2  348   2.800   1.854   0.280
  131TIP3   OH2  349   1.612   1.783   4.641
  131TIP3    H1  350   1.626   1.707   4.585
  131TIP3    H2  351   1.673   1.771   4.714
  132TIP3   OH2  352   7.936   5.532   1.294
  132TIP3    H1  353   8.012   5.581   1.324
  132TIP3    H2  354   7.864   5.562   1.350
  133TIP3   OH2  355   1.479   2.761   1.298
  133TIP3    H1  356   1.416   2.729   1.363
  133TIP3    H2  357   1.428   2.820   1.243
  134TIP3   OH2  358   2.428   1.672   6.172
  134TIP3    H1  359   2.441   1.765   6.191
  134TIP3    H2  360   2.451   1.628   6.254
  135TIP3   OH2  361   4.737   2.874   1.339
  135TIP3    H1  362   4.718   2.924   1.260
  135TIP3    H2  363   4.764   2.939   1.403
  136TIP3   OH2  364   1.747   3.603   5.192
  136TIP3    H1  365   1.753   3.541   5.119
  136TIP3    H2  366   1.813   3.669   5.173
  137TIP3   OH2  367   1.350   5.769   0.915
  137TIP3    H1  368   1.280   5.793   0.855
  137TIP3    H2  369   1.423   5.743   0.858
  138TIP3   OH2  370   5.839   3.898   0.988
  138TIP3    H1  371   5.764   3.886   1.046
  138TIP3    H2  372   5.896   3.823   1.006
  139TIP3   OH2  373   7.255   0.089   6.128
  139TIP3    H1  374   7.204   0.085   6.047
  139TIP3    H2  375   7.205   0.146   6.186
  140TIP3   OH2  376   0.166   2.007   2.970
  140TIP3    H1  377   0.215   1.924   2.965
  140TIP3    H2  378   0.136   2.012   3.061
  141TIP3   OH2  379   7.147   0.731   3.432
  141TIP3    H1  380   7.121   0.698   3.517
  141TIP3    H2  381   7.118   0.664   3.370
  142TIP3   OH2  382   5.869   5.507   6.505
  142TIP3    H1  383   5.929   5.526   6.577
  142TIP3    H2  384   5.923   5.509   6.427
  143TIP3   OH2  385   4.849   1.330   0.015
  143TIP3    H1  386   4.919   1.268  -0.003
  143TIP3    H2  387   4.882   1.383   0.087
  144TIP3   OH2  388   5.066   6.531   2.585
  144TIP3    H1  389   5.072   6.616   2.627
  144TIP3    H2  390   4.984   6.493   2.619
  145TIP3   OH2  391   7.206   5.358   0.282
  145TIP3    H1  392   7.179   5.308   0.359
  145TIP3    H2  393   7.143   5.334   0.214
  146TIP3   OH2  394   3.615   2.513   3.503
  146TIP3    H1  395   3.688   2.575   3.494
  146TIP3    H2  396   3.537   2.566   3.484
  147TIP3   OH2  397   5.791   1.199   1.928
  147TIP3    H1  398   5.807   1.291   1.906
  147TIP3    H2  399   5.847   1.183   2.004
  148TIP3   OH2  400   7.030   3.942   6.480
  148TIP3    H1  401   7.109   3.960   6.531
  148TIP3    H2  402   7.060   3.886   6.408
  149TIP3   OH2  403   1.958   2.837   5.840
  149TIP3    H1  404   1.980   2.777   5.768
  149TIP3    H2  405   1.866   2.857   5.826
  150TIP3   OH2  406   7.559   4.691   6.475
  150TIP3    H1  407   7.553   4.603   6.512
  150TIP3    H2  408   7.546   4.749   6.550
  151TIP3   OH2  409   5.602   3.353   2.074
  151TIP3    H1  410   5.679   3.405   2.094
  151TIP3    H2  411   5.533   3.417   2.056
  152TIP3   OH2  412   5.877   0.805   2.774
  152TIP3    H1  413   5.880   0.799   2.679
  152TIP3    H2  414   5.785   0.813   2.796
  153TIP3   OH2  415   5.435   6.463   6.677
  153TIP3    H1  416   5.411   6.531   6.740
  153TIP3    H2  417   5.353   6.418   6.657
  154TIP3   OH2  418   6.090   4.800   4.627
  154TIP3    H1  419   6.035   4.722   4.618
  154TIP3    H2  420   6.160   4.788   4.563
  155TIP3   OH2  421   2.381   1.267   6.539
  155TIP3    H1  422   2.421   1.321   6.471
  155TIP3    H2  423   2.370   1.181   6.497
  156TIP3   OH2  424   2.261   0.184   4.346
  156TIP3    H1  425   2.173   0.190   4.382
  156TIP3    H2  426   2.316   0.229   4.410
  157TIP3   OH2  427   6.115   2.601   2.489
  157TIP3    H1  428   6.198   2.624   2.448
  157TIP3    H2  429   6.105   2.508   2.473
  158TIP3   OH2  430   1.213   2.384   6.793
  158TIP3    H1  431   1.296   2.401   6.838
  158TIP3    H2  432   1.238   2.338   6.713
  159TIP3   OH2  433   6.249   5.170   3.243
  159TIP3    H1  434   6.242   5.075   3.239
  159TIP3    H2  435   6.165   5.202   3.208
  160TIP3   OH2  436   2.544   1.657   5.356
  160TIP3    H1  437   2.545   1.649   5.452
  160TIP3    H2  438   2.633   1.632   5.329
  161TIP3   OH2  439   5.458   1.941   4.897
  161TIP3    H1  440   5.517   1.978   4.963
  161TIP3    H2  441   5.435   2.015   4.841
  162TIP3   OH2  442   1.347   5.425   3.069
  162TIP3    H1  443   1.385   5.511   3.089
  162TIP3    H2  444   1.392   5.365   3.128
  163TIP3   OH2  445   5.652   5.324   0.572
  163TIP3    H1  446   5.742   5.335   0.601
  163TIP3    H2  447   5.616   5.256   0.629
  164TIP3   OH2  448   4.628   6.249   6.369
  164TIP3    H1  449   4.626   6.175   6.308
  164TIP3    H2  450   4.715   6.286   6.358
  165TIP3   OH2  451   2.594   6.449   2.828
  165TIP3    H1  452   2.567   6.390   2.758
  165TIP3    H2  453   2.653   6.512   2.786
  166TIP3   OH2  454   6.379   4.433   6.602
  166TIP3    H1  455   6.360   4.379   6.679
  166TIP3    H2  456   6.455   4.392   6.562
  167TIP3   OH2  457   7.282   0.606   1.193
  167TIP3    H1  458   7.327   0.523   1.180
  167TIP3    H2  459   7.199   0.582   1.234
  168TIP3   OH2  460   1.561   5.623   5.671
  168TIP3    H1  461   1.518   5.582   5.595
  168TIP3    H2  462   1.491   5.673   5.713
  169TIP3   OH2  463   0.591   0.445   5.651
  169TIP3    H1  464   0.617   0.510   5.717
  169TIP3    H2  465   0.541   0.380   5.700
  170TIP3   OH2  466   2.554   6.345   6.799
  170TIP3    H1  467   2.474   6.308   6.763
  170TIP3    H2  468   2.621   6.329   6.733
  171TIP3   OH2  469   0.012   5.355   2.682
  171TIP3    H1  470  -0.025   5.382   2.599
  171TIP3    H2  471   0.005   5.259   2.682
  172TIP3   OH2  472   3.786   2.324   5.177
  172TIP3    H1  473   3.762   2.394   5.116
  172TIP3    H2  474   3.740   2.346   5.258
  173TIP3   OH2  475   7.987   2.465   2.145
  173TIP3    H1  476   8.034   2.500   2.069
  173TIP3    H2  477   8.047   2.401   2.183
  174TIP3   OH2  478   0.520   3.686   4.453
  174TIP3    H1  479   0.483   3.757   4.401
  174TIP3    H2  480   0.458   3.675   4.525
  175TIP3   OH2  481   7.517   0.295   5.513
  175TIP3    H1  482   7.508   0.234   5.585
  175TIP3    H2  483   7.492   0.244   5.435
  176TIP3   OH2  484   3.727   0.388   4.863
  176TIP3    H1  485   3.682   0.315   4.904
  176TIP3    H2  486   3.714   0.376   4.769
  177TIP3   OH2  487   0.755   7.714   6.041
  177TIP3    H1  488   0.697   7.778   6.083
  177TIP3    H2  489   0.696   7.648   6.006
  178TIP3   OH2  490   7.513   1.943   5.904
  178TIP3    H1  491   7.492   1.975   5.816
  178TIP3    H2  492   7.494   2.017   5.962
  179TIP3   OH2  493   0.797   3.455   3.830
  179TIP3    H1  494   0.757   3.538   3.855
  179TIP3    H2  495   0.763   3.437   3.742
  180TIP3   OH2  496   0.594   2.180   5.573
  180TIP3    H1  497   0.564   2.263   5.609
  180TIP3    H2  498   0.610   2.125   5.650
  181TIP3   OH2  499   2.418   0.962   4.222
  181TIP3    H1  500   2.504   0.983   4.187
  181TIP3    H2  501   2.398   1.034   4.282
  182TIP3   OH2  502   0.800   6.999   0.116
  182TIP3    H1  503   0.841   7.042   0.041
  182TIP3    H2  504   0.720   6.961   0.080
  183TIP3   OH2  505   2.921   7.669   0.650
  183TIP3    H1  506   2.931   7.680   0.556
  183TIP3    H2  507   2.831   7.637   0.662
  184TIP3   OH2  508   3.646   6.082   1.123
  184TIP3    H1  509   3.684   6.040   1.046
  184TIP3    H2  510   3.608   6.163   1.090
  185TIP3   OH2  511   1.373   2.870   2.137
  185TIP3    H1  512   1.376   2.820   2.055
  185TIP3    H2  513   1.313   2.822   2.193
  186TIP3   OH2  514   8.112   2.412   6.656
  186TIP3    H1  515   8.198   2.416   6.698
  186TIP3    H2  516   8.117   2.475   6.584
  187TIP3   OH2  517   5.377   0.932   2.449
  187TIP3    H1  518   5.464   0.914   2.484
  187TIP3    H2  519   5.359   1.022   2.475
  188TIP3   OH2  520   7.059   3.419   3.808
  188TIP3    H1  521   7.085   3.387   3.894
  188TIP3    H2  522   6.968   3.391   3.798
  189TIP3   OH2  523   6.202   2.864   4.083
  189TIP3    H1  524   6.184   2.951   4.048
  189TIP3    H2  525   6.176   2.868   4.175
  190TIP3   OH2  526   2.672   4.707   5.166
  190TIP3    H1  527   2.592   4.693   5.217
  190TIP3    H2  528   2.719   4.776   5.214
  191TIP3   OH2  529   3.945   5.555   6.441
  191TIP3    H1  530   4.022   5.536   6.387
  191TIP3    H2  531   3.875   5.572   6.379
  192TIP3   OH2  532   2.588   1.415   1.428
  192TIP3    H1  533   2.612   1.405   1.336
  192TIP3    H2  534   2.564   1.327   1.457
  193TIP3   OH2  535   5.312   3.665   4.167
  193TIP3    H1  536   5.285   3.587   4.215
  193TIP3    H2  537   5.372   3.632   4.100
  194TIP3   OH2  538   3.640   3.590   1.618
  194TIP3    H1  539   3.655   3.646   1.695
  194TIP3    H2  540   3.728   3.567   1.588
  195TIP3   OH2  541   8.029   3.550   0.257
  195TIP3    H1  542   8.094   3.582   0.194
  195TIP3    H2  543   8.014   3.624   0.316
  196TIP3   OH2  544   7.583   6.538   4.603
  196TIP3    H1  545   7.649   6.474   4.574
  196TIP3    H2  546   7.574   6.598   4.530
  197TIP3   OH2  547   1.766   5.666   0.944
  197TIP3    H1  548   1.843   5.616   0.917
  197TIP3    H2  549   1.764   5.741   0.885
  198TIP3   OH2  550   4.479   4.303   4.997
  198TIP3    H1  551   4.390   4.280   4.969
  198TIP3    H2  552   4.482   4.398   4.989
  199TIP3   OH2  553   5.928   2.994   2.069
  199TIP3    H1  554   5.987   2.968   1.998
  199TIP3    H2  555   5.981   3.052   2.124
  200TIP3   OH2  556   5.261   4.275   1.353
  200TIP3    H1  557   5.346   4.231   1.354
  200TIP3    H2  558   5.235   4.271   1.261
  201TIP3   OH2  559   5.480   4.763   4.571
  201TIP3    H1  560   5.526   4.828   4.624
  201TIP3    H2  561   5.487   4.796   4.482
  202TIP3   OH2  562   4.977   6.522   3.128
  202TIP3    H1  563   4.985   6.430   3.153
  202TIP3    H2  564   4.886   6.532   3.098
  203TIP3   OH2  565   2.453   3.147   4.553
  203TIP3    H1  566   2.543   3.181   4.557
  203TIP3    H2  567   2.401   3.221   4.522
  204TIP3   OH2  568   1.089   0.462   4.581
  204TIP3    H1  569   1.085   0.381   4.529
  204TIP3    H2  570   1.071   0.433   4.670
  205TIP3   OH2  571   7.470   4.272   4.901
  205TIP3    H1  572   7.483   4.209   4.972
  205TIP3    H2  573   7.559   4.303   4.882
  206TIP3   OH2  574   5.347   0.223   1.991
  206TIP3    H1  575   5.304   0.165   2.054
  206TIP3    H2  576   5.277   0.249   1.931
  207TIP3   OH2  577   6.468   1.847   4.744
  207TIP3    H1  578   6.493   1.846   4.652
  207TIP3    H2  579   6.550   1.844   4.792
  208TIP3   OH2  580   7.966   0.638   1.795
  208TIP3    H1  581   8.038   0.700   1.805
  208TIP3    H2  582   7.891   0.681   1.837
  209TIP3   OH2  583   7.789   6.334   1.343
  209TIP3    H1  584   7.792   6.378   1.258
  209TIP3    H2  585   7.825   6.247   1.326
  210TIP3   OH2  586   6.190   0.807   2.202
  210TIP3    H1  587   6.255   0.833   2.267
  210TIP3    H2  588   6.228   0.731   2.158
  211TIP3   OH2  589   6.208   5.474  -0.028
  211TIP3    H1  590   6.174   5.409   0.033
  211TIP3    H2  591   6.302   5.461  -0.028
  212TIP3   OH2  592   0.205   7.339   4.767
  212TIP3    H1  593   0.240   7.353   4.855
  212TIP3    H2  594   0.184   7.426   4.735
  213TIP3   OH2  595   1.096   5.270   3.111
  213TIP3    H1  596   1.174   5.325   3.098
  213TIP3    H2  597   1.124   5.202   3.172
  214TIP3   OH2  598   1.810   5.031   5.721
  214TIP3    H1  599   1.838   5.043   5.812
  214TIP3    H2  600   1.788   5.119   5.691
  215TIP3   OH2  601   7.158   7.255   5.593
  215TIP3    H1  602   7.204   7.338   5.585
  215TIP3    H2  603   7.147   7.225   5.503
  216TIP3   OH2  604   6.732   0.056   1.846
  216TIP3    H1  605   6.804   0.030   1.790
  216TIP3    H2  606   6.755   0.023   1.933
  217TIP3   OH2  607   0.550   7.413   6.722
  217TIP3    H1  608   0.612   7.362   6.669
  217TIP3    H2  609   0.589   7.414   6.809
  218TIP3   OH2  610   0.303   4.841   3.038
  218TIP3    H1  611   0.240   4.824   2.969
  218TIP3    H2  612   0.319   4.935   3.033
  219TIP3   OH2  613   6.111   2.973   3.657
  219TIP3    H1  614   6.110   2.890   3.705
  219TIP3    H2  615   6.147   3.037   3.719
  220TIP3   OH2  616   5.757   2.334   4.696
  220TIP3    H1  617   5.830   2.390   4.668
  220TIP3    H2  618   5.787   2.245   4.678
  221TIP3   OH2  619   4.131   7.007   1.821
  221TIP3    H1  620   4.213   6.973   1.786
  221TIP3    H2  621   4.064   6.948   1.786
  222TIP3   OH2  622   4.788   3.815   0.396
  222TIP3    H1  623   4.829   3.884   0.343
  222TIP3    H2  624   4.787   3.851   0.485
  223TIP3   OH2  625   0.915   0.502   4.829
  223TIP3    H1  626   0.907   0.441   4.903
  223TIP3    H2  627   0.977   0.568   4.860
  224TIP3   OH2  628   1.294   3.612   4.158
  224TIP3    H1  629   1.207   3.649   4.176
  224TIP3    H2  630   1.303   3.618   4.063
  225TIP3   OH2  631   5.559   3.574   1.630
  225TIP3    H1  632   5.609   3.570   1.548
  225TIP3    H2  633   5.494   3.504   1.622
  226TIP3   OH2  634   7.798   6.811   0.930
  226TIP3    H1  635   7.833   6.757   0.859
  226TIP3    H2  636   7.724   6.761   0.964
  227TIP3   OH2  637   0.072   5.605   0.958
  227TIP3    H1  638   0.121   5.682   0.987
  227TIP3    H2  639   0.119   5.575   0.880
  228TIP3   OH2  640   4.167   7.707   6.131
  228TIP3    H1  641   4.154   7.769   6.203
  228TIP3    H2  642   4.104   7.733   6.064
  229TIP3   OH2  643   6.315   1.246   5.345
  229TIP3    H1  644   6.237   1.274   5.296
  229TIP3    H2  645   6.359   1.328   5.368
  230TIP3   OH2  646   7.018   0.577   1.318
  230TIP3    H1  647   6.923   0.588   1.308
  230TIP3    H2  648   7.045   0.655   1.367
  231TIP3   OH2  649   8.155   1.523   5.989
  231TIP3    H1  650   8.070   1.557   5.960
  231TIP3    H2  651   8.155   1.431   5.963
  232TIP3   OH2  652   4.050   0.216   4.845
  232TIP3    H1  653   3.979   0.180   4.897
  232TIP3    H2  654   4.018   0.213   4.755
  233TIP3   OH2  655   4.639   4.674   6.592
  233TIP3    H1  656   4.657   4.768   6.592
  233TIP3    H2  657   4.546   4.667   6.575
  234TIP3   OH2  658   3.002   2.659   2.924
  234TIP3    H1  659   2.986   2.692   3.013
  234TIP3    H2  660   3.041   2.573   2.937
  235TIP3   OH2  661   2.760   0.088   1.909
  235TIP3    H1  662   2.839   0.115   1.957
  235TIP3    H2  663   2.779  -0.001   1.879
  236TIP3   OH2  664   7.438   7.488   1.925
  236TIP3    H1  665   7.368   7.422   1.935
  236TIP3    H2  666   7.392   7.572   1.929
  237TIP3   OH2  667   4.938   0.463   0.231
  237TIP3    H1  668   4.947   0.383   0.180
  237TIP3    H2  669   5.024   0.506   0.223
  238TIP3   OH2  670   1.828   0.693   0.970
  238TIP3    H1  671   1.793   0.605   0.986
  238TIP3    H2  672   1.839   0.698   0.875
  239TIP3   OH2  673   5.683   6.621   2.145
  239TIP3    H1  674   5.655   6.708   2.175
  239TIP3    H2  675   5.778   6.621   2.156
  240TIP3   OH2  676   3.042   3.326   0.823
  240TIP3    H1  677   3.057   3.412   0.785
  240TIP3    H2  678   2.996   3.343   0.905
  241TIP3   OH2  679   5.281   2.198   4.493
  241TIP3    H1  680   5.234   2.145   4.557
  241TIP3    H2  681   5.302   2.137   4.422
  242TIP3   OH2  682   1.591   3.941   3.433
  242TIP3    H1  683   1.627   4.018   3.389
  242TIP3    H2  684   1.665   3.902   3.479
  243TIP3   OH2  685   5.072   5.619   2.203
  243TIP3    H1  686   5.153   5.584   2.241
  243TIP3    H2  687   5.012   5.625   2.278
  244TIP3   OH2  688   6.882   4.360   1.194
  244TIP3    H1  689   6.891   4.379   1.101
  244TIP3    H2  690   6.788   4.356   1.210
  245TIP3   OH2  691   1.575   5.414   4.110
  245TIP3    H1  692   1.566   5.509   4.120
  245TIP3    H2  693   1.489   5.386   4.078
  246TIP3   OH2  694   1.475   1.431   5.435
  246TIP3    H1  695   1.423   1.360   5.473
  246TIP3    H2  696   1.438   1.511   5.472
  247TIP3   OH2  697   3.150   2.136   0.677
  247TIP3    H1  698   3.062   2.143   0.641
  247TIP3    H2  699   3.202   2.098   0.606
  248TIP3   OH2  700  -0.023   5.801   5.010
  248TIP3    H1  701   0.005   5.746   5.083
  248TIP3    H2  702   0.042   5.871   5.006
  249TIP3   OH2  703   7.928   6.220   0.185
  249TIP3    H1  704   8.009   6.249   0.143
  249TIP3    H2  705   7.953   6.204   0.276
  250TIP3   OH2  706   4.663   4.926   1.271
  250TIP3    H1  707   4.680   5.018   1.252
  250TIP3    H2  708   4.732   4.879   1.224
  251TIP3   OH2  709   3.300   3.023   3.583
  251TIP3    H1  710   3.246   2.963   3.530
  251TIP3    H2  711   3.386   2.980   3.586
  252TIP3   OH2  712   7.599   1.231   0.516
  252TIP3    H1  713   7.656   1.154   0.519
  252TIP3    H2  714   7.511   1.196   0.501
  253TIP3   OH2  715   0.908   3.836   2.259
  253TIP3    H1  716   0.824   3.791   2.259
  253TIP3    H2  717   0.973   3.766   2.258
  254TIP3   OH2  718   2.439   6.283   2.268
  254TIP3    H1  719   2.402   6.262   2.354
  254TIP3    H2  720   2.481   6.201   2.240
  255TIP3   OH2  721   5.175   6.499   2.063
  255TIP3    H1  722   5.193   6.411   2.031
  255TIP3    H2  723   5.105   6.531   2.007
  256TIP3   OH2  724   4.455   1.371   0.663
  256TIP3    H1  725   4.471   1.400   0.573
  256TIP3    H2  726   4.487   1.281   0.666
  257TIP3   OH2  727   7.304   6.487   5.499
  257TIP3    H1  728   7.400   6.482   5.499
  257TIP3    H2  729   7.278   6.450   5.414
  258TIP3   OH2  730   0.101   6.267   4.228
  258TIP3    H1  731   0.057   6.213   4.293
  258TIP3    H2  732   0.184   6.222   4.212
  259TIP3   OH2  733   4.372   1.505   5.420
  259TIP3    H1  734   4.428   1.532   5.492
  259TIP3    H2  735   4.352   1.586   5.372
  260TIP3   OH2  736   6.171   3.601   5.188
  260TIP3    H1  737   6.225   3.531   5.226
  260TIP3    H2  738   6.114   3.557   5.125
  261TIP3   OH2  739   0.213  -0.021   0.393
  261TIP3    H1  740   0.153   0.000   0.466
  261TIP3    H2  741   0.211   0.057   0.338
  262TIP3   OH2  742   5.919   7.175   1.100
  262TIP3    H1  743   5.882   7.182   1.012
  262TIP3    H2  744   5.876   7.244   1.150
  263TIP3   OH2  745   3.378   1.186   5.101
  263TIP3    H1  746   3.307   1.122   5.103
  263TIP3    H2  747   3.369   1.235   5.182
  264TIP3   OH2  748   5.395   0.105   4.390
  264TIP3    H1  749   5.325   0.046   4.418
  264TIP3    H2  750   5.376   0.121   4.297
  265TIP3   OH2  751   1.570   4.877   0.334
  265TIP3    H1  752   1.555   4.965   0.368
  265TIP3    H2  753   1.566   4.887   0.239
  266TIP3   OH2  754   6.523   7.516   5.547
  266TIP3    H1  755   6.568   7.561   5.476
  266TIP3    H2  756   6.449   7.573   5.569
  267TIP3   OH2  757   1.849   5.199   0.287
  267TIP3    H1  758   1.936   5.231   0.259
  267TIP3    H2  759   1.800   5.190   0.205
  268TIP3   OH2  760   6.174   3.346   1.454
  268TIP3    H1  761   6.235   3.281   1.489
  268TIP3    H2  762   6.088   3.318   1.487
  269TIP3   OH2  763   8.190   5.162   6.488
  269TIP3    H1  764   8.120   5.195   6.432
  269TIP3    H2  765   8.191   5.067   6.471
  270TIP3   OH2  766   2.882   6.851   1.322
  270TIP3    H1  767   2.855   6.862   1.413
  270TIP3    H2  768   2.804   6.871   1.271
  271TIP3   OH2  769   4.313   4.117   4.208
  271TIP3    H1  770   4.347   4.033   4.240
  271TIP3    H2  771   4.381   4.180   4.230
  272TIP3   OH2  772   1.308   2.230   0.368
  272TIP3    H1  773   1.358   2.152   0.393
  272TIP3    H2  774   1.348   2.259   0.286
  273TIP3   OH2  775   1.915   2.060   1.535
  273TIP3    H1  776   1.947   1.985   1.584
  273TIP3    H2  777   1.994   2.098   1.496
  274TIP3   OH2  778   0.769   5.868   1.000
  274TIP3    H1  779   0.840   5.918   1.040
  274TIP3    H2  780   0.812   5.787   0.971
  275TIP3   OH2  781   1.623   0.216   1.997
  275TIP3    H1  782   1.652   0.243   1.910
  275TIP3    H2  783   1.541   0.169   1.981
  276TIP3   OH2  784   6.717   7.589   6.774
  276TIP3    H1  785   6.768   7.662   6.738
  276TIP3    H2  786   6.698   7.533   6.699
  277TIP3   OH2  787   6.133   1.769   5.119
  277TIP3    H1  788   6.126   1.695   5.180
  277TIP3    H2  789   6.052   1.768   5.069
  278TIP3   OH2  790  -0.003   5.862   0.735
  278TIP3    H1  791   0.056   5.841   0.807
  278TIP3    H2  792  -0.068   5.921   0.773
  279TIP3   OH2  793   0.576   4.802   4.920
  279TIP3    H1  794   0.637   4.768   4.986
  279TIP3    H2  795   0.544   4.884   4.957
  280TIP3   OH2  796   0.849   2.501   2.473
  280TIP3    H1  797   0.832   2.562   2.544
  280TIP3    H2  798   0.837   2.414   2.512
  281TIP3   OH2  799   3.606   3.049   5.178
  281TIP3    H1  800   3.561   2.971   5.212
  281TIP3    H2  801   3.536   3.108   5.153
  282TIP3   OH2  802   8.243   2.101   2.008
  282TIP3    H1  803   8.236   2.107   1.912
  282TIP3    H2  804   8.337   2.110   2.025
  283TIP3   OH2  805   7.074   2.309   1.106
  283TIP3    H1  806   7.021   2.311   1.026
  283TIP3    H2  807   7.019   2.263   1.170
  284TIP3   OH2  808   7.654   0.669   6.149
  284TIP3    H1  809   7.618   0.748   6.188
  284TIP3    H2  810   7.721   0.700   6.088
  285TIP3   OH2  811   3.924   7.177   1.436
  285TIP3    H1  812   3.983   7.229   1.381
  285TIP3    H2  813   3.903   7.235   1.510
  286TIP3   OH2  814   0.735   3.442   1.625
  286TIP3    H1  815   0.703   3.530   1.607
  286TIP3    H2  816   0.665   3.400   1.675
  287TIP3   OH2  817   7.844   4.223   0.368
  287TIP3    H1  818   7.924   4.176   0.389
  287TIP3    H2  819   7.852   4.244   0.275
  288TIP3   OH2  820   6.565   2.517   4.130
  288TIP3    H1  821   6.582   2.459   4.056
  288TIP3    H2  822   6.474   2.545   4.118
  289TIP3   OH2  823   1.526   0.430   0.042
  289TIP3    H1  824   1.578   0.414   0.120
  289TIP3    H2  825   1.513   0.525   0.041
  290TIP3   OH2  826   1.314   0.254   1.005
  290TIP3    H1  827   1.267   0.233   1.086
  290TIP3    H2  828   1.322   0.170   0.960
  291TIP3   OH2  829   3.283   1.666   1.928
  291TIP3    H1  830   3.321   1.625   2.005
  291TIP3    H2  831   3.358   1.695   1.876
  292TIP3   OH2  832   6.152   2.899   4.357
  292TIP3    H1  833   6.088   2.830   4.339
  292TIP3    H2  834   6.103   2.964   4.407
  293TIP3   OH2  835   2.500   0.036   3.705
  293TIP3    H1  836   2.557   0.090   3.761
  293TIP3    H2  837   2.533  -0.053   3.717
  294TIP3   OH2  838   3.545   6.405   2.606
  294TIP3    H1  839   3.505   6.394   2.693
  294TIP3    H2  840   3.473   6.432   2.549
  295TIP3   OH2  841   7.467   4.934   3.040
  295TIP3    H1  842   7.433   4.898   3.122
  295TIP3    H2  843   7.531   5.000   3.066
  296TIP3   OH2  844   0.678   1.615   5.711
  296TIP3    H1  845   0.717   1.531   5.685
  296TIP3    H2  846   0.752   1.667   5.742
  297TIP3   OH2  847   1.810   5.732   3.129
  297TIP3    H1  848   1.750   5.682   3.185
  297TIP3    H2  849   1.890   5.739   3.181
  298TIP3   OH2  850   2.348   6.193   6.693
  298TIP3    H1  851   2.377   6.127   6.756
  298TIP3    H2  852   2.260   6.216   6.720
  299TIP3   OH2  853   0.869   1.818   1.092
  299TIP3    H1  854   0.939   1.760   1.120
  299TIP3    H2  855   0.905   1.866   1.018
  300TIP3   OH2  856   2.844   5.753   0.264
  300TIP3    H1  857   2.787   5.676   0.269
  300TIP3    H2  858   2.933   5.719   0.272
  301TIP3   OH2  859   6.212   1.879   4.825
  301TIP3    H1  860   6.306   1.887   4.810
  301TIP3    H2  861   6.177   1.966   4.806
  302TIP3   OH2  862   8.221   2.422   5.958
  302TIP3    H1  863   8.225   2.348   6.019
  302TIP3    H2  864   8.232   2.382   5.872
  303TIP3   OH2  865   1.323   5.987   0.255
  303TIP3    H1  866   1.350   6.069   0.214
  303TIP3    H2  867   1.341   5.920   0.189
  304TIP3   OH2  868   5.563   5.174   5.394
  304TIP3    H1  869   5.586   5.099   5.449
  304TIP3    H2  870   5.467   5.175   5.394
  305TIP3   OH2  871   5.414   3.751   0.663
  305TIP3    H1  872   5.415   3.778   0.571
  305TIP3    H2  873   5.374   3.665   0.663
  306TIP3   OH2  874   0.770   1.198   1.947
  306TIP3    H1  875   0.724   1.187   2.030
  306TIP3    H2  876   0.860   1.169   1.966
  307TIP3   OH2  877   0.895   2.013   6.507
  307TIP3    H1  878   0.912   2.107   6.504
  307TIP3    H2  879   0.979   1.973   6.528
  308TIP3   OH2  880   7.755   4.004   2.441
  308TIP3    H1  881   7.780   4.077   2.384
  308TIP3    H2  882   7.665   3.985   2.415
  309TIP3   OH2  883   3.736   4.907   0.936
  309TIP3    H1  884   3.646   4.884   0.960
  309TIP3    H2  885   3.754   4.857   0.857
  310TIP3   OH2  886   3.180   4.769   5.013
  310TIP3    H1  887   3.100   4.791   5.062
  310TIP3    H2  888   3.251   4.790   5.073
  311TIP3   OH2  889   0.134   3.595   1.500
  311TIP3    H1  890   0.044   3.571   1.476
  311TIP3    H2  891   0.144   3.685   1.470
  312TIP3   OH2  892   1.075   4.971   1.416
  312TIP3    H1  893   0.988   5.003   1.390
  312TIP3    H2  894   1.092   4.897   1.358
  313TIP3   OH2  895   7.120   1.426   5.330
  313TIP3    H1  896   7.202   1.404   5.375
  313TIP3    H2  897   7.055   1.368   5.369
  314TIP3   OH2  898   3.386   5.038   6.733
  314TIP3    H1  899   3.403   5.080   6.818
  314TIP3    H2  900   3.398   4.945   6.750
  315TIP3   OH2  901   1.245   2.824   5.539
  315TIP3    H1  902   1.248   2.912   5.575
  315TIP3    H2  903   1.288   2.831   5.454
  316TIP3   OH2  904   6.411   3.629   4.734
  316TIP3    H1  905   6.390   3.587   4.818
  316TIP3    H2  906   6.341   3.694   4.722
  317TIP3   OH2  907   2.147   4.514   6.092
  317TIP3    H1  908   2.239   4.542   6.090
  317TIP3    H2  909   2.114   4.533   6.004
  318TIP3   OH2  910   1.720   5.785   3.451
  318TIP3    H1  911   1.742   5.741   3.369
  318TIP3    H2  912   1.804   5.803   3.493
  319TIP3   OH2  913   4.683   1.338   4.320
  319TIP3    H1  914   4.750   1.387   4.272
  319TIP3    H2  915   4.690   1.249   4.286
  320TIP3   OH2  916   8.164   0.057   0.734
  320TIP3    H1  917   8.121  -0.005   0.674
  320TIP3    H2  918   8.109   0.055   0.813
  321TIP3   OH2  919   5.678   0.402   4.357
  321TIP3    H1  920   5.681   0.322   4.410
  321TIP3    H2  921   5.748   0.456   4.393
  322TIP3   OH2  922   7.827   7.261   2.328
  322TIP3    H1  923   7.849   7.336   2.273
  322TIP3    H2  924   7.902   7.201   2.318
  323TIP3   OH2  925   2.705   5.619   5.168
  323TIP3    H1  926   2.766   5.592   5.237
  323TIP3    H2  927   2.619   5.590   5.200
  324TIP3   OH2  928   1.706   5.020   2.149
  324TIP3    H1  929   1.644   5.070   2.203
  324TIP3    H2  930   1.657   4.941   2.124
  325TIP3   OH2  931   3.166   4.087   2.121
  325TIP3    H1  932   3.190   4.058   2.209
  325TIP3    H2  933   3.246   4.126   2.086
  326TIP3   OH2  934   1.570   3.637   4.313
  326TIP3    H1  935   1.632   3.705   4.287
  326TIP3    H2  936   1.491   3.657   4.263
  327TIP3   OH2  937   7.175   3.298   5.137
  327TIP3    H1  938   7.085   3.293   5.105
  327TIP3    H2  939   7.200   3.389   5.124
  328TIP3   OH2  940   0.541   0.664   1.014
  328TIP3    H1  941   0.459   0.701   0.982
  328TIP3    H2  942   0.515   0.582   1.056
  329TIP3   OH2  943   0.465   7.280   5.377
  329TIP3    H1  944   0.508   7.311   5.457
  329TIP3    H2  945   0.534   7.236   5.328
  330TIP3   OH2  946   4.592   7.108   3.704
  330TIP3    H1  947   4.515   7.056   3.726
  330TIP3    H2  948   4.658   7.044   3.676
  331TIP3   OH2  949   6.358   6.165   6.392
  331TIP3    H1  950   6.442   6.206   6.412
  331TIP3    H2  951   6.360   6.082   6.441
  332TIP3   OH2  952   7.267   3.897  -0.088
  332TIP3    H1  953   7.248   3.949  -0.010
  332TIP3    H2  954   7.344   3.846  -0.064
  333TIP3   OH2  955   0.025   0.622   1.759
  333TIP3    H1  956   0.107   0.585   1.794
  333TIP3    H2  957   0.034   0.614   1.664
  334TIP3   OH2  958   6.460   1.482   3.470
  334TIP3    H1  959   6.377   1.516   3.502
  334TIP3    H2  960   6.442   1.391   3.447
  335TIP3   OH2  961   7.941   2.314   5.845
  335TIP3    H1  962   8.021   2.318   5.793
  335TIP3    H2  963   7.970   2.285   5.931
  336TIP3   OH2  964   7.403   0.852   3.802
  336TIP3    H1  965   7.312   0.871   3.826
  336TIP3    H2  966   7.451   0.932   3.826
  337TIP3   OH2  967   3.351   2.506   0.941
  337TIP3    H1  968   3.282   2.554   0.896
  337TIP3    H2  969   3.331   2.414   0.925
  338TIP3   OH2  970   8.140   5.939   2.721
  338TIP3    H1  971   8.181   6.016   2.761
  338TIP3    H2  972   8.107   5.971   2.637
  339TIP3   OH2  973   0.734   5.205   1.758
  339TIP3    H1  974   0.673   5.133   1.742
  339TIP3    H2  975   0.817   5.161   1.781
  340TIP3   OH2  976   1.190   3.116   4.370
  340TIP3    H1  977   1.218   3.197   4.326
  340TIP3    H2  978   1.236   3.046   4.324
  341TIP3   OH2  979   1.114   6.636   5.488
  341TIP3    H1  980   1.097   6.690   5.412
  341TIP3    H2  981   1.206   6.652   5.509
  342TIP3   OH2  982   0.257   4.399   1.097
  342TIP3    H1  983   0.242   4.463   1.027
  342TIP3    H2  984   0.198   4.327   1.075
  343TIP3   OH2  985   6.795   3.582   6.173
  343TIP3    H1  986   6.765   3.524   6.103
  343TIP3    H2  987   6.714   3.619   6.210
  344TIP3   OH2  988   7.856   6.035   4.219
  344TIP3    H1  989   7.826   5.944   4.224
  344TIP3    H2  990   7.860   6.054   4.125
  345TIP3   OH2  991   7.038   0.317   6.131
  345TIP3    H1  992   6.990   0.388   6.174
  345TIP3    H2  993   6.983   0.293   6.057
  346TIP3   OH2  994   1.236   3.397   2.395
  346TIP3    H1  995   1.294   3.331   2.357
  346TIP3    H2  996   1.149   3.356   2.394
  347TIP3   OH2  997   0.255   7.614   3.456
  347TIP3    H1  998   0.300   7.684   3.410
  347TIP3    H2  999   0.314   7.591   3.528
  348TIP3   OH2 1000   1.718   6.674   1.231
  348TIP3    H1 1001   1.639   6.621   1.221
  348TIP3    H2 1002   1.743   6.696   1.142
  349TIP3   OH2 1003   5.458   1.412   4.813
  349TIP3    H1 1004   5.484   1.499   4.782
  349TIP3    H2 1005   5.364   1.421   4.829
  350TIP3   OH2 1006   1.289   5.713   5.579
  350TIP3    H1 1007   1.268   5.781   5.515
  350TIP3    H2 1008   1.207   5.700   5.628
  351TIP3   OH2 1009   6.182   4.722   4.214
  351TIP3    H1 1010   6.275   4.702   4.220
  351TIP3    H2 1011   6.174   4.812   4.245
  352TIP3   OH2 1012   7.999   5.332   1.963
  352TIP3    H1 1013   8.070   5.295   1.910
  352TIP3    H2 1014   7.977   5.414   1.920
  353TIP3   OH2 1015   5.070   5.427   5.109
  353TIP3    H1 1016   5.152   5.474   5.125
  353TIP3    H2 1017   5.097   5.342   5.075
  354TIP3   OH2 1018   5.031   2.184   3.545
  354TIP3    H1 1019   5.070   2.214   3.463
  354TIP3    H2 1020   4.943   2.154   3.520
  355TIP3   OH2 1021   1.047   2.725   4.467
  355TIP3    H1 1022   0.958   2.691   4.481
  355TIP3    H2 1023   1.041   2.774   4.385
  356TIP3   OH2 1024   1.314   0.073   4.922
  356TIP3    H1 1025   1.382   0.008   4.939
  356TIP3    H2 1026   1.356   0.158   4.938
  357TIP3   OH2 1027   2.205   7.343   5.583
  357TIP3    H1 1028   2.205   7.339   5.487
  357TIP3    H2 1029   2.122   7.386   5.605
  358TIP3   OH2 1030   5.316   3.424   2.415
  358TIP3    H1 1031   5.321   3.519   2.413
  358TIP3    H2 1032   5.381   3.398   2.480
  359TIP3   OH2 1033   3.560   4.274   3.096
  359TIP3    H1 1034   3.599   4.361   3.106
  359TIP3    H2 1035   3.499   4.267   3.169
  360TIP3   OH2 1036   7.701   7.240   4.787
  360TIP3    H1 1037   7.632   7.212   4.728
  360TIP3    H2 1038   7.783   7.222   4.740
  361TIP3   OH2 1039   7.975   3.101   5.989
  361TIP3    H1 1040   7.969   3.029   6.052
  361TIP3    H2 1041   8.033   3.165   6.030
  362TIP3   OH2 1042   3.574   3.272   4.123
  362TIP3    H1 1043   3.508   3.317   4.175
  362TIP3    H2 1044   3.525   3.225   4.056
  363TIP3   OH2 1045   4.636   3.387   1.922
  363TIP3    H1 1046   4.542   3.405   1.928
  363TIP3    H2 1047   4.641   3.294   1.898
  364TIP3   OH2 1048   1.444   3.388   0.203
  364TIP3    H1 1049   1.415   3.479   0.194
  364TIP3    H2 1050   1.474   3.364   0.115
  365TIP3   OH2 1051   5.945   6.947   2.122
  365TIP3    H1 1052   5.977   7.025   2.166
  365TIP3    H2 1053   5.956   6.965   2.029
  366TIP3   OH2 1054   6.438   4.488   5.545
  366TIP3    H1 1055   6.531   4.508   5.558
  366TIP3    H2 1056   6.398   4.571   5.521
  367TIP3   OH2 1057   2.339   5.500   5.576
  367TIP3    H1 1058   2.319   5.415   5.615
  367TIP3    H2 1059   2.330   5.562   5.649
  368TIP3   OH2 1060   5.759   3.158   2.560
  368TIP3    H1 1061   5.831   3.212   2.527
  368TIP3    H2 1062   5.802   3.079   2.593
  369TIP3   OH2 1063   8.261   0.834   0.869
  369TIP3    H1 1064   8.231   0.744   0.853
  369TIP3    H2 1065   8.199   0.869   0.933
  370TIP3   OH2 1066   0.778   0.467   0.273
  370TIP3    H1 1067   0.698   0.518   0.289
  370TIP3    H2 1068   0.784   0.409   0.349
  371TIP3   OH2 1069   1.959   5.051   2.977
  371TIP3    H1 1070   1.976   5.109   3.051
  371TIP3    H2 1071   1.864   5.054   2.965
  372TIP3   OH2 1072   5.567   6.644   4.743
  372TIP3    H1 1073   5.503   6.587   4.785
  372TIP3    H2 1074   5.573   6.611   4.653
  373TIP3   OH2 1075   0.713   3.340   2.356
  373TIP3    H1 1076   0.674   3.262   2.396
  373TIP3    H2 1077   0.738   3.395   2.431
  374TIP3   OH2 1078   3.256   0.196   4.968
  374TIP3    H1 1079   3.166   0.187   4.999
  374TIP3    H2 1080   3.261   0.286   4.936
  375TIP3   OH2 1081   2.099   6.185   1.914
  375TIP3    H1 1082   2.062   6.189   2.002
  375TIP3    H2 1083   2.188   6.219   1.925
  376TIP3   OH2 1084   7.143   1.046   1.114
  376TIP3    H1 1085   7.188   0.982   1.059
  376TIP3    H2 1086   7.165   1.131   1.075
  377TIP3   OH2 1087   0.759   2.340   3.075
  377TIP3    H1 1088   0.759   2.345   3.171
  377TIP3    H2 1089   0.749   2.430   3.046
  378TIP3   OH2 1090   4.367   3.463   0.388
  378TIP3    H1 1091   4.367   3.377   0.347
  378TIP3    H2 1092   4.411   3.520   0.324
  379TIP3   OH2 1093   7.599   5.077   4.506
  379TIP3    H1 1094   7.668   5.034   4.455
  379TIP3    H2 1095   7.534   5.103   4.441
  380TIP3   OH2 1096   3.888   3.137   4.818
  380TIP3    H1 1097   3.955   3.071   4.798
  380TIP3    H2 1098   3.935   3.208   4.861
  381TIP3   OH2 1099   3.341   2.954   4.928
  381TIP3    H1 1100   3.389   3.017   4.875
  381TIP3    H2 1101   3.408   2.893   4.960
  382TIP3   OH2 1102   4.873   3.345   6.642
  382TIP3    H1 1103   4.922   3.425   6.660
  382TIP3    H2 1104   4.888   3.289   6.718
  383TIP3   OH2 1105   7.656   0.326   2.935
  383TIP3    H1 1106   7.623   0.277   2.859
  383TIP3    H2 1107   7.616   0.282   3.010
  384TIP3   OH2 1108   4.681   6.165   3.668
  384TIP3    H1 1109   4.658   6.091   3.612
  384TIP3    H2 1110   4.753   6.132   3.722
  385TIP3   OH2 1111   7.093   3.794   3.236
  385TIP3    H1 1112   7.149   3.727   3.198
  385TIP3    H2 1113   7.143   3.828   3.310
  386TIP3   OH2 1114   0.687   7.730   4.562
  386TIP3    H1 1115   0.610   7.773   4.598
  386TIP3    H2 1116   0.652   7.656   4.512
  387TIP3   OH2 1117   3.482   6.407   4.841
  387TIP3    H1 1118   3.480   6.365   4.755
  387TIP3    H2 1119   3.575   6.414   4.862
  388TIP3   OH2 1120   1.231   6.984   2.481
  388TIP3    H1 1121   1.215   6.895   2.512
  388TIP3    H2 1122   1.246   6.973   2.387
  389TIP3   OH2 1123   1.610   1.852   4.020
  389TIP3    H1 1124   1.555   1.775   4.029
  389TIP3    H2 1125   1.576   1.898   3.943
  390TIP3   OH2 1126   6.319   4.213   2.307
  390TIP3    H1 1127   6.358   4.140   2.259
  390TIP3    H2 1128   6.342   4.196   2.398
  391TIP3   OH2 1129   2.845   4.776   1.767
  391TIP3    H1 1130   2.879   4.772   1.856
  391TIP3    H2 1131   2.751   4.765   1.776
  392TIP3   OH2 1132   1.993   6.368   2.805
  392TIP3    H1 1133   1.939   6.400   2.878
  392TIP3    H2 1134   2.082   6.391   2.831
  393TIP3   OH2 1135   1.524   5.326   4.532
  393TIP3    H1 1136   1.452   5.270   4.559
  393TIP3    H2 1137   1.565   5.280   4.459
  394TIP3   OH2 1138   7.942   4.178   5.556
  394TIP3    H1 1139   7.971   4.155   5.644
  394TIP3    H2 1140   7.865   4.232   5.569
  395TIP3   OH2 1141   8.025   0.978   5.497
  395TIP3    H1 1142   8.024   0.968   5.402
  395TIP3    H2 1143   8.117   0.966   5.521
  396TIP3   OH2 1144   7.812   5.721   6.608
  396TIP3    H1 1145   7.846   5.668   6.680
  396TIP3    H2 1146   7.719   5.697   6.603
  397TIP3   OH2 1147   0.148   4.625   0.960
  397TIP3    H1 1148   0.120   4.612   1.050
  397TIP3    H2 1149   0.073   4.597   0.907
  398TIP3   OH2 1150   5.051   1.881   2.293
  398TIP3    H1 1151   5.053   1.859   2.386
  398TIP3    H2 1152   5.034   1.798   2.249
  399TIP3   OH2 1153   2.488   3.932   0.748
  399TIP3    H1 1154   2.499   3.859   0.809
  399TIP3    H2 1155   2.576   3.963   0.731
  400TIP3   OH2 1156   3.072   0.483   0.845
  400TIP3    H1 1157   3.088   0.534   0.766
  400TIP3    H2 1158   3.147   0.423   0.850
  401TIP3   OH2 1159   5.682   2.104   2.680
  401TIP3    H1 1160   5.655   2.105   2.588
  401TIP3    H2 1161   5.677   2.012   2.705
  402TIP3   OH2 1162   0.916   0.358   5.058
  402TIP3    H1 1163   0.996   0.306   5.054
  402TIP3    H2 1164   0.879   0.340   5.145
  403TIP3   OH2 1165   4.096   1.745   2.109
  403TIP3    H1 1166   4.041   1.683   2.158
  403TIP3    H2 1167   4.186   1.716   2.127
  404TIP3   OH2 1168   5.701   0.414   5.254
  404TIP3    H1 1169   5.768   0.476   5.285
  404TIP3    H2 1170   5.727   0.330   5.291
  405TIP3   OH2 1171   6.966   0.372   5.646
  405TIP3    H1 1172   7.056   0.348   5.669
  405TIP3    H2 1173   6.912   0.330   5.712
  406TIP3   OH2 1174   1.146   5.021   0.232
  406TIP3    H1 1175   1.065   5.010   0.281
  406TIP3    H2 1176   1.212   5.037   0.299
  407TIP3   OH2 1177   3.573   0.349   0.069
  407TIP3    H1 1178   3.623   0.289   0.014
  407TIP3    H2 1179   3.606   0.334   0.158
  408TIP3   OH2 1180   7.092   7.181   4.194
  408TIP3    H1 1181   7.156   7.252   4.182
  408TIP3    H2 1182   7.026   7.197   4.126
  409TIP3   OH2 1183   7.414   6.207   5.034
  409TIP3    H1 1184   7.470   6.230   5.108
  409TIP3    H2 1185   7.415   6.285   4.978
  410TIP3   OH2 1186   2.837   6.299   0.018
  410TIP3    H1 1187   2.929   6.315  -0.004
  410TIP3    H2 1188   2.839   6.227   0.081
  411TIP3   OH2 1189   7.255   5.450   4.491
  411TIP3    H1 1190   7.304   5.476   4.569
  411TIP3    H2 1191   7.203   5.528   4.469
  412TIP3   OH2 1192   1.490   6.750   0.603
  412TIP3    H1 1193   1.541   6.831   0.600
  412TIP3    H2 1194   1.413   6.772   0.655
  413TIP3   OH2 1195   3.804   4.523   6.348
  413TIP3    H1 1196   3.892   4.503   6.315
  413TIP3    H2 1197   3.759   4.562   6.273
  414TIP3   OH2 1198   3.775   5.491   3.773
  414TIP3    H1 1199   3.846   5.431   3.796
  414TIP3    H2 1200   3.734   5.451   3.696
  415TIP3   OH2 1201   2.790   6.490   1.856
  415TIP3    H1 1202   2.846   6.516   1.783
  415TIP3    H2 1203   2.835   6.524   1.934
  416TIP3   OH2 1204   2.513   1.507   4.006
  416TIP3    H1 1205   2.587   1.482   3.951
  416TIP3    H2 1206   2.544   1.493   4.096
  417TIP3   OH2 1207   1.761   4.928   0.587
  417TIP3    H1 1208   1.824   4.987   0.628
  417TIP3    H2 1209   1.782   4.932   0.493
  418TIP3   OH2 1210   4.653   0.514   3.420
  418TIP3    H1 1211   4.693   0.600   3.407
  418TIP3    H2 1212   4.714   0.453   3.379
  419TIP3   OH2 1213   4.848   2.697   4.456
  419TIP3    H1 1214   4.843   2.791   4.435
  419TIP3    H2 1215   4.927   2.689   4.509
  420TIP3   OH2 1216   6.929   5.996   3.406
  420TIP3    H1 1217   6.936   5.964   3.317
  420TIP3    H2 1218   6.838   5.977   3.431
  421TIP3   OH2 1219   7.526   5.650   1.694
  421TIP3    H1 1220   7.591   5.582   1.681
  421TIP3    H2 1221   7.443   5.610   1.667
  422TIP3   OH2 1222   1.700   2.927   6.612
  422TIP3    H1 1223   1.781   2.921   6.561
  422TIP3    H2 1224   1.712   2.863   6.682
  423TIP3   OH2 1225   0.687   4.440   6.371
  423TIP3    H1 1226   0.749   4.370   6.349
  423TIP3    H2 1227   0.728   4.487   6.444
  424TIP3   OH2 1228   5.606   3.080   0.468
  424TIP3    H1 1229   5.661   3.094   0.545
  424TIP3    H2 1230   5.532   3.140   0.481
  425TIP3   OH2 1231   1.420   5.367   3.565
  425TIP3    H1 1232   1.436   5.456   3.532
  425TIP3    H2 1233   1.492   5.352   3.626
  426TIP3   OH2 1234   1.561   4.627   1.635
  426TIP3    H1 1235   1.627   4.558   1.637
  426TIP3    H2 1236   1.608   4.706   1.660
  427TIP3   OH2 1237   1.232   4.415   3.097
  427TIP3    H1 1238   1.214   4.326   3.067
  427TIP3    H2 1239   1.163   4.433   3.161
  428TIP3   OH2 1240   2.972   6.536   3.387
  428TIP3    H1 1241   3.065   6.559   3.380
  428TIP3    H2 1242   2.927   6.619   3.402
  429TIP3   OH2 1243   7.996   2.802   0.918
  429TIP3    H1 1244   8.063   2.855   0.875
  429TIP3    H2 1245   7.955   2.753   0.847
  430TIP3   OH2 1246   2.531   0.254   6.528
  430TIP3    H1 1247   2.569   0.337   6.557
  430TIP3    H2 1248   2.437   0.265   6.541
  431TIP3   OH2 1249   7.944   1.650   0.326
  431TIP3    H1 1250   7.897   1.725   0.290
  431TIP3    H2 1251   7.875   1.592   0.360
  432TIP3   OH2 1252   7.984   4.470   0.073
  432TIP3    H1 1253   7.931   4.390   0.068
  432TIP3    H2 1254   8.060   4.444   0.126
  433TIP3   OH2 1255   3.356   0.936   5.913
  433TIP3    H1 1256   3.382   0.884   5.989
  433TIP3    H2 1257   3.417   0.909   5.844
  434TIP3   OH2 1258   2.241   3.639   3.595
  434TIP3    H1 1259   2.232   3.547   3.570
  434TIP3    H2 1260   2.175   3.651   3.664
  435TIP3   OH2 1261   3.403   1.349   1.794
  435TIP3    H1 1262   3.331   1.326   1.736
  435TIP3    H2 1263   3.373   1.325   1.882
  436TIP3   OH2 1264   0.795   2.360   1.507
  436TIP3    H1 1265   0.826   2.448   1.484
  436TIP3    H2 1266   0.798   2.311   1.425
  437TIP3   OH2 1267   6.506   7.698   2.169
  437TIP3    H1 1268   6.479   7.618   2.124
  437TIP3    H2 1269   6.599   7.685   2.188
  438TIP3   OH2 1270   0.631   4.005   5.883
  438TIP3    H1 1271   0.661   4.082   5.835
  438TIP3    H2 1272   0.536   4.011   5.882
  439TIP3   OH2 1273   3.639   1.694   1.438
  439TIP3    H1 1274   3.729   1.696   1.405
  439TIP3    H2 1275   3.628   1.780   1.481
  440TIP3   OH2 1276   7.774   3.948   1.527
  440TIP3    H1 1277   7.698   3.957   1.469
  440TIP3    H2 1278   7.816   4.033   1.524
  441TIP3   OH2 1279   7.192   3.161   6.484
  441TIP3    H1 1280   7.227   3.143   6.397
  441TIP3    H2 1281   7.112   3.211   6.468
  442TIP3   OH2 1282   7.965   4.759   5.054
  442TIP3    H1 1283   7.964   4.850   5.025
  442TIP3    H2 1284   7.959   4.708   4.973
  443TIP3   OH2 1285   2.681   4.851   2.507
  443TIP3    H1 1286   2.634   4.804   2.438
  443TIP3    H2 1287   2.751   4.897   2.461
  444TIP3   OH2 1288   2.961   7.096   6.269
  444TIP3    H1 1289   2.995   7.068   6.354
  444TIP3    H2 1290   2.922   7.182   6.286
  445TIP3   OH2 1291   6.235   6.702   2.327
  445TIP3    H1 1292   6.257   6.780   2.276
  445TIP3    H2 1293   6.200   6.736   2.409
  446TIP3   OH2 1294   4.497   5.974   4.607
  446TIP3    H1 1295   4.593   5.980   4.602
  446TIP3    H2 1296   4.469   5.968   4.516
  447TIP3   OH2 1297   0.399   2.252   4.627
  447TIP3    H1 1298   0.359   2.206   4.701
  447TIP3    H2 1299   0.341   2.326   4.609
  448TIP3   OH2 1300   1.866   6.667   1.874
  448TIP3    H1 1301   1.838   6.658   1.783
  448TIP3    H2 1302   1.786   6.686   1.923
  449TIP3   OH2 1303   2.056   4.767   6.621
  449TIP3    H1 1304   2.067   4.696   6.684
  449TIP3    H2 1305   1.976   4.745   6.574
  450TIP3   OH2 1306   0.162   1.801   5.106
  450TIP3    H1 1307   0.251   1.771   5.124
  450TIP3    H2 1308   0.160   1.815   5.011
  451TIP3   OH2 1309   2.375   6.588   3.566
  451TIP3    H1 1310   2.282   6.599   3.545
  451TIP3    H2 1311   2.384   6.621   3.655
  452TIP3   OH2 1312   6.503   2.828   2.903
  452TIP3    H1 1313   6.456   2.892   2.957
  452TIP3    H2 1314   6.484   2.744   2.945
  453TIP3   OH2 1315   7.055   7.637   3.004
  453TIP3    H1 1316   6.963   7.653   3.025
  453TIP3    H2 1317   7.102   7.660   3.084
  454TIP3   OH2 1318   7.698   4.693   1.777
  454TIP3    H1 1319   7.659   4.778   1.795
  454TIP3    H2 1320   7.624   4.637   1.755
  455TIP3   OH2 1321   4.013   3.066   1.096
  455TIP3    H1 1322   4.004   3.058   1.001
  455TIP3    H2 1323   3.946   3.129   1.121
  456TIP3   OH2 1324   0.411   3.581   1.230
  456TIP3    H1 1325   0.357   3.654   1.259
  456TIP3    H2 1326   0.361   3.503   1.255
  457TIP3   OH2 1327   5.004   6.587   6.126
  457TIP3    H1 1328   5.025   6.676   6.156
  457TIP3    H2 1329   5.037   6.530   6.196
  458TIP3   OH2 1330   5.116   2.039   4.646
  458TIP3    H1 1331   5.101   1.975   4.716
  458TIP3    H2 1332   5.030   2.075   4.627
  459TIP3   OH2 1333   2.711   1.413   3.819
  459TIP3    H1 1334   2.772   1.476   3.782
  459TIP3    H2 1335   2.656   1.387   3.745
  460TIP3   OH2 1336   0.875   4.701   6.477
  460TIP3    H1 1337   0.887   4.618   6.523
  460TIP3    H2 1338   0.952   4.753   6.499
  461TIP3   OH2 1339   7.296   0.255   2.730
  461TIP3    H1 1340   7.382   0.262   2.689
  461TIP3    H2 1341   7.284   0.340   2.773
  462TIP3   OH2 1342   4.899   2.738   4.831
  462TIP3    H1 1343   4.899   2.642   4.829
  462TIP3    H2 1344   4.825   2.761   4.887
  463TIP3   OH2 1345   6.643   6.572   5.827
  463TIP3    H1 1346   6.560   6.609   5.860
  463TIP3    H2 1347   6.659   6.618   5.745
  464TIP3   OH2 1348   0.244   7.100   5.452
  464TIP3    H1 1349   0.296   7.055   5.519
  464TIP3    H2 1350   0.306   7.159   5.410
  465TIP3   OH2 1351   7.263   1.477   6.265
  465TIP3    H1 1352   7.267   1.464   6.170
  465TIP3    H2 1353   7.319   1.553   6.281
  466TIP3   OH2 1354   2.323   7.244   6.161
  466TIP3    H1 1355   2.313   7.280   6.073
  466TIP3    H2 1356   2.378   7.307   6.207
  467TIP3   OH2 1357   1.384   0.774   1.864
  467TIP3    H1 1358   1.360   0.683   1.878
  467TIP3    H2 1359   1.317   0.808   1.804
  468TIP3   OH2 1360   0.704   4.578   2.198
  468TIP3    H1 1361   0.694   4.509   2.133
  468TIP3    H2 1362   0.636   4.560   2.263
  469TIP3   OH2 1363   6.005   0.654   0.362
  469TIP3    H1 1364   6.012   0.685   0.452
  469TIP3    H2 1365   5.967   0.728   0.314
  470TIP3   OH2 1366   5.260   5.532   0.746
  470TIP3    H1 1367   5.202   5.563   0.816
  470TIP3    H2 1368   5.201   5.496   0.680
  471TIP3   OH2 1369   1.796   2.588   0.676
  471TIP3    H1 1370   1.750   2.512   0.640
  471TIP3    H2 1371   1.854   2.617   0.606
  472TIP3   OH2 1372   5.128   0.706   5.031
  472TIP3    H1 1373   5.151   0.652   4.955
  472TIP3    H2 1374   5.186   0.674   5.101
  473TIP3   OH2 1375   6.232   4.149   3.197
  473TIP3    H1 1376   6.294   4.102   3.140
  473TIP3    H2 1377   6.235   4.101   3.280
  474TIP3   OH2 1378   3.642   5.323   5.282
  474TIP3    H1 1379   3.642   5.259   5.353
  474TIP3    H2 1380   3.716   5.381   5.303
  475TIP3   OH2 1381   0.571   6.209   3.784
  475TIP3    H1 1382   0.640   6.200   3.850
  475TIP3    H2 1383   0.508   6.142   3.806
  476TIP3   OH2 1384   1.270   3.322   4.790
  476TIP3    H1 1385   1.349   3.279   4.824
  476TIP3    H2 1386   1.216   3.250   4.757
  477TIP3   OH2 1387   5.155   5.049   0.168
  477TIP3    H1 1388   5.188   4.960   0.159
  477TIP3    H2 1389   5.160   5.067   0.261
  478TIP3   OH2 1390   3.111   7.341   2.343
  478TIP3    H1 1391   3.061   7.302   2.415
  478TIP3    H2 1392   3.194   7.368   2.383
  479TIP3   OH2 1393   0.605   4.270   3.169
  479TIP3    H1 1394   0.551   4.203   3.126
  479TIP3    H2 1395   0.565   4.282   3.255
  480TIP3   OH2 1396   1.959   2.850   2.194
  480TIP3    H1 1397   2.001   2.932   2.168
  480TIP3    H2 1398   1.867   2.872   2.207
  481TIP3   OH2 1399   6.203   3.493   0.210
  481TIP3    H1 1400   6.175   3.403   0.230
  481TIP3    H2 1401   6.298   3.488   0.208
  482TIP3   OH2 1402   2.817   1.260   1.871
  482TIP3    H1 1403   2.747   1.322   1.889
  482TIP3    H2 1404   2.773   1.177   1.855
  483TIP3   OH2 1405   4.685   6.630   1.609
  483TIP3    H1 1406   4.618   6.672   1.664
  483TIP3    H2 1407   4.669   6.536   1.619
  484TIP3   OH2 1408   6.787   2.079   6.446
  484TIP3    H1 1409   6.723   2.015   6.415
  484TIP3    H2 1410   6.768   2.089   6.539
  485TIP3   OH2 1411   2.516   7.367   5.544
  485TIP3    H1 1412   2.450   7.306   5.577
  485TIP3    H2 1413   2.506   7.365   5.449
  486TIP3   OH2 1414   0.245   0.287   2.517
  486TIP3    H1 1415   0.206   0.218   2.571
  486TIP3    H2 1416   0.228   0.368   2.565
  487TIP3   OH2 1417   5.729   0.457   6.133
  487TIP3    H1 1418   5.721   0.522   6.203
  487TIP3    H2 1419   5.776   0.502   6.063
  488TIP3   OH2 1420   5.049   1.265   3.237
  488TIP3    H1 1421   5.068   1.199   3.170
  488TIP3    H2 1422   5.130   1.271   3.288
  489TIP3   OH2 1423   7.101   6.942   0.324
  489TIP3    H1 1424   7.156   6.918   0.399
  489TIP3    H2 1425   7.023   6.980   0.364
  490TIP3   OH2 1426   2.063   0.607   0.055
  490TIP3    H1 1427   1.996   0.662   0.095
  490TIP3    H2 1428   2.055   0.625  -0.039
  491TIP3   OH2 1429   7.617   7.048   2.162
  491TIP3    H1 1430   7.552   7.071   2.095
  491TIP3    H2 1431   7.614   7.120   2.225
  492TIP3   OH2 1432   7.669   1.727   2.151
  492TIP3    H1 1433   7.687   1.653   2.209
  492TIP3    H2 1434   7.746   1.784   2.159
  493TIP3   OH2 1435   1.437   5.477   1.289
  493TIP3    H1 1436   1.484   5.540   1.235
  493TIP3    H2 1437   1.452   5.392   1.247
  494TIP3   OH2 1438   1.973   6.905   5.596
  494TIP3    H1 1439   1.991   6.847   5.670
  494TIP3    H2 1440   1.939   6.847   5.528
  495TIP3   OH2 1441   2.695   0.623   0.781
  495TIP3    H1 1442   2.696   0.549   0.721
  495TIP3    H2 1443   2.649   0.592   0.859
  496TIP3   OH2 1444   0.318   3.507   5.533
  496TIP3    H1 1445   0.286   3.589   5.496
  496TIP3    H2 1446   0.348   3.457   5.457
  497TIP3   OH2 1447   5.698   0.868   2.238
  497TIP3    H1 1448   5.775   0.923   2.227
  497TIP3    H2 1449   5.727   0.797   2.296
  498TIP3   OH2 1450   7.374   0.621   2.455
  498TIP3    H1 1451   7.448   0.653   2.404
  498TIP3    H2 1452   7.323   0.569   2.392
  499TIP3   OH2 1453   5.033   6.177   5.631
  499TIP3    H1 1454   5.055   6.122   5.706
  499TIP3    H2 1455   4.997   6.256   5.670
  500TIP3   OH2 1456   0.944   3.362   4.570
  500TIP3    H1 1457   0.869   3.421   4.570
  500TIP3    H2 1458   1.002   3.397   4.502
  501TIP3   OH2 1459   5.908   0.597   2.165
  501TIP3    H1 1460   5.978   0.653   2.198
  501TIP3    H2 1461   5.937   0.508   2.184
  502TIP3   OH2 1462   0.174   7.036   3.536
  502TIP3    H1 1463   0.132   6.982   3.468
  502TIP3    H2 1464   0.254   6.989   3.558
  503TIP3   OH2 1465   6.909   1.362   3.776
  503TIP3    H1 1466   6.940   1.352   3.866
  503TIP3    H2 1467   6.975   1.418   3.734
  504TIP3   OH2 1468   5.551   4.158   2.260
  504TIP3    H1 1469   5.480   4.191   2.314
  504TIP3    H2 1470   5.625   4.151   2.320
  505TIP3   OH2 1471   3.853   4.428   0.493
  505TIP3    H1 1472   3.891   4.486   0.559
  505TIP3    H2 1473   3.841   4.345   0.539
  506TIP3   OH2 1474   5.294   2.142   1.240
  506TIP3    H1 1475   5.352   2.082   1.288
  506TIP3    H2 1476   5.240   2.182   1.307
  507TIP3   OH2 1477   2.236   2.575   1.484
  507TIP3    H1 1478   2.242   2.573   1.579
  507TIP3    H2 1479   2.327   2.565   1.454
  508TIP3   OH2 1480   2.655   0.837   4.788
  508TIP3    H1 1481   2.736   0.789   4.804
  508TIP3    H2 1482   2.622   0.859   4.875
  509TIP3   OH2 1483   7.240   6.837   5.452
  509TIP3    H1 1484   7.227   6.931   5.439
  509TIP3    H2 1485   7.268   6.805   5.366
  510TIP3   OH2 1486   4.414   7.774   1.232
  510TIP3    H1 1487   4.447   7.818   1.310
  510TIP3    H2 1488   4.489   7.769   1.173
  511TIP3   OH2 1489   1.803   0.122   3.576
  511TIP3    H1 1490   1.831   0.106   3.486
  511TIP3    H2 1491   1.883   0.121   3.627
  512TIP3   OH2 1492   3.809   0.220   1.598
  512TIP3    H1 1493   3.792   0.314   1.602
  512TIP3    H2 1494   3.901   0.211   1.622
  513TIP3   OH2 1495   5.606   2.469   1.663
  513TIP3    H1 1496   5.637   2.557   1.681
  513TIP3    H2 1497   5.531   2.481   1.606
  514TIP3   OH2 1498   1.823   1.803   0.433
  514TIP3    H1 1499   1.809   1.800   0.339
  514TIP3    H2 1500   1.751   1.752   0.470
  515TIP3   OH2 1501   2.752   5.143   4.788
  515TIP3    H1 1502   2.846   5.134   4.772
  515TIP3    H2 1503   2.716   5.057   4.766
  516TIP3   OH2 1504   5.094   1.594   6.107
  516TIP3    H1 1505   5.104   1.515   6.055
  516TIP3    H2 1506   5.172   1.596   6.164
  517TIP3   OH2 1507   2.248   3.012   3.460
  517TIP3    H1 1508   2.223   3.048   3.545
  517TIP3    H2 1509   2.319   3.068   3.430
  518TIP3   OH2 1510   1.329   6.524   1.510
  518TIP3    H1 1511   1.325   6.598   1.571
  518TIP3    H2 1512   1.385   6.460   1.553
  519TIP3   OH2 1513   1.764   4.963   4.207
  519TIP3    H1 1514   1.828   5.024   4.170
  519TIP3    H2 1515   1.770   4.885   4.151
  520TIP3   OH2 1516   3.009   4.262   5.444
  520TIP3    H1 1517   3.005   4.207   5.366
  520TIP3    H2 1518   3.102   4.260   5.469
  521TIP3   OH2 1519   6.539   6.396   6.037
  521TIP3    H1 1520   6.624   6.435   6.058
  521TIP3    H2 1521   6.485   6.471   6.010
  522TIP3   OH2 1522   2.409   6.488   1.382
  522TIP3    H1 1523   2.399   6.536   1.464
  522TIP3    H2 1524   2.381   6.399   1.403
  523TIP3   OH2 1525   2.942   5.230   4.049
  523TIP3    H1 1526   2.978   5.258   4.133
  523TIP3    H2 1527   2.874   5.294   4.029
  524TIP3   OH2 1528   0.201   2.315   0.288
  524TIP3    H1 1529   0.257   2.355   0.222
  524TIP3    H2 1530   0.258   2.255   0.335
  525TIP3   OH2 1531   7.716   3.144   5.907
  525TIP3    H1 1532   7.797   3.145   5.958
  525TIP3    H2 1533   7.690   3.236   5.903
  526TIP3   OH2 1534   4.589   6.024   6.229
  526TIP3    H1 1535   4.652   5.956   6.250
  526TIP3    H2 1536   4.592   6.032   6.133
  527TIP3   OH2 1537   4.283   6.073   6.670
  527TIP3    H1 1538   4.378   6.062   6.660
  527TIP3    H2 1539   4.255   6.115   6.589
  528TIP3   OH2 1540   6.677   2.083   0.433
  528TIP3    H1 1541   6.716   1.996   0.424
  528TIP3    H2 1542   6.750   2.140   0.457
  529TIP3   OH2 1543   2.523   5.472   2.242
  529TIP3    H1 1544   2.539   5.410   2.171
  529TIP3    H2 1545   2.430   5.493   2.235
  530TIP3   OH2 1546   5.986   0.958   3.809
  530TIP3    H1 1547   5.920   0.946   3.877
  530TIP3    H2 1548   5.988   0.874   3.762
  531TIP3   OH2 1549   7.531   3.286   3.723
  531TIP3    H1 1550   7.498   3.324   3.804
  531TIP3    H2 1551   7.492   3.199   3.719
  532TIP3   OH2 1552   3.257   6.300   1.162
  532TIP3    H1 1553   3.295   6.272   1.245
  532TIP3    H2 1554   3.320   6.363   1.127
  533TIP3   OH2 1555   8.048   0.017   6.295
  533TIP3    H1 1556   8.090  -0.030   6.224
  533TIP3    H2 1557   8.104   0.001   6.371
  534TIP3   OH2 1558   4.110   2.039   0.745
  534TIP3    H1 1559   4.032   2.089   0.770
  534TIP3    H2 1560   4.178   2.071   0.804
  535TIP3   OH2 1561   4.342   2.546   4.904
  535TIP3    H1 1562   4.310   2.579   4.987
  535TIP3    H2 1563   4.420   2.496   4.926
  536TIP3   OH2 1564   5.005   0.954   3.497
  536TIP3    H1 1565   5.035   1.045   3.497
  536TIP3    H2 1566   5.010   0.927   3.406
  537TIP3   OH2 1567   5.674   3.270   5.698
  537TIP3    H1 1568   5.704   3.183   5.674
  537TIP3    H2 1569   5.654   3.264   5.791
  538TIP3   OH2 1570   6.085   7.160   3.050
  538TIP3    H1 1571   6.016   7.173   2.984
  538TIP3    H2 1572   6.152   7.109   3.005
  539TIP3   OH2 1573   1.260   0.905   0.941
  539TIP3    H1 1574   1.210   0.826   0.963
  539TIP3    H2 1575   1.223   0.935   0.859
  540TIP3   OH2 1576   6.797   4.555   5.863
  540TIP3    H1 1577   6.781   4.461   5.874
  540TIP3    H2 1578   6.879   4.560   5.815
  541TIP3   OH2 1579   6.530   4.150   0.599
  541TIP3    H1 1580   6.520   4.165   0.505
  541TIP3    H2 1581   6.464   4.205   0.640
  542TIP3   OH2 1582   2.609   5.044   0.307
  542TIP3    H1 1583   2.684   5.058   0.364
  542TIP3    H2 1584   2.617   5.112   0.240
  543TIP3   OH2 1585   5.759   4.891   5.358
  543TIP3    H1 1586   5.701   4.831   5.405
  543TIP3    H2 1587   5.848   4.861   5.380
  544TIP3   OH2 1588   4.231   4.147   3.814
  544TIP3    H1 1589   4.150   4.097   3.813
  544TIP3    H2 1590   4.297   4.085   3.844
  545TIP3   OH2 1591   5.643   6.065   0.050
  545TIP3    H1 1592   5.735   6.078   0.074
  545TIP3    H2 1593   5.610   6.004   0.117
  546TIP3   OH2 1594   3.892   0.799   3.736
  546TIP3    H1 1595   3.882   0.785   3.642
  546TIP3    H2 1596   3.900   0.712   3.773
  547TIP3   OH2 1597   7.391   7.844   6.757
  547TIP3    H1 1598   7.413   7.800   6.838
  547TIP3    H2 1599   7.376   7.774   6.694
  548TIP3   OH2 1600   4.566   1.927   1.969
  548TIP3    H1 1601   4.492   1.925   1.908
  548TIP3    H2 1602   4.641   1.898   1.917
  549TIP3   OH2 1603   3.927   5.200   5.230
  549TIP3    H1 1604   3.976   5.118   5.240
  549TIP3    H2 1605   3.873   5.186   5.152
  550TIP3   OH2 1606   6.231   2.556   4.989
  550TIP3    H1 1607   6.275   2.476   5.015
  550TIP3    H2 1608   6.301   2.619   4.973
  551TIP3   OH2 1609   5.925   3.587   0.562
  551TIP3    H1 1610   5.864   3.548   0.499
  551TIP3    H2 1611   5.869   3.631   0.626
  552TIP3   OH2 1612   1.860   0.869   3.675
  552TIP3    H1 1613   1.905   0.934   3.729
  552TIP3    H2 1614   1.881   0.785   3.715
  553TIP3   OH2 1615   6.692   2.720   3.660
  553TIP3    H1 1616   6.766   2.659   3.665
  553TIP3    H2 1617   6.637   2.697   3.735
  554TIP3   OH2 1618   4.330   4.604   6.727
  554TIP3    H1 1619   4.320   4.648   6.642
  554TIP3    H2 1620   4.309   4.672   6.791
  555TIP3   OH2 1621   5.771   5.370   1.169
  555TIP3    H1 1622   5.829   5.358   1.094
  555TIP3    H2 1623   5.809   5.315   1.238
  556TIP3   OH2 1624   1.730   3.699   0.178
  556TIP3    H1 1625   1.696   3.686   0.089
  556TIP3    H2 1626   1.736   3.610   0.214
  557TIP3   OH2 1627   0.481   6.890   2.851
  557TIP3    H1 1628   0.415   6.847   2.797
  557TIP3    H2 1629   0.440   6.971   2.880
  558TIP3   OH2 1630   3.527   0.350   0.781
  558TIP3    H1 1631   3.602   0.291   0.783
  558TIP3    H2 1632   3.467   0.310   0.717
  559TIP3   OH2 1633   4.243   1.823   4.235
  559TIP3    H1 1634   4.306   1.861   4.297
  559TIP3    H2 1635   4.159   1.826   4.282
  560TIP3   OH2 1636   3.617   4.471   2.069
  560TIP3    H1 1637   3.572   4.458   1.985
  560TIP3    H2 1638   3.576   4.549   2.106
  561TIP3   OH2 1639   5.518   7.549   0.374
  561TIP3    H1 1640   5.520   7.612   0.302
  561TIP3    H2 1641   5.473   7.595   0.445
  562TIP3   OH2 1642   1.119   2.420   3.454
  562TIP3    H1 1643   1.120   2.515   3.441
  562TIP3    H2 1644   1.185   2.405   3.522
  563TIP3   OH2 1645   4.904   2.908   3.474
  563TIP3    H1 1646   4.905   2.988   3.526
  563TIP3    H2 1647   4.843   2.926   3.402
  564TIP3   OH2 1648   5.140   7.050   6.147
  564TIP3    H1 1649   5.228   7.087   6.147
  564TIP3    H2 1650   5.083   7.124   6.127
  565TIP3   OH2 1651   3.186   2.294   3.694
  565TIP3    H1 1652   3.152   2.341   3.770
  565TIP3    H2 1653   3.279   2.317   3.692
  566TIP3   OH2 1654   6.737   1.602   5.077
  566TIP3    H1 1655   6.678   1.647   5.139
  566TIP3    H2 1656   6.699   1.515   5.067
  567TIP3   OH2 1657   0.942   3.946   4.939
  567TIP3    H1 1658   0.964   3.922   5.028
  567TIP3    H2 1659   0.958   3.867   4.887
  568TIP3   OH2 1660   0.186   4.066   6.590
  568TIP3    H1 1661   0.206   4.159   6.574
  568TIP3    H2 1662   0.101   4.067   6.634
  569TIP3   OH2 1663   2.408   7.780   4.083
  569TIP3    H1 1664   2.452   7.707   4.038
  569TIP3    H2 1665   2.353   7.820   4.015
  570TIP3   OH2 1666   2.605   5.435   4.839
  570TIP3    H1 1667   2.513   5.414   4.853
  570TIP3    H2 1668   2.652   5.381   4.904
  571TIP3   OH2 1669   3.828   7.485   5.682
  571TIP3    H1 1670   3.920   7.498   5.706
  571TIP3    H2 1671   3.807   7.559   5.625
  572TIP3   OH2 1672   4.589   3.419   2.811
  572TIP3    H1 1673   4.683   3.429   2.797
  572TIP3    H2 1674   4.562   3.355   2.745
  573TIP3   OH2 1675   7.438   4.567   2.145
  573TIP3    H1 1676   7.490   4.586   2.067
  573TIP3    H2 1677   7.355   4.614   2.130
  574TIP3   OH2 1678   2.952   5.292   2.684
  574TIP3    H1 1679   3.003   5.372   2.696
  574TIP3    H2 1680   2.914   5.275   2.770
  575TIP3   OH2 1681   0.447   3.300   2.237
  575TIP3    H1 1682   0.396   3.329   2.162
  575TIP3    H2 1683   0.527   3.264   2.200
  576TIP3   OH2 1684   0.058   7.477   0.466
  576TIP3    H1 1685   0.152   7.461   0.456
  576TIP3    H2 1686   0.016   7.412   0.409
  577TIP3   OH2 1687   7.394   0.779   2.061
  577TIP3    H1 1688   7.443   0.811   2.137
  577TIP3    H2 1689   7.361   0.693   2.088
  578TIP3   OH2 1690   1.740   3.432   4.977
  578TIP3    H1 1691   1.669   3.375   4.949
  578TIP3    H2 1692   1.785   3.456   4.896
  579TIP3   OH2 1693   8.223   3.990   6.684
  579TIP3    H1 1694   8.157   4.057   6.703
  579TIP3    H2 1695   8.175   3.922   6.636
  580TIP3   OH2 1696   0.017   3.348   1.177
  580TIP3    H1 1697  -0.033   3.320   1.100
  580TIP3    H2 1698   0.088   3.284   1.185
  581TIP3   OH2 1699   6.635   0.543   0.255
  581TIP3    H1 1700   6.579   0.515   0.182
  581TIP3    H2 1701   6.719   0.564   0.214
  582TIP3   OH2 1702   6.926   3.591   2.001
  582TIP3    H1 1703   6.849   3.570   1.947
  582TIP3    H2 1704   6.931   3.687   1.997
  583TIP3   OH2 1705   3.232   5.141   3.352
  583TIP3    H1 1706   3.317   5.096   3.352
  583TIP3    H2 1707   3.174   5.085   3.301
  584TIP3   OH2 1708   3.095   7.470   6.588
  584TIP3    H1 1709   3.143   7.439   6.665
  584TIP3    H2 1710   3.039   7.540   6.622
  585TIP3   OH2 1711   0.382   5.041   4.703
  585TIP3    H1 1712   0.372   5.116   4.762
  585TIP3    H2 1713   0.476   5.024   4.701
  586TIP3   OH2 1714   5.339   0.330   6.479
  586TIP3    H1 1715   5.426   0.366   6.464
  586TIP3    H2 1716   5.280   0.387   6.428
  587TIP3   OH2 1717   3.594   2.731   4.586
  587TIP3    H1 1718   3.527   2.787   4.625
  587TIP3    H2 1719   3.675   2.756   4.631
  588TIP3   OH2 1720   1.023   7.452   1.285
  588TIP3    H1 1721   1.083   7.515   1.244
  588TIP3    H2 1722   1.029   7.471   1.379
  589TIP3   OH2 1723   2.939   7.470   1.624
  589TIP3    H1 1724   2.874   7.438   1.686
  589TIP3    H2 1725   3.021   7.431   1.654
  590TIP3   OH2 1726   3.271   0.245   3.932
  590TIP3    H1 1727   3.258   0.151   3.946
  590TIP3    H2 1728   3.366   0.255   3.929
  591TIP3   OH2 1729   5.528   1.912   5.224
  591TIP3    H1 1730   5.500   1.822   5.204
  591TIP3    H2 1731   5.623   1.906   5.230
  592TIP3   OH2 1732   1.843   2.435   1.422
  592TIP3    H1 1733   1.926   2.410   1.462
  592TIP3    H2 1734   1.784   2.362   1.441
  593TIP3   OH2 1735   6.581   3.636   0.432
  593TIP3    H1 1736   6.530   3.662   0.354
  593TIP3    H2 1737   6.623   3.553   0.406
  594TIP3   OH2 1738   7.517   4.452   6.614
  594TIP3    H1 1739   7.526   4.357   6.609
  594TIP3    H2 1740   7.469   4.467   6.695
  595TIP3   OH2 1741   4.807   1.362   6.353
  595TIP3    H1 1742   4.790   1.410   6.434
  595TIP3    H2 1743   4.750   1.285   6.359
  596TIP3   OH2 1744   6.579   6.873   0.337
  596TIP3    H1 1745   6.616   6.921   0.412
  596TIP3    H2 1746   6.654   6.830   0.297
  597TIP3   OH2 1747   7.703   5.977   3.876
  597TIP3    H1 1748   7.650   6.018   3.808
  597TIP3    H2 1749   7.682   6.027   3.956
  598TIP3   OH2 1750   1.974   2.333   3.170
  598TIP3    H1 1751   1.952   2.339   3.077
  598TIP3    H2 1752   1.904   2.280   3.208
  599TIP3   OH2 1753   8.308   4.562   3.817
  599TIP3    H1 1754   8.336   4.483   3.863
  599TIP3    H2 1755   8.260   4.531   3.741
  600TIP3   OH2 1756   5.490   5.747   5.879
  600TIP3    H1 1757   5.481   5.786   5.966
  600TIP3    H2 1758   5.516   5.819   5.822
  601TIP3   OH2 1759   7.956   0.765   5.137
  601TIP3    H1 1760   7.966   0.687   5.192
  601TIP3    H2 1761   8.021   0.753   5.067
  602TIP3   OH2 1762   3.234   6.711   2.948
  602TIP3    H1 1763   3.163   6.750   2.898
  602TIP3    H2 1764   3.255   6.776   3.015
  603TIP3   OH2 1765   1.139   1.534   5.318
  603TIP3    H1 1766   1.100   1.535   5.406
  603TIP3    H2 1767   1.134   1.624   5.288
  604TIP3   OH2 1768   7.428   5.272   3.643
  604TIP3    H1 1769   7.469   5.248   3.726
  604TIP3    H2 1770   7.457   5.362   3.628
  605TIP3   OH2 1771   5.702   6.930   1.106
  605TIP3    H1 1772   5.710   7.017   1.069
  605TIP3    H2 1773   5.678   6.944   1.198
  606TIP3   OH2 1774   7.099   0.233   1.105
  606TIP3    H1 1775   7.003   0.236   1.108
  606TIP3    H2 1776   7.118   0.189   1.022
  607TIP3   OH2 1777   5.874   5.189   0.246
  607TIP3    H1 1778   5.799   5.135   0.224
  607TIP3    H2 1779   5.883   5.250   0.173
  608TIP3   OH2 1780   7.655   4.038   0.187
  608TIP3    H1 1781   7.694   4.085   0.261
  608TIP3    H2 1782   7.704   3.956   0.182
  609TIP3   OH2 1783   1.343   3.079   5.548
  609TIP3    H1 1784   1.314   3.132   5.622
  609TIP3    H2 1785   1.373   3.143   5.483
  610TIP3   OH2 1786   4.718   3.710   0.152
  610TIP3    H1 1787   4.810   3.709   0.126
  610TIP3    H2 1788   4.720   3.721   0.247
  611TIP3   OH2 1789   2.876   6.492   4.133
  611TIP3    H1 1790   2.954   6.466   4.181
  611TIP3    H2 1791   2.895   6.470   4.041
  612TIP3   OH2 1792   4.415   0.450   2.201
  612TIP3    H1 1793   4.438   0.406   2.283
  612TIP3    H2 1794   4.453   0.538   2.210
  613TIP3   OH2 1795   1.386   1.987   0.457
  613TIP3    H1 1796   1.299   1.994   0.418
  613TIP3    H2 1797   1.370   1.992   0.552
  614TIP3   OH2 1798   7.681   4.721   4.619
  614TIP3    H1 1799   7.686   4.807   4.661
  614TIP3    H2 1800   7.769   4.705   4.586
  615TIP3   OH2 1801   5.979   7.367   3.987
  615TIP3    H1 1802   5.907   7.317   3.948
  615TIP3    H2 1803   6.017   7.416   3.914
  616TIP3   OH2 1804   7.476   4.696   5.074
  616TIP3    H1 1805   7.518   4.611   5.086
  616TIP3    H2 1806   7.388   4.684   5.110
  617TIP3   OH2 1807   8.281   0.078   5.565
  617TIP3    H1 1808   8.263  -0.015   5.550
  617TIP3    H2 1809   8.317   0.082   5.653
  618TIP3   OH2 1810   6.853   4.015   2.216
  618TIP3    H1 1811   6.854   4.009   2.312
  618TIP3    H2 1812   6.806   4.096   2.198
  619TIP3   OH2 1813   1.869   3.740   4.487
  619TIP3    H1 1814   1.926   3.740   4.564
  619TIP3    H2 1815   1.793   3.792   4.515
  620TIP3   OH2 1816   3.662   2.110   5.046
  620TIP3    H1 1817   3.683   2.058   4.968
  620TIP3    H2 1818   3.747   2.138   5.080
  621TIP3   OH2 1819   3.350   5.055   0.465
  621TIP3    H1 1820   3.361   4.986   0.400
  621TIP3    H2 1821   3.377   5.015   0.548
  622TIP3   OH2 1822   4.815   1.522   3.568
  622TIP3    H1 1823   4.847   1.611   3.554
  622TIP3    H2 1824   4.734   1.517   3.517
  623TIP3   OH2 1825   5.673   4.167   3.070
  623TIP3    H1 1826   5.578   4.167   3.082
  623TIP3    H2 1827   5.702   4.085   3.111
  624TIP3   OH2 1828   3.941   5.799   0.799
  624TIP3    H1 1829   3.944   5.820   0.706
  624TIP3    H2 1830   3.856   5.757   0.811
  625TIP3   OH2 1831   6.024   7.687   1.971
  625TIP3    H1 1832   6.080   7.625   2.018
  625TIP3    H2 1833   5.993   7.747   2.038
  626TIP3   OH2 1834   3.025   1.642   4.931
  626TIP3    H1 1835   3.011   1.657   5.025
  626TIP3    H2 1836   3.004   1.550   4.918
  627TIP3   OH2 1837   1.025   2.909   5.854
  627TIP3    H1 1838   0.955   2.952   5.804
  627TIP3    H2 1839   0.992   2.907   5.944
  628TIP3   OH2 1840   1.010   0.217   0.966
  628TIP3    H1 1841   1.053   0.214   0.881
  628TIP3    H2 1842   1.081   0.210   1.029
  629TIP3   OH2 1843   1.508   7.081   2.227
  629TIP3    H1 1844   1.550   7.120   2.304
  629TIP3    H2 1845   1.547   7.127   2.153
  630TIP3   OH2 1846   8.290   2.684   5.102
  630TIP3    H1 1847   8.361   2.733   5.061
  630TIP3    H2 1848   8.214   2.701   5.046
  631TIP3   OH2 1849   4.668   6.650   5.491
  631TIP3    H1 1850   4.627   6.696   5.564
  631TIP3    H2 1851   4.656   6.557   5.512
  632TIP3   OH2 1852   5.774   5.229   6.310
  632TIP3    H1 1853   5.868   5.222   6.327
  632TIP3    H2 1854   5.735   5.236   6.397
  633TIP3   OH2 1855   7.460   5.230   6.235
  633TIP3    H1 1856   7.511   5.222   6.154
  633TIP3    H2 1857   7.385   5.172   6.222
  634TIP3   OH2 1858   8.357   6.847   2.863
  634TIP3    H1 1859   8.322   6.759   2.851
  634TIP3    H2 1860   8.290   6.905   2.827
  635TIP3   OH2 1861   6.682   5.862   5.011
  635TIP3    H1 1862   6.765   5.817   4.994
  635TIP3    H2 1863   6.618   5.792   5.023
  636TIP3   OH2 1864   0.699  -0.012   4.138
  636TIP3    H1 1865   0.615   0.010   4.097
  636TIP3    H2 1866   0.675  -0.067   4.213
  637TIP3   OH2 1867   1.438   6.104   3.387
  637TIP3    H1 1868   1.389   6.056   3.454
  637TIP3    H2 1869   1.375   6.165   3.350
  638TIP3   OH2 1870   2.032   7.726   3.840
  638TIP3    H1 1871   1.951   7.717   3.790
  638TIP3    H2 1872   2.028   7.657   3.906
  639TIP3   OH2 1873   1.989   6.072   1.526
  639TIP3    H1 1874   1.944   6.031   1.452
  639TIP3    H2 1875   1.983   6.166   1.509
  640TIP3   OH2 1876   1.380   4.949   3.276
  640TIP3    H1 1877   1.294   4.979   3.306
  640TIP3    H2 1878   1.441   4.980   3.343
  641TIP3   OH2 1879   5.464   5.898   1.229
  641TIP3    H1 1880   5.403   5.971   1.217
  641TIP3    H2 1881   5.428   5.848   1.301
  642TIP3   OH2 1882   6.845   2.912   3.571
  642TIP3    H1 1883   6.792   2.848   3.618
  642TIP3    H2 1884   6.886   2.861   3.501
  643TIP3   OH2 1885   3.297   5.778   6.183
  643TIP3    H1 1886   3.343   5.861   6.172
  643TIP3    H2 1887   3.365   5.714   6.203
  644TIP3   OH2 1888   3.330   5.583   6.562
  644TIP3    H1 1889   3.354   5.552   6.650
  644TIP3    H2 1890   3.273   5.515   6.527
  645TIP3   OH2 1891   3.420   3.918   3.256
  645TIP3    H1 1892   3.469   3.923   3.174
  645TIP3    H2 1893   3.450   3.836   3.296
  646TIP3   OH2 1894   0.266   0.732   6.041
  646TIP3    H1 1895   0.252   0.756   6.133
  646TIP3    H2 1896   0.182   0.753   5.998
  647TIP3   OH2 1897   2.315   6.022   1.557
  647TIP3    H1 1898   2.227   6.026   1.595
  647TIP3    H2 1899   2.374   6.028   1.632
  648TIP3   OH2 1900   6.307   2.611   2.847
  648TIP3    H1 1901   6.228   2.567   2.815
  648TIP3    H2 1902   6.378   2.549   2.828
  649TIP3   OH2 1903   2.136   6.804   3.735
  649TIP3    H1 1904   2.191   6.842   3.803
  649TIP3    H2 1905   2.053   6.851   3.742
  650TIP3   OH2 1906   0.134   6.517   5.224
  650TIP3    H1 1907   0.174   6.557   5.147
  650TIP3    H2 1908   0.163   6.571   5.297
  651TIP3   OH2 1909   4.584   4.926   4.921
  651TIP3    H1 1910   4.577   5.011   4.878
  651TIP3    H2 1911   4.519   4.929   4.992
  652TIP3   OH2 1912   8.179   0.533   0.951
  652TIP3    H1 1913   8.266   0.511   0.983
  652TIP3    H2 1914   8.120   0.501   1.019
  653TIP3   OH2 1915   0.517   2.786   4.113
  653TIP3    H1 1916   0.472   2.792   4.029
  653TIP3    H2 1917   0.474   2.713   4.158
  654TIP3   OH2 1918   5.489   1.828   6.568
  654TIP3    H1 1919   5.419   1.767   6.545
  654TIP3    H2 1920   5.516   1.802   6.656
  655TIP3   OH2 1921   7.402   0.297   2.048
  655TIP3    H1 1922   7.475   0.286   1.988
  655TIP3    H2 1923   7.325   0.269   1.999
  656TIP3   OH2 1924   4.205   4.713   5.414
  656TIP3    H1 1925   4.221   4.753   5.500
  656TIP3    H2 1926   4.110   4.701   5.411
  657TIP3   OH2 1927   7.525   0.612   0.294
  657TIP3    H1 1928   7.518   0.518   0.313
  657TIP3    H2 1929   7.577   0.647   0.366
  658TIP3   OH2 1930   7.525   1.850   6.776
  658TIP3    H1 1931   7.602   1.809   6.814
  658TIP3    H2 1932   7.497   1.789   6.707
  659TIP3   OH2 1933   6.932   1.455   0.919
  659TIP3    H1 1934   6.889   1.370   0.925
  659TIP3    H2 1935   7.020   1.441   0.953
  660TIP3   OH2 1936   6.300   7.591   5.080
  660TIP3    H1 1937   6.319   7.572   4.988
  660TIP3    H2 1938   6.337   7.678   5.095
  661TIP3   OH2 1939   7.825   3.159   6.256
  661TIP3    H1 1940   7.877   3.193   6.329
  661TIP3    H2 1941   7.747   3.122   6.298
  662TIP3   OH2 1942   2.772   7.029   5.781
  662TIP3    H1 1943   2.784   6.965   5.851
  662TIP3    H2 1944   2.681   7.020   5.754
  663TIP3   OH2 1945   1.909   0.724   5.045
  663TIP3    H1 1946   1.851   0.780   4.994
  663TIP3    H2 1947   1.952   0.668   4.980
  664TIP3   OH2 1948   5.993   3.881   5.117
  664TIP3    H1 1949   6.052   3.827   5.065
  664TIP3    H2 1950   5.907   3.841   5.107
  665TIP3   OH2 1951   4.003   2.122   3.267
  665TIP3    H1 1952   3.942   2.136   3.339
  665TIP3    H2 1953   3.959   2.157   3.190
  666TIP3   OH2 1954   8.096   0.871   1.872
  666TIP3    H1 1955   8.046   0.939   1.918
  666TIP3    H2 1956   8.167   0.918   1.830
  667TIP3   OH2 1957   2.370   3.208   4.242
  667TIP3    H1 1958   2.392   3.125   4.286
  667TIP3    H2 1959   2.282   3.193   4.206
  668TIP3   OH2 1960   8.000   3.072   1.301
  668TIP3    H1 1961   7.945   3.013   1.353
  668TIP3    H2 1962   8.042   3.015   1.236
  669TIP3   OH2 1963   6.257   5.044   4.005
  669TIP3    H1 1964   6.312   5.089   3.941
  669TIP3    H2 1965   6.213   5.114   4.053
  670TIP3   OH2 1966   7.133   5.646   6.233
  670TIP3    H1 1967   7.174   5.571   6.276
  670TIP3    H2 1968   7.166   5.643   6.143
  671TIP3   OH2 1969   1.151   2.161   3.308
  671TIP3    H1 1970   1.227   2.211   3.279
  671TIP3    H2 1971   1.077   2.220   3.297
  672TIP3   OH2 1972   5.833   4.553   5.003
  672TIP3    H1 1973   5.774   4.479   4.994
  672TIP3    H2 1974   5.913   4.516   5.042
  673TIP3   OH2 1975   4.912   1.708   6.532
  673TIP3    H1 1976   4.924   1.773   6.602
  673TIP3    H2 1977   4.827   1.731   6.493
  674TIP3   OH2 1978   5.120   7.364   2.476
  674TIP3    H1 1979   5.133   7.396   2.387
  674TIP3    H2 1980   5.045   7.413   2.509
  675TIP3   OH2 1981   4.902   0.161   3.427
  675TIP3    H1 1982   4.876   0.250   3.402
  675TIP3    H2 1983   4.968   0.136   3.362
  676TIP3   OH2 1984   3.283   5.611   5.669
  676TIP3    H1 1985   3.203   5.596   5.720
  676TIP3    H2 1986   3.345   5.545   5.699
  677TIP3   OH2 1987   4.144   0.697   1.904
  677TIP3    H1 1988   4.213   0.676   1.967
  677TIP3    H2 1989   4.125   0.790   1.919
  678TIP3   OH2 1990   5.770   0.341   4.918
  678TIP3    H1 1991   5.775   0.353   4.824
  678TIP3    H2 1992   5.819   0.416   4.954
  679TIP3   OH2 1993   3.921   5.396   4.790
  679TIP3    H1 1994   3.861   5.411   4.717
  679TIP3    H2 1995   3.999   5.359   4.750
  680TIP3   OH2 1996   2.246   4.925   5.408
  680TIP3    H1 1997   2.326   4.964   5.444
  680TIP3    H2 1998   2.189   4.913   5.484
  681TIP3   OH2 1999   2.026   7.838   1.277
  681TIP3    H1 2000   2.079   7.762   1.302
  681TIP3    H2 2001   2.060   7.863   1.191
  682TIP3   OH2 2002   2.910   2.272   3.630
  682TIP3    H1 2003   3.005   2.270   3.637
  682TIP3    H2 2004   2.891   2.351   3.579
  683TIP3   OH2 2005   4.531   2.055   6.362
  683TIP3    H1 2006   4.476   2.025   6.289
  683TIP3    H2 2007   4.609   2.001   6.357
  684TIP3   OH2 2008   3.100   0.604   3.479
  684TIP3    H1 2009   3.156   0.630   3.407
  684TIP3    H2 2010   3.015   0.585   3.439
  685TIP3   OH2 2011   1.828   5.360   1.461
  685TIP3    H1 2012   1.740   5.398   1.471
  685TIP3    H2 2013   1.853   5.333   1.549
  686TIP3   OH2 2014   4.023   5.614   3.488
  686TIP3    H1 2015   4.020   5.519   3.491
  686TIP3    H2 2016   4.104   5.634   3.441
  687TIP3   OH2 2017   0.976   3.340   5.059
  687TIP3    H1 2018   0.941   3.332   4.970
  687TIP3    H2 2019   0.905   3.311   5.116
  688TIP3   OH2 2020   5.473   4.234   6.591
  688TIP3    H1 2021   5.534   4.308   6.579
  688TIP3    H2 2022   5.399   4.255   6.533
  689TIP3   OH2 2023   3.961   4.950   4.488
  689TIP3    H1 2024   3.872   4.924   4.512
  689TIP3    H2 2025   3.957   4.961   4.393
  690TIP3   OH2 2026   6.209   5.188   4.572
  690TIP3    H1 2027   6.287   5.238   4.597
  690TIP3    H2 2028   6.238   5.135   4.497
  691TIP3   OH2 2029   1.809   1.941   1.864
  691TIP3    H1 2030   1.778   1.960   1.952
  691TIP3    H2 2031   1.861   2.018   1.840
  692TIP3   OH2 2032   0.181   3.305   3.022
  692TIP3    H1 2033   0.235   3.377   2.988
  692TIP3    H2 2034   0.098   3.314   2.976
  693TIP3   OH2 2035   0.440   1.388   0.803
  693TIP3    H1 2036   0.382   1.322   0.841
  693TIP3    H2 2037   0.519   1.384   0.857
  694TIP3   OH2 2038   7.157   7.460   1.316
  694TIP3    H1 2039   7.250   7.464   1.338
  694TIP3    H2 2040   7.145   7.526   1.248
  695TIP3   OH2 2041   0.926   7.774   4.159
  695TIP3    H1 2042   0.933   7.780   4.064
  695TIP3    H2 2043   0.851   7.718   4.176
  696TIP3   OH2 2044   2.752   5.419   6.568
  696TIP3    H1 2045   2.795   5.467   6.496
  696TIP3    H2 2046   2.823   5.373   6.612
  697TIP3   OH2 2047   1.324   5.379   4.032
  697TIP3    H1 2048   1.275   5.398   3.952
  697TIP3    H2 2049   1.280   5.430   4.100
  698TIP3   OH2 2050   7.305   1.997   4.548
  698TIP3    H1 2051   7.237   1.940   4.584
  698TIP3    H2 2052   7.365   2.011   4.621
  699TIP3   OH2 2053   7.959   0.695   4.717
  699TIP3    H1 2054   8.005   0.768   4.676
  699TIP3    H2 2055   7.926   0.644   4.644
  700TIP3   OH2 2056   6.427   0.690   4.258
  700TIP3    H1 2057   6.523   0.694   4.249
  700TIP3    H2 2058   6.409   0.741   4.337
  701TIP3   OH2 2059   6.772   6.015   2.934
  701TIP3    H1 2060   6.809   5.945   2.881
  701TIP3    H2 2061   6.844   6.076   2.947
  702TIP3   OH2 2062   4.077   3.344   0.908
  702TIP3    H1 2063   4.067   3.379   0.997
  702TIP3    H2 2064   4.169   3.361   0.886
  703TIP3   OH2 2065   7.783   4.426   6.516
  703TIP3    H1 2066   7.722   4.440   6.588
  703TIP3    H2 2067   7.735   4.370   6.455
  704TIP3   OH2 2068   3.886   7.746   0.024
  704TIP3    H1 2069   3.854   7.807  -0.043
  704TIP3    H2 2070   3.866   7.789   0.107
  705TIP3   OH2 2071   0.471   7.068   1.112
  705TIP3    H1 2072   0.402   7.129   1.138
  705TIP3    H2 2073   0.494   7.093   1.023
  706TIP3   OH2 2074   4.518   2.070   4.833
  706TIP3    H1 2075   4.423   2.061   4.820
  706TIP3    H2 2076   4.528   2.156   4.874
  707TIP3   OH2 2077   8.274   0.636   3.577
  707TIP3    H1 2078   8.269   0.572   3.648
  707TIP3    H2 2079   8.352   0.688   3.598
  708TIP3   OH2 2080   6.993   6.130   5.478
  708TIP3    H1 2081   6.988   6.080   5.560
  708TIP3    H2 2082   7.041   6.209   5.502
  709TIP3   OH2 2083   3.572   4.729   4.775
  709TIP3    H1 2084   3.644   4.704   4.717
  709TIP3    H2 2085   3.493   4.712   4.723
  710TIP3   OH2 2086   0.806   6.447   3.822
  710TIP3    H1 2087   0.899   6.429   3.808
  710TIP3    H2 2088   0.790   6.419   3.912
  711TIP3   OH2 2089   7.529   1.386   3.439
  711TIP3    H1 2090   7.527   1.436   3.357
  711TIP3    H2 2091   7.573   1.304   3.415
  712TIP3   OH2 2092   6.397   3.015   4.291
  712TIP3    H1 2093   6.431   2.931   4.322
  712TIP3    H2 2094   6.302   3.007   4.300
  713TIP3   OH2 2095   6.828   2.494   5.578
  713TIP3    H1 2096   6.762   2.509   5.646
  713TIP3    H2 2097   6.858   2.404   5.593
  714TIP3   OH2 2098   3.924   5.496   5.690
  714TIP3    H1 2099   3.891   5.586   5.684
  714TIP3    H2 2100   3.854   5.447   5.734
  715TIP3   OH2 2101   2.769   5.288   4.401
  715TIP3    H1 2102   2.852   5.241   4.415
  715TIP3    H2 2103   2.704   5.219   4.390
  716TIP3   OH2 2104   1.482   2.578   5.837
  716TIP3    H1 2105   1.521   2.542   5.757
  716TIP3    H2 2106   1.388   2.562   5.828
  717TIP3   OH2 2107   8.198   6.954   3.152
  717TIP3    H1 2108   8.141   6.996   3.087
  717TIP3    H2 2109   8.144   6.884   3.190
  718TIP3   OH2 2110   6.319   3.710   1.849
  718TIP3    H1 2111   6.307   3.769   1.774
  718TIP3    H2 2112   6.371   3.637   1.814
  719TIP3   OH2 2113   7.226   3.739   2.403
  719TIP3    H1 2114   7.164   3.667   2.399
  719TIP3    H2 2115   7.227   3.776   2.315
  720TIP3   OH2 2116   7.670   7.178   1.808
  720TIP3    H1 2117   7.582   7.141   1.816
  720TIP3    H2 2118   7.667   7.230   1.728
  721TIP3   OH2 2119   7.536   0.831   0.708
  721TIP3    H1 2120   7.534   0.926   0.695
  721TIP3    H2 2121   7.600   0.818   0.778
  722TIP3   OH2 2122   7.472   2.923   3.393
  722TIP3    H1 2123   7.453   2.925   3.299
  722TIP3    H2 2124   7.396   2.963   3.434
  723TIP3   OH2 2125   1.101   2.216   6.238
  723TIP3    H1 2126   1.027   2.216   6.177
  723TIP3    H2 2127   1.061   2.199   6.323
  724TIP3   OH2 2128   1.787   3.439   0.251
  724TIP3    H1 2129   1.718   3.379   0.281
  724TIP3    H2 2130   1.834   3.390   0.183
  725TIP3   OH2 2131   6.416   3.548   5.650
  725TIP3    H1 2132   6.359   3.623   5.632
  725TIP3    H2 2133   6.460   3.530   5.567
  726TIP3   OH2 2134   4.007   6.848   3.212
  726TIP3    H1 2135   4.055   6.822   3.291
  726TIP3    H2 2136   3.933   6.787   3.209
  727TIP3   OH2 2137   7.944   2.628   5.782
  727TIP3    H1 2138   8.021   2.684   5.770
  727TIP3    H2 2139   7.896   2.669   5.854
  728TIP3   OH2 2140   7.777   4.923   3.330
  728TIP3    H1 2141   7.870   4.901   3.326
  728TIP3    H2 2142   7.776   5.017   3.351
  729TIP3   OH2 2143   0.531   3.060   1.567
  729TIP3    H1 2144   0.477   3.045   1.490
  729TIP3    H2 2145   0.469   3.063   1.640
  730TIP3   OH2 2146   4.865   4.351   1.223
  730TIP3    H1 2147   4.884   4.411   1.151
  730TIP3    H2 2148   4.928   4.373   1.291
  731TIP3   OH2 2149   6.614   0.254   2.050
  731TIP3    H1 2150   6.626   0.255   1.955
  731TIP3    H2 2151   6.693   0.294   2.085
  732TIP3   OH2 2152   2.002   3.632   5.789
  732TIP3    H1 2153   2.006   3.599   5.879
  732TIP3    H2 2154   1.931   3.696   5.790
  733TIP3   OH2 2155   7.469   2.203   2.630
  733TIP3    H1 2156   7.462   2.124   2.684
  733TIP3    H2 2157   7.445   2.175   2.542
  734TIP3   OH2 2158   5.100   0.115   2.571
  734TIP3    H1 2159   5.157   0.149   2.641
  734TIP3    H2 2160   5.108   0.179   2.500
  735TIP3   OH2 2161   3.432   6.070   1.764
  735TIP3    H1 2162   3.388   6.154   1.773
  735TIP3    H2 2163   3.514   6.081   1.812
  736TIP3   OH2 2164   6.513   4.107   6.413
  736TIP3    H1 2165   6.468   4.141   6.336
  736TIP3    H2 2166   6.571   4.178   6.440
  737TIP3   OH2 2167   6.957   6.240   2.915
  737TIP3    H1 2168   7.030   6.180   2.929
  737TIP3    H2 2169   6.999   6.321   2.885
  738TIP3   OH2 2170   7.816   5.209   4.206
  738TIP3    H1 2171   7.888   5.261   4.170
  738TIP3    H2 2172   7.813   5.232   4.298
  739TIP3   OH2 2173   6.635   4.055   3.268
  739TIP3    H1 2174   6.717   4.037   3.221
  739TIP3    H2 2175   6.644   4.008   3.351
  740TIP3   OH2 2176   8.071   7.719   2.046
  740TIP3    H1 2177   8.140   7.675   1.996
  740TIP3    H2 2178   8.023   7.648   2.088
  741TIP3   OH2 2179   2.528   1.336   3.596
  741TIP3    H1 2180   2.535   1.241   3.589
  741TIP3    H2 2181   2.546   1.369   3.508
  742TIP3   OH2 2182   7.496   0.571   1.852
  742TIP3    H1 2183   7.560   0.624   1.900
  742TIP3    H2 2184   7.412   0.614   1.868
  743TIP3   OH2 2185   0.502   4.106   3.412
  743TIP3    H1 2186   0.422   4.158   3.406
  743TIP3    H2 2187   0.531   4.117   3.502
  744TIP3   OH2 2188   3.161   5.404   6.418
  744TIP3    H1 2189   3.130   5.375   6.333
  744TIP3    H2 2190   3.163   5.325   6.471
  745TIP3   OH2 2191   1.809   4.451   4.599
  745TIP3    H1 2192   1.732   4.398   4.575
  745TIP3    H2 2193   1.774   4.539   4.615
  746TIP3   OH2 2194   1.277   4.970   1.575
  746TIP3    H1 2195   1.353   4.926   1.537
  746TIP3    H2 2196   1.216   4.980   1.502
  747TIP3   OH2 2197   3.625   6.017   5.152
  747TIP3    H1 2198   3.644   5.928   5.121
  747TIP3    H2 2199   3.530   6.020   5.160
  748TIP3   OH2 2200   7.246   1.048   2.779
  748TIP3    H1 2201   7.244   0.989   2.703
  748TIP3    H2 2202   7.330   1.093   2.772
  749TIP3   OH2 2203   8.158   1.255   2.427
  749TIP3    H1 2204   8.077   1.204   2.437
  749TIP3    H2 2205   8.176   1.288   2.514
  750TIP3   OH2 2206   0.657   5.418   0.459
  750TIP3    H1 2207   0.562   5.423   0.468
  750TIP3    H2 2208   0.683   5.502   0.423
  751TIP3   OH2 2209   2.508   7.182   2.603
  751TIP3    H1 2210   2.521   7.196   2.696
  751TIP3    H2 2211   2.451   7.254   2.575
  752TIP3   OH2 2212   4.426   6.088   2.204
  752TIP3    H1 2213   4.349   6.081   2.261
  752TIP3    H2 2214   4.460   5.998   2.198
  753TIP3   OH2 2215   6.918   4.930   4.250
  753TIP3    H1 2216   6.989   4.985   4.218
  753TIP3    H2 2217   6.845   4.949   4.190
  754TIP3   OH2 2218   1.975   7.115   5.756
  754TIP3    H1 2219   2.052   7.084   5.805
  754TIP3    H2 2220   1.969   7.056   5.682
  755TIP3   OH2 2221   4.716   7.021   3.318
  755TIP3    H1 2222   4.785   6.981   3.264
  755TIP3    H2 2223   4.760   7.041   3.401
  756TIP3   OH2 2224   7.211   0.874   5.166
  756TIP3    H1 2225   7.300   0.862   5.131
  756TIP3    H2 2226   7.176   0.948   5.117
  757TIP3   OH2 2227   7.185   1.114   4.273
  757TIP3    H1 2228   7.250   1.086   4.208
  757TIP3    H2 2229   7.204   1.060   4.350
  758TIP3   OH2 2230   3.259   4.670   1.558
  758TIP3    H1 2231   3.164   4.666   1.545
  758TIP3    H2 2232   3.277   4.762   1.574
  759TIP3   OH2 2233   1.033   6.093   1.996
  759TIP3    H1 2234   1.016   6.168   1.939
  759TIP3    H2 2235   1.126   6.099   2.018
  760TIP3   OH2 2236   6.575   5.124   3.586
  760TIP3    H1 2237   6.577   5.074   3.504
  760TIP3    H2 2238   6.650   5.182   3.581
  761TIP3   OH2 2239   0.152   0.104   2.748
  761TIP3    H1 2240   0.177   0.031   2.803
  761TIP3    H2 2241   0.101   0.162   2.805
  762TIP3   OH2 2242   0.716   0.760   0.207
  762TIP3    H1 2243   0.757   0.757   0.293
  762TIP3    H2 2244   0.772   0.704   0.152
  763TIP3   OH2 2245   0.951   6.797   4.859
  763TIP3    H1 2246   0.919   6.835   4.777
  763TIP3    H2 2247   0.873   6.786   4.913
  764TIP3   OH2 2248   0.310   4.459   3.194
  764TIP3    H1 2249   0.307   4.466   3.099
  764TIP3    H2 2250   0.295   4.366   3.211
  765TIP3   OH2 2251   3.741   2.022   2.932
  765TIP3    H1 2252   3.679   1.950   2.936
  765TIP3    H2 2253   3.816   1.986   2.884
  766TIP3   OH2 2254   7.732   4.970   0.610
  766TIP3    H1 2255   7.694   4.955   0.523
  766TIP3    H2 2256   7.776   4.888   0.631
  767TIP3   OH2 2257   5.919   7.010   0.527
  767TIP3    H1 2258   6.000   7.060   0.523
  767TIP3    H2 2259   5.938   6.937   0.587
  768TIP3   OH2 2260   2.779   2.142   2.190
  768TIP3    H1 2261   2.688   2.158   2.217
  768TIP3    H2 2262   2.772   2.119   2.098
  769TIP3   OH2 2263   2.629   2.235   5.001
  769TIP3    H1 2264   2.660   2.322   4.979
  769TIP3    H2 2265   2.591   2.245   5.089
  770TIP3   OH2 2266   0.801   4.817   2.210
  770TIP3    H1 2267   0.772   4.726   2.214
  770TIP3    H2 2268   0.889   4.816   2.248
  771TIP3   OH2 2269   2.872   2.399   5.481
  771TIP3    H1 2270   2.783   2.433   5.470
  771TIP3    H2 2271   2.872   2.357   5.567
  772TIP3   OH2 2272   3.951   4.090   3.755
  772TIP3    H1 2273   3.929   4.009   3.801
  772TIP3    H2 2274   3.886   4.097   3.685
  773TIP3   OH2 2275   2.909   0.376   4.934
  773TIP3    H1 2276   2.837   0.335   4.982
  773TIP3    H2 2277   2.956   0.427   5.000
  774TIP3   OH2 2278   7.322   5.911   3.569
  774TIP3    H1 2279   7.234   5.920   3.606
  774TIP3    H2 2280   7.373   5.870   3.639
  775TIP3   OH2 2281   1.543   6.669   3.474
  775TIP3    H1 2282   1.511   6.579   3.465
  775TIP3    H2 2283   1.604   6.679   3.401
  776TIP3   OH2 2284   7.410   1.551   1.390
  776TIP3    H1 2285   7.344   1.559   1.321
  776TIP3    H2 2286   7.367   1.585   1.468
  777TIP3   OH2 2287   7.175   7.056   0.669
  777TIP3    H1 2288   7.195   7.107   0.591
  777TIP3    H2 2289   7.184   6.965   0.642
  778TIP3   OH2 2290   7.071   1.274   5.580
  778TIP3    H1 2291   7.013   1.247   5.651
  778TIP3    H2 2292   7.034   1.234   5.502
  779TIP3   OH2 2293   1.070   7.640   5.507
  779TIP3    H1 2294   1.068   7.605   5.418
  779TIP3    H2 2295   0.978   7.642   5.533
  780TIP3   OH2 2296   6.146   0.652   3.665
  780TIP3    H1 2297   6.066   0.632   3.712
  780TIP3    H2 2298   6.200   0.574   3.674
  781TIP3   OH2 2299   7.245   1.206   5.147
  781TIP3    H1 2300   7.210   1.272   5.206
  781TIP3    H2 2301   7.321   1.170   5.194
  782TIP3   OH2 2302   4.052   1.843   3.205
  782TIP3    H1 2303   4.075   1.806   3.120
  782TIP3    H2 2304   4.029   1.934   3.186
  783TIP3   OH2 2305   3.848   3.046   2.319
  783TIP3    H1 2306   3.756   3.070   2.326
  783TIP3    H2 2307   3.866   3.044   2.225
  784TIP3   OH2 2308   5.905   5.255   1.382
  784TIP3    H1 2309   5.896   5.336   1.432
  784TIP3    H2 2310   6.000   5.243   1.373
  785TIP3   OH2 2311   1.708   5.449   3.009
  785TIP3    H1 2312   1.759   5.380   3.051
  785TIP3    H2 2313   1.617   5.418   3.012
  786TIP3   OH2 2314   7.853   5.554   0.556
  786TIP3    H1 2315   7.837   5.645   0.532
  786TIP3    H2 2316   7.844   5.552   0.651
  787TIP3   OH2 2317   7.246   2.717   5.118
  787TIP3    H1 2318   7.229   2.714   5.212
  787TIP3    H2 2319   7.168   2.680   5.078
  788TIP3   OH2 2320   0.119   6.765   4.313
  788TIP3    H1 2321   0.031   6.745   4.343
  788TIP3    H2 2322   0.172   6.690   4.341
  789TIP3   OH2 2323   2.708   6.773   4.587
  789TIP3    H1 2324   2.703   6.812   4.500
  789TIP3    H2 2325   2.618   6.746   4.606
  790TIP3   OH2 2326   0.973   1.367   2.712
  790TIP3    H1 2327   0.996   1.298   2.774
  790TIP3    H2 2328   0.889   1.400   2.743
  791TIP3   OH2 2329   4.453   4.215   4.611
  791TIP3    H1 2330   4.454   4.224   4.516
  791TIP3    H2 2331   4.388   4.278   4.641
  792TIP3   OH2 2332   0.865   1.292   3.635
  792TIP3    H1 2333   0.943   1.302   3.579
  792TIP3    H2 2334   0.849   1.380   3.669
  793TIP3   OH2 2335   7.774   2.498   2.315
  793TIP3    H1 2336   7.691   2.546   2.304
  793TIP3    H2 2337   7.825   2.519   2.237
  794TIP3   OH2 2338   3.038   4.812   0.699
  794TIP3    H1 2339   3.046   4.718   0.678
  794TIP3    H2 2340   2.999   4.813   0.786
  795TIP3   OH2 2341   5.176   1.386   4.923
  795TIP3    H1 2342   5.117   1.399   4.997
  795TIP3    H2 2343   5.207   1.296   4.933
  796TIP3   OH2 2344   5.179   4.893   1.326
  796TIP3    H1 2345   5.163   4.801   1.345
  796TIP3    H2 2346   5.161   4.938   1.409
  797TIP3   OH2 2347   3.823   7.393   5.061
  797TIP3    H1 2348   3.899   7.413   5.005
  797TIP3    H2 2349   3.758   7.458   5.035
  798TIP3   OH2 2350   1.636   7.316   6.570
  798TIP3    H1 2351   1.640   7.265   6.651
  798TIP3    H2 2352   1.589   7.396   6.594
  799TIP3   OH2 2353   7.419   5.902   0.639
  799TIP3    H1 2354   7.355   5.968   0.614
  799TIP3    H2 2355   7.462   5.938   0.717
  800TIP3   OH2 2356   5.097   0.062   0.645
  800TIP3    H1 2357   5.106   0.028   0.556
  800TIP3    H2 2358   5.069   0.152   0.634
  801TIP3   OH2 2359   6.617   2.922   4.765
  801TIP3    H1 2360   6.566   2.935   4.685
  801TIP3    H2 2361   6.570   2.854   4.813
  802TIP3   OH2 2362   6.589   5.769   6.738
  802TIP3    H1 2363   6.644   5.713   6.793
  802TIP3    H2 2364   6.647   5.797   6.667
  803TIP3   OH2 2365   4.975   7.193   1.812
  803TIP3    H1 2366   4.891   7.180   1.856
  803TIP3    H2 2367   4.979   7.286   1.794
  804TIP3   OH2 2368   2.535   5.614   1.691
  804TIP3    H1 2369   2.444   5.629   1.668
  804TIP3    H2 2370   2.541   5.641   1.783
  805TIP3   OH2 2371   6.061   0.773   3.423
  805TIP3    H1 2372   6.101   0.726   3.497
  805TIP3    H2 2373   6.079   0.865   3.441
  806TIP3   OH2 2374   8.242   0.866   6.198
  806TIP3    H1 2375   8.285   0.889   6.116
  806TIP3    H2 2376   8.165   0.816   6.172
  807TIP3   OH2 2377   3.964   6.147   0.388
  807TIP3    H1 2378   3.926   6.111   0.308
  807TIP3    H2 2379   3.896   6.135   0.454
  808TIP3   OH2 2380   7.790   1.686   2.830
  808TIP3    H1 2381   7.756   1.730   2.752
  808TIP3    H2 2382   7.880   1.664   2.809
  809TIP3   OH2 2383   3.633   0.968   6.012
  809TIP3    H1 2384   3.705   0.910   6.036
  809TIP3    H2 2385   3.554   0.923   6.044
  810TIP3   OH2 2386   6.803   7.646   3.080
  810TIP3    H1 2387   6.790   7.562   3.123
  810TIP3    H2 2388   6.790   7.628   2.987
  811TIP3   OH2 2389   2.513   7.345   1.833
  811TIP3    H1 2390   2.534   7.436   1.854
  811TIP3    H2 2391   2.436   7.351   1.776
  812TIP3   OH2 2392   5.114   6.667   3.480
  812TIP3    H1 2393   5.109   6.720   3.560
  812TIP3    H2 2394   5.205   6.674   3.452
  813TIP3   OH2 2395   7.772   0.535   0.805
  813TIP3    H1 2396   7.778   0.443   0.829
  813TIP3    H2 2397   7.678   0.551   0.795
  814TIP3   OH2 2398   7.733   5.397   0.032
  814TIP3    H1 2399   7.810   5.452   0.019
  814TIP3    H2 2400   7.761   5.310   0.002
  815TIP3   OH2 2401   1.533   5.901   0.434
  815TIP3    H1 2402   1.447   5.914   0.395
  815TIP3    H2 2403   1.553   5.809   0.416
  816TIP3   OH2 2404   7.988   0.888   4.184
  816TIP3    H1 2405   8.077   0.920   4.173
  816TIP3    H2 2406   7.994   0.793   4.168
  817TIP3   OH2 2407   0.954   1.001   0.155
  817TIP3    H1 2408   0.897   1.076   0.139
  817TIP3    H2 2409   0.967   0.963   0.068
  818TIP3   OH2 2410   5.932   5.949   3.678
  818TIP3    H1 2411   6.017   5.908   3.694
  818TIP3    H2 2412   5.925   5.953   3.583
  819TIP3   OH2 2413   3.478   4.851   5.290
  819TIP3    H1 2414   3.479   4.859   5.194
  819TIP3    H2 2415   3.396   4.894   5.316
  820TIP3   OH2 2416   5.229   6.095   0.427
  820TIP3    H1 2417   5.173   6.055   0.493
  820TIP3    H2 2418   5.183   6.080   0.344
  821TIP3   OH2 2419   6.404   4.242   5.315
  821TIP3    H1 2420   6.426   4.334   5.306
  821TIP3    H2 2421   6.418   4.205   5.228
  822TIP3   OH2 2422   0.257   1.185   5.320
  822TIP3    H1 2423   0.177   1.159   5.275
  822TIP3    H2 2424   0.328   1.151   5.266
  823TIP3   OH2 2425   0.099   1.061   3.490
  823TIP3    H1 2426   0.027   1.091   3.545
  823TIP3    H2 2427   0.146   1.142   3.467
  824TIP3   OH2 2428   0.824   0.321   0.505
  824TIP3    H1 2429   0.824   0.397   0.564
  824TIP3    H2 2430   0.911   0.283   0.516
  825TIP3   OH2 2431   2.057   4.601   0.933
  825TIP3    H1 2432   1.970   4.561   0.924
  825TIP3    H2 2433   2.103   4.547   0.996
  826TIP3   OH2 2434   2.198   5.195   4.100
  826TIP3    H1 2435   2.260   5.199   4.173
  826TIP3    H2 2436   2.186   5.286   4.075
  827TIP3   OH2 2437   0.113   6.844   1.116
  827TIP3    H1 2438   0.130   6.911   1.050
  827TIP3    H2 2439   0.194   6.840   1.168
  828TIP3   OH2 2440   5.416   4.580   6.492
  828TIP3    H1 2441   5.361   4.623   6.559
  828TIP3    H2 2442   5.370   4.596   6.410
  829TIP3   OH2 2443   4.395   5.315   1.055
  829TIP3    H1 2444   4.416   5.372   0.981
  829TIP3    H2 2445   4.366   5.233   1.015
  830TIP3   OH2 2446   6.855   1.209   5.097
  830TIP3    H1 2447   6.796   1.134   5.094
  830TIP3    H2 2448   6.877   1.225   5.005
  831TIP3   OH2 2449   5.536   6.425   1.601
  831TIP3    H1 2450   5.561   6.372   1.677
  831TIP3    H2 2451   5.573   6.378   1.526
  832TIP3   OH2 2452   1.581   1.530   3.114
  832TIP3    H1 2453   1.623   1.577   3.186
  832TIP3    H2 2454   1.565   1.442   3.149
  833TIP3   OH2 2455   1.863   5.458   3.526
  833TIP3    H1 2456   1.818   5.383   3.565
  833TIP3    H2 2457   1.799   5.495   3.465
  834TIP3   OH2 2458   6.068   7.536   6.264
  834TIP3    H1 2459   6.137   7.472   6.247
  834TIP3    H2 2460   6.091   7.610   6.207
  835TIP3   OH2 2461   3.205   5.491   2.818
  835TIP3    H1 2462   3.114   5.518   2.829
  835TIP3    H2 2463   3.219   5.423   2.883
  836TIP3   OH2 2464   3.879   4.398   1.941
  836TIP3    H1 2465   3.843   4.451   2.011
  836TIP3    H2 2466   3.814   4.403   1.871
  837TIP3   OH2 2467   4.525   3.156   1.822
  837TIP3    H1 2468   4.491   3.135   1.735
  837TIP3    H2 2469   4.489   3.088   1.878
  838TIP3   OH2 2470   0.926   0.775   3.561
  838TIP3    H1 2471   0.871   0.721   3.618
  838TIP3    H2 2472   0.875   0.855   3.547
  839TIP3   OH2 2473   1.685   7.776   6.422
  839TIP3    H1 2474   1.720   7.821   6.499
  839TIP3    H2 2475   1.591   7.790   6.427
  840TIP3   OH2 2476   6.930   2.000   1.841
  840TIP3    H1 2477   6.947   1.918   1.888
  840TIP3    H2 2478   6.976   2.067   1.892
  841TIP3   OH2 2479   5.465   4.578   3.474
  841TIP3    H1 2480   5.555   4.546   3.481
  841TIP3    H2 2481   5.411   4.504   3.502
  842TIP3   OH2 2482   3.832   2.411   2.033
  842TIP3    H1 2483   3.814   2.413   1.939
  842TIP3    H2 2484   3.769   2.472   2.070
  843TIP3   OH2 2485   6.585   4.531   4.497
  843TIP3    H1 2486   6.617   4.605   4.549
  843TIP3    H2 2487   6.661   4.503   4.446
  844TIP3   OH2 2488   4.888   6.516   5.341
  844TIP3    H1 2489   4.830   6.592   5.344
  844TIP3    H2 2490   4.922   6.508   5.429
  845TIP3   OH2 2491   3.818   6.202   6.183
  845TIP3    H1 2492   3.887   6.161   6.131
  845TIP3    H2 2493   3.795   6.136   6.249
  846TIP3   OH2 2494   0.480   3.195   4.202
  846TIP3    H1 2495   0.459   3.177   4.111
  846TIP3    H2 2496   0.400   3.231   4.240
  847TIP3   OH2 2497   0.593   5.029   3.897
  847TIP3    H1 2498   0.671   5.085   3.899
  847TIP3    H2 2499   0.529   5.079   3.847
  848TIP3   OH2 2500   4.945   1.068   5.180
  848TIP3    H1 2501   4.878   1.132   5.205
  848TIP3    H2 2502   4.951   1.009   5.255
  849TIP3   OH2 2503   6.155   6.667   4.630
  849TIP3    H1 2504   6.075   6.617   4.620
  849TIP3    H2 2505   6.182   6.652   4.720
  850TIP3   OH2 2506   0.107   4.307   2.138
  850TIP3    H1 2507   0.101   4.320   2.043
  850TIP3    H2 2508   0.173   4.239   2.148
  851TIP3   OH2 2509   4.731   2.680   4.140
  851TIP3    H1 2510   4.771   2.627   4.209
  851TIP3    H2 2511   4.683   2.749   4.186
  852TIP3   OH2 2512   5.425   0.459   0.632
  852TIP3    H1 2513   5.486   0.532   0.630
  852TIP3    H2 2514   5.419   0.429   0.542
  853TIP3   OH2 2515   7.005   5.602   5.674
  853TIP3    H1 2516   6.924   5.597   5.725
  853TIP3    H2 2517   7.034   5.511   5.667
  854TIP3   OH2 2518   3.319   1.366   5.291
  854TIP3    H1 2519   3.304   1.315   5.371
  854TIP3    H2 2520   3.394   1.422   5.313
  855TIP3   OH2 2521   2.569   0.147   4.763
  855TIP3    H1 2522   2.594   0.164   4.672
  855TIP3    H2 2523   2.560   0.052   4.767
  856TIP3   OH2 2524   0.059   2.698   6.604
  856TIP3    H1 2525   0.088   2.777   6.559
  856TIP3    H2 2526  -0.025   2.676   6.564
  857TIP3   OH2 2527   6.053   1.000   6.763
  857TIP3    H1 2528   5.991   0.928   6.779
  857TIP3    H2 2529   6.138   0.957   6.758
  858TIP3   OH2 2530   7.229   2.343   2.152
  858TIP3    H1 2531   7.180   2.263   2.134
  858TIP3    H2 2532   7.321   2.315   2.150
  859TIP3   OH2 2533   4.197   6.281   5.203
  859TIP3    H1 2534   4.133   6.215   5.231
  859TIP3    H2 2535   4.156   6.364   5.226
  860TIP3   OH2 2536   3.738   5.396   2.600
  860TIP3    H1 2537   3.740   5.385   2.695
  860TIP3    H2 2538   3.645   5.384   2.577
  861TIP3   OH2 2539   1.166   5.028   6.502
  861TIP3    H1 2540   1.188   4.983   6.420
  861TIP3    H2 2541   1.227   5.102   6.506
  862TIP3   OH2 2542   6.659   7.368   5.238
  862TIP3    H1 2543   6.601   7.294   5.223
  862TIP3    H2 2544   6.747   7.333   5.226
  863TIP3   OH2 2545   7.732   1.846   6.157
  863TIP3    H1 2546   7.749   1.880   6.069
  863TIP3    H2 2547   7.811   1.797   6.179
  864TIP3   OH2 2548   7.551   1.539   4.232
  864TIP3    H1 2549   7.640   1.547   4.267
  864TIP3    H2 2550   7.539   1.617   4.178
  865TIP3   OH2 2551   6.955   0.402   3.686
  865TIP3    H1 2552   6.883   0.409   3.749
  865TIP3    H2 2553   6.918   0.354   3.612
  866TIP3   OH2 2554   1.430   4.692   4.548
  866TIP3    H1 2555   1.421   4.600   4.575
  866TIP3    H2 2556   1.384   4.741   4.615
  867TIP3   OH2 2557   4.633   5.231   5.406
  867TIP3    H1 2558   4.562   5.194   5.458
  867TIP3    H2 2559   4.648   5.318   5.442
  868TIP3   OH2 2560   5.041   3.220   2.209
  868TIP3    H1 2561   5.120   3.264   2.178
  868TIP3    H2 2562   4.969   3.268   2.168
  869TIP3   OH2 2563   0.284   6.451   2.983
  869TIP3    H1 2564   0.341   6.524   3.007
  869TIP3    H2 2565   0.311   6.380   3.040
  870TIP3   OH2 2566   5.773   6.494   5.875
  870TIP3    H1 2567   5.717   6.569   5.858
  870TIP3    H2 2568   5.858   6.531   5.899
  871TIP3   OH2 2569   5.353   5.217   6.298
  871TIP3    H1 2570   5.393   5.302   6.280
  871TIP3    H2 2571   5.304   5.231   6.379
  872TIP3   OH2 2572   5.210   4.775   0.127
  872TIP3    H1 2573   5.238   4.689   0.161
  872TIP3    H2 2574   5.200   4.761   0.033
  873TIP3   OH2 2575   0.248   6.444   6.518
  873TIP3    H1 2576   0.227   6.522   6.570
  873TIP3    H2 2577   0.325   6.407   6.560
  874TIP3   OH2 2578   1.521   1.099   0.387
  874TIP3    H1 2579   1.514   1.192   0.408
  874TIP3    H2 2580   1.604   1.071   0.428
  875TIP3   OH2 2581   3.952   3.986   2.623
  875TIP3    H1 2582   3.970   3.918   2.688
  875TIP3    H2 2583   3.888   4.043   2.666
  876TIP3   OH2 2584   4.672   2.021   1.516
  876TIP3    H1 2585   4.734   1.949   1.522
  876TIP3    H2 2586   4.725   2.100   1.529
  877TIP3   OH2 2587   4.076   7.426   0.598
  877TIP3    H1 2588   4.111   7.474   0.524
  877TIP3    H2 2589   4.038   7.347   0.560
  878TIP3   OH2 2590   1.737   7.252   3.045
  878TIP3    H1 2591   1.793   7.177   3.065
  878TIP3    H2 2592   1.700   7.231   2.959
  879TIP3   OH2 2593   5.906   5.471   5.170
  879TIP3    H1 2594   5.820   5.453   5.209
  879TIP3    H2 2595   5.891   5.464   5.076
  880TIP3   OH2 2596   3.992   3.689   3.310
  880TIP3    H1 2597   3.901   3.716   3.316
  880TIP3    H2 2598   4.039   3.767   3.280
  881TIP3   OH2 2599   4.324   0.015   2.241
  881TIP3    H1 2600   4.310  -0.057   2.302
  881TIP3    H2 2601   4.260   0.081   2.266
  882TIP3   OH2 2602   0.462   1.938   5.457
  882TIP3    H1 2603   0.483   2.014   5.511
  882TIP3    H2 2604   0.442   1.869   5.520
  883TIP3   OH2 2605   5.649   2.607   4.386
  883TIP3    H1 2606   5.665   2.603   4.480
  883TIP3    H2 2607   5.589   2.681   4.374
  884TIP3   OH2 2608   1.799   6.602   6.595
  884TIP3    H1 2609   1.726   6.625   6.653
  884TIP3    H2 2610   1.832   6.687   6.565
  885TIP3   OH2 2611   7.647   4.980   4.744
  885TIP3    H1 2612   7.623   5.028   4.665
  885TIP3    H2 2613   7.739   5.002   4.758
  886TIP3   OH2 2614   5.687   5.544   4.302
  886TIP3    H1 2615   5.725   5.474   4.353
  886TIP3    H2 2616   5.716   5.624   4.345
  887TIP3   OH2 2617   0.376   2.360   3.346
  887TIP3    H1 2618   0.323   2.286   3.318
  887TIP3    H2 2619   0.343   2.434   3.295
  888TIP3   OH2 2620   7.322   4.685   3.346
  888TIP3    H1 2621   7.228   4.683   3.362
  888TIP3    H2 2622   7.340   4.605   3.296
  889TIP3   OH2 2623   6.358   2.162   3.760
  889TIP3    H1 2624   6.382   2.069   3.768
  889TIP3    H2 2625   6.328   2.171   3.670
  890TIP3   OH2 2626   6.752   6.902   3.431
  890TIP3    H1 2627   6.783   6.837   3.368
  890TIP3    H2 2628   6.832   6.936   3.472
  891TIP3   OH2 2629   3.186   3.637   3.922
  891TIP3    H1 2630   3.154   3.604   4.006
  891TIP3    H2 2631   3.165   3.568   3.859
  892TIP3   OH2 2632   3.254   7.367   3.473
  892TIP3    H1 2633   3.250   7.369   3.569
  892TIP3    H2 2634   3.170   7.402   3.445
  893TIP3   OH2 2635   7.463   5.575   3.259
  893TIP3    H1 2636   7.523   5.521   3.208
  893TIP3    H2 2637   7.387   5.587   3.202
  894TIP3   OH2 2638   7.860   5.557   1.864
  894TIP3    H1 2639   7.785   5.502   1.841
  894TIP3    H2 2640   7.821   5.631   1.910
  895TIP3   OH2 2641   6.652   2.713   5.116
  895TIP3    H1 2642   6.654   2.667   5.200
  895TIP3    H2 2643   6.740   2.704   5.081
  896TIP3   OH2 2644   4.358   0.923   6.615
  896TIP3    H1 2645   4.304   0.845   6.621
  896TIP3    H2 2646   4.448   0.892   6.623
  897TIP3   OH2 2647   5.819   1.096   3.061
  897TIP3    H1 2648   5.885   1.162   3.039
  897TIP3    H2 2649   5.739   1.147   3.076
  898TIP3   OH2 2650   6.049   6.461   2.665
  898TIP3    H1 2651   6.137   6.424   2.673
  898TIP3    H2 2652   5.998   6.393   2.621
  899TIP3   OH2 2653   4.274   7.491   0.776
  899TIP3    H1 2654   4.202   7.445   0.733
  899TIP3    H2 2655   4.349   7.478   0.717
  900TIP3   OH2 2656   0.115   2.448   4.021
  900TIP3    H1 2657   0.174   2.507   4.067
  900TIP3    H2 2658   0.173   2.397   3.964
  901TIP3   OH2 2659   1.895   0.384   1.647
  901TIP3    H1 2660   1.901   0.474   1.677
  901TIP3    H2 2661   1.960   0.377   1.577
  902TIP3   OH2 2662   3.389   6.635   0.243
  902TIP3    H1 2663   3.425   6.690   0.312
  902TIP3    H2 2664   3.322   6.583   0.287
  903TIP3   OH2 2665   3.381   5.261   1.335
  903TIP3    H1 2666   3.355   5.287   1.247
  903TIP3    H2 2667   3.299   5.253   1.383
  904TIP3   OH2 2668   0.910   5.133   4.952
  904TIP3    H1 2669   0.916   5.220   4.989
  904TIP3    H2 2670   1.001   5.107   4.936
  905TIP3   OH2 2671   2.404   3.851   6.150
  905TIP3    H1 2672   2.318   3.852   6.107
  905TIP3    H2 2673   2.384   3.853   6.243
  906TIP3   OH2 2674   8.226   2.204   0.298
  906TIP3    H1 2675   8.196   2.115   0.278
  906TIP3    H2 2676   8.304   2.216   0.245
  907TIP3   OH2 2677   6.213   5.726   2.082
  907TIP3    H1 2678   6.169   5.642   2.081
  907TIP3    H2 2679   6.193   5.763   2.168
  908TIP3   OH2 2680   2.723   2.532   0.396
  908TIP3    H1 2681   2.725   2.477   0.475
  908TIP3    H2 2682   2.704   2.471   0.325
  909TIP3   OH2 2683   6.386   5.050   5.460
  909TIP3    H1 2684   6.363   5.115   5.526
  909TIP3    H2 2685   6.369   5.095   5.376
  910TIP3   OH2 2686   8.010   0.366   5.762
  910TIP3    H1 2687   8.059   0.310   5.823
  910TIP3    H2 2688   8.025   0.326   5.676
  911TIP3   OH2 2689   1.817   6.859   5.335
  911TIP3    H1 2690   1.730   6.835   5.367
  911TIP3    H2 2691   1.831   6.803   5.259
  912TIP3   OH2 2692   1.663   0.848   4.309
  912TIP3    H1 2693   1.665   0.752   4.312
  912TIP3    H2 2694   1.646   0.868   4.217
  913TIP3   OH2 2695   5.785   0.756   3.479
  913TIP3    H1 2696   5.791   0.823   3.547
  913TIP3    H2 2697   5.875   0.744   3.449
  914TIP3   OH2 2698   6.714   1.302   0.320
  914TIP3    H1 2699   6.793   1.263   0.358
  914TIP3    H2 2700   6.668   1.228   0.280
  915TIP3   OH2 2701   5.245   7.041   5.016
  915TIP3    H1 2702   5.300   7.115   4.988
  915TIP3    H2 2703   5.306   6.981   5.058
  916TIP3   OH2 2704   1.378   3.574   3.318
  916TIP3    H1 2705   1.366   3.668   3.302
  916TIP3    H2 2706   1.438   3.570   3.392
  917TIP3   OH2 2707   5.653   3.879   1.196
  917TIP3    H1 2708   5.663   3.914   1.284
  917TIP3    H2 2709   5.628   3.787   1.209
  918TIP3   OH2 2710   7.803   1.804   3.740
  918TIP3    H1 2711   7.800   1.869   3.810
  918TIP3    H2 2712   7.846   1.728   3.780
  919TIP3   OH2 2713   4.731   1.985   0.891
  919TIP3    H1 2714   4.747   1.901   0.849
  919TIP3    H2 2715   4.752   1.971   0.983
  920TIP3   OH2 2716   6.704   1.969   5.106
  920TIP3    H1 2717   6.790   1.956   5.146
  920TIP3    H2 2718   6.724   1.994   5.015
  921TIP3   OH2 2719   5.880   4.986   1.372
  921TIP3    H1 2720   5.809   4.972   1.309
  921TIP3    H2 2721   5.884   5.081   1.383
  922TIP3   OH2 2722   0.687   5.283   3.627
  922TIP3    H1 2723   0.704   5.365   3.582
  922TIP3    H2 2724   0.691   5.305   3.720
  923TIP3   OH2 2725   7.057   5.291   5.598
  923TIP3    H1 2726   6.965   5.285   5.622
  923TIP3    H2 2727   7.103   5.245   5.667
  924TIP3   OH2 2728   2.212   5.406   2.438
  924TIP3    H1 2729   2.214   5.444   2.350
  924TIP3    H2 2730   2.130   5.437   2.476
  925TIP3   OH2 2731   4.599   4.948   2.715
  925TIP3    H1 2732   4.522   4.990   2.752
  925TIP3    H2 2733   4.566   4.869   2.674
  926TIP3   OH2 2734   7.681   1.425   2.800
  926TIP3    H1 2735   7.709   1.506   2.842
  926TIP3    H2 2736   7.753   1.402   2.741
  927TIP3   OH2 2737   0.385   1.449   3.083
  927TIP3    H1 2738   0.372   1.542   3.066
  927TIP3    H2 2739   0.409   1.445   3.176
  928TIP3   OH2 2740   0.449   3.215   0.208
  928TIP3    H1 2741   0.424   3.165   0.286
  928TIP3    H2 2742   0.478   3.148   0.146
  929TIP3   OH2 2743   4.670   4.897   1.558
  929TIP3    H1 2744   4.593   4.857   1.600
  929TIP3    H2 2745   4.634   4.955   1.492
  930TIP3   OH2 2746   1.398   5.204   6.141
  930TIP3    H1 2747   1.378   5.285   6.189
  930TIP3    H2 2748   1.489   5.185   6.165
  931TIP3   OH2 2749   5.731   7.798   2.993
  931TIP3    H1 2750   5.670   7.742   2.944
  931TIP3    H2 2751   5.694   7.801   3.081
  932TIP3   OH2 2752   2.520   2.400   4.444
  932TIP3    H1 2753   2.494   2.443   4.526
  932TIP3    H2 2754   2.455   2.427   4.380
  933TIP3   OH2 2755   2.431   0.780   6.639
  933TIP3    H1 2756   2.383   0.841   6.583
  933TIP3    H2 2757   2.520   0.817   6.644
  934TIP3   OH2 2758   4.464   6.510   5.845
  934TIP3    H1 2759   4.388   6.559   5.814
  934TIP3    H2 2760   4.486   6.551   5.929
  935TIP3   OH2 2761   2.438   0.884   1.327
  935TIP3    H1 2762   2.481   0.884   1.241
  935TIP3    H2 2763   2.363   0.942   1.317
  936TIP3   OH2 2764   1.963   2.119   5.883
  936TIP3    H1 2765   1.958   2.200   5.934
  936TIP3    H2 2766   2.047   2.080   5.909
  937TIP3   OH2 2767   3.520   0.369   4.360
  937TIP3    H1 2768   3.425   0.358   4.366
  937TIP3    H2 2769   3.555   0.280   4.366
  938TIP3   OH2 2770   6.988   5.695   4.351
  938TIP3    H1 2771   6.948   5.748   4.283
  938TIP3    H2 2772   7.026   5.758   4.412
  939TIP3   OH2 2773   7.256   6.791   5.177
  939TIP3    H1 2774   7.174   6.749   5.206
  939TIP3    H2 2775   7.240   6.814   5.086
  940TIP3   OH2 2776   4.687   3.781   3.948
  940TIP3    H1 2777   4.739   3.813   4.022
  940TIP3    H2 2778   4.717   3.834   3.874
  941TIP3   OH2 2779   4.485   3.408   5.979
  941TIP3    H1 2780   4.410   3.467   5.981
  941TIP3    H2 2781   4.461   3.336   6.037
  942TIP3   OH2 2782   3.891   2.493   1.502
  942TIP3    H1 2783   3.855   2.432   1.567
  942TIP3    H2 2784   3.824   2.498   1.434
  943TIP3   OH2 2785   4.627   5.010   0.256
  943TIP3    H1 2786   4.575   4.959   0.318
  943TIP3    H2 2787   4.677   4.944   0.208
  944TIP3   OH2 2788   3.030   4.253   6.565
  944TIP3    H1 2789   3.088   4.204   6.507
  944TIP3    H2 2790   3.006   4.191   6.633
  945TIP3   OH2 2791   0.317   2.445   4.849
  945TIP3    H1 2792   0.410   2.426   4.845
  945TIP3    H2 2793   0.302   2.476   4.939
  946TIP3   OH2 2794   6.194   0.771   4.674
  946TIP3    H1 2795   6.163   0.691   4.633
  946TIP3    H2 2796   6.142   0.841   4.633
  947TIP3   OH2 2797   3.111   3.890   1.279
  947TIP3    H1 2798   3.199   3.906   1.313
  947TIP3    H2 2799   3.071   3.830   1.342
  948TIP3   OH2 2800   3.304   3.939   0.669
  948TIP3    H1 2801   3.382   3.892   0.639
  948TIP3    H2 2802   3.276   3.891   0.748
  949TIP3   OH2 2803   5.522   7.465   2.156
  949TIP3    H1 2804   5.460   7.445   2.086
  949TIP3    H2 2805   5.557   7.551   2.133
  950TIP3   OH2 2806   6.040   3.685   6.103
  950TIP3    H1 2807   6.096   3.670   6.027
  950TIP3    H2 2808   6.008   3.597   6.126
  951TIP3   OH2 2809   4.199   0.396   0.887
  951TIP3    H1 2810   4.279   0.362   0.845
  951TIP3    H2 2811   4.147   0.318   0.906
  952TIP3   OH2 2812   4.091   4.523   0.353
  952TIP3    H1 2813   4.165   4.537   0.412
  952TIP3    H2 2814   4.022   4.488   0.408
  953TIP3   OH2 2815   2.917   6.974   4.611
  953TIP3    H1 2816   2.857   7.030   4.563
  953TIP3    H2 2817   2.869   6.891   4.621
  954TIP3   OH2 2818   4.679   5.500   0.585
  954TIP3    H1 2819   4.755   5.443   0.571
  954TIP3    H2 2820   4.715   5.588   0.588
  955TIP3   OH2 2821   6.390   3.648   5.037
  955TIP3    H1 2822   6.422   3.558   5.037
  955TIP3    H2 2823   6.300   3.641   5.068
  956TIP3   OH2 2824   3.340   0.678   0.373
  956TIP3    H1 2825   3.338   0.692   0.278
  956TIP3    H2 2826   3.333   0.583   0.383
  957TIP3   OH2 2827   6.337   4.742   4.500
  957TIP3    H1 2828   6.422   4.716   4.537
  957TIP3    H2 2829   6.336   4.705   4.412
  958TIP3   OH2 2830   2.525   0.738   0.223
  958TIP3    H1 2831   2.449   0.680   0.228
  958TIP3    H2 2832   2.558   0.727   0.134
  959TIP3   OH2 2833   2.877   3.027   4.799
  959TIP3    H1 2834   2.958   2.977   4.804
  959TIP3    H2 2835   2.808   2.961   4.805
  960TIP3   OH2 2836   1.195   3.558   0.734
  960TIP3    H1 2837   1.195   3.476   0.685
  960TIP3    H2 2838   1.261   3.612   0.691
  961TIP3   OH2 2839   0.271   7.693   6.426
  961TIP3    H1 2840   0.353   7.681   6.473
  961TIP3    H2 2841   0.217   7.747   6.484
  962TIP3   OH2 2842   3.612   4.145   0.677
  962TIP3    H1 2843   3.594   4.059   0.641
  962TIP3    H2 2844   3.528   4.174   0.712
  963TIP3   OH2 2845   4.084   6.825   4.871
  963TIP3    H1 2846   4.045   6.750   4.916
  963TIP3    H2 2847   4.019   6.894   4.879
  964TIP3   OH2 2848   7.402   5.246   2.165
  964TIP3    H1 2849   7.326   5.232   2.222
  964TIP3    H2 2850   7.393   5.336   2.134
  965TIP3   OH2 2851   0.866   2.192   3.999
  965TIP3    H1 2852   0.910   2.155   4.075
  965TIP3    H2 2853   0.783   2.145   3.992
  966TIP3   OH2 2854   5.502   3.260   3.326
  966TIP3    H1 2855   5.429   3.313   3.295
  966TIP3    H2 2856   5.493   3.259   3.421
  967TIP3   OH2 2857   7.181   4.761   4.509
  967TIP3    H1 2858   7.268   4.759   4.548
  967TIP3    H2 2859   7.127   4.705   4.565
  968TIP3   OH2 2860   1.154   5.620   0.222
  968TIP3    H1 2861   1.106   5.660   0.150
  968TIP3    H2 2862   1.199   5.546   0.183
  969TIP3   OH2 2863   3.055   6.175   6.347
  969TIP3    H1 2864   3.096   6.250   6.306
  969TIP3    H2 2865   3.128   6.127   6.387
  970TIP3   OH2 2866   5.204   6.247   5.433
  970TIP3    H1 2867   5.130   6.230   5.491
  970TIP3    H2 2868   5.267   6.295   5.487
  971TIP3   OH2 2869   2.540   1.804   3.888
  971TIP3    H1 2870   2.524   1.719   3.929
  971TIP3    H2 2871   2.512   1.868   3.954
  972TIP3   OH2 2872   0.139   7.481   0.889
  972TIP3    H1 2873   0.175   7.513   0.807
  972TIP3    H2 2874   0.165   7.389   0.893
  973TIP3   OH2 2875   1.259   3.397   4.347
  973TIP3    H1 2876   1.168   3.418   4.367
  973TIP3    H2 2877   1.286   3.464   4.285
  974TIP3   OH2 2878   6.730   6.017   0.871
  974TIP3    H1 2879   6.771   5.946   0.920
  974TIP3    H2 2880   6.710   5.978   0.785
  975TIP3   OH2 2881   0.438   5.291   4.836
  975TIP3    H1 2882   0.501   5.364   4.832
  975TIP3    H2 2883   0.410   5.289   4.927
  976TIP3   OH2 2884   3.645   3.470   3.258
  976TIP3    H1 2885   3.581   3.541   3.260
  976TIP3    H2 2886   3.706   3.491   3.328
  977TIP3   OH2 2887   5.064   3.213   3.335
  977TIP3    H1 2888   5.081   3.296   3.290
  977TIP3    H2 2889   5.013   3.161   3.272
  978TIP3   OH2 2890   3.182   7.683   5.598
  978TIP3    H1 2891   3.135   7.758   5.635
  978TIP3    H2 2892   3.152   7.608   5.649
  979TIP3   OH2 2893   1.288   5.990   5.068
  979TIP3    H1 2894   1.222   6.039   5.019
  979TIP3    H2 2895   1.296   5.907   5.021
  980TIP3   OH2 2896   5.311   6.569   1.571
  980TIP3    H1 2897   5.300   6.631   1.498
  980TIP3    H2 2898   5.402   6.542   1.565
  981TIP3   OH2 2899   4.032   2.145   3.609
  981TIP3    H1 2900   3.977   2.098   3.547
  981TIP3    H2 2901   3.978   2.218   3.639
  982TIP3   OH2 2902   8.089   6.522   0.930
  982TIP3    H1 2903   8.029   6.536   0.857
  982TIP3    H2 2904   8.156   6.464   0.894
  983TIP3   OH2 2905   5.747   7.221   5.553
  983TIP3    H1 2906   5.825   7.248   5.504
  983TIP3    H2 2907   5.696   7.301   5.563
  984TIP3   OH2 2908   5.317   4.337   4.947
  984TIP3    H1 2909   5.358   4.264   4.901
  984TIP3    H2 2910   5.378   4.410   4.936
  985TIP3   OH2 2911   3.772   1.112   3.750
  985TIP3    H1 2912   3.769   1.189   3.808
  985TIP3    H2 2913   3.805   1.042   3.805
  986TIP3   OH2 2914   5.972   7.822   4.055
  986TIP3    H1 2915   5.963   7.822   3.960
  986TIP3    H2 2916   5.928   7.742   4.084
  987TIP3   OH2 2917   7.697   2.936   6.604
  987TIP3    H1 2918   7.731   3.010   6.655
  987TIP3    H2 2919   7.752   2.862   6.628
  988TIP3   OH2 2920   6.940   2.724   1.610
  988TIP3    H1 2921   6.961   2.778   1.686
  988TIP3    H2 2922   6.849   2.698   1.624
  989TIP3   OH2 2923   1.270   6.173   2.100
  989TIP3    H1 2924   1.250   6.117   2.175
  989TIP3    H2 2925   1.285   6.260   2.138
  990TIP3   OH2 2926   7.884   4.823   4.030
  990TIP3    H1 2927   7.963   4.850   3.982
  990TIP3    H2 2928   7.842   4.760   3.972
  991TIP3   OH2 2929   2.272   3.326   6.026
  991TIP3    H1 2930   2.331   3.287   5.962
  991TIP3    H2 2931   2.225   3.251   6.063
  992TIP3   OH2 2932   2.863   5.008   4.382
  992TIP3    H1 2933   2.887   4.919   4.356
  992TIP3    H2 2934   2.781   4.998   4.429
  993TIP3   OH2 2935   0.311   0.049   3.551
  993TIP3    H1 2936   0.312   0.140   3.522
  993TIP3    H2 2937   0.279   0.000   3.476
  994TIP3   OH2 2938   5.062   7.227   5.813
  994TIP3    H1 2939   5.086   7.208   5.723
  994TIP3    H2 2940   5.146   7.233   5.859
  995TIP3   OH2 2941   1.134   1.485   6.722
  995TIP3    H1 2942   1.067   1.522   6.665
  995TIP3    H2 2943   1.119   1.390   6.720
  996TIP3   OH2 2944   5.158   0.411   6.127
  996TIP3    H1 2945   5.216   0.338   6.105
  996TIP3    H2 2946   5.153   0.410   6.222
  997TIP3   OH2 2947   3.245   1.529   3.352
  997TIP3    H1 2948   3.327   1.568   3.382
  997TIP3    H2 2949   3.265   1.437   3.340
  998TIP3   OH2 2950   7.406   6.125   3.413
  998TIP3    H1 2951   7.324   6.172   3.401
  998TIP3    H2 2952   7.383   6.049   3.466
  999TIP3   OH2 2953   0.963   6.877   4.581
  999TIP3    H1 2954   0.986   6.785   4.596
  999TIP3    H2 2955   0.889   6.873   4.519
 1000TIP3   OH2 2956   1.317   2.863   0.897
 1000TIP3    H1 2957   1.295   2.824   0.813
 1000TIP3    H2 2958   1.412   2.856   0.904
 1001TIP3   OH2 2959   7.415   4.994   2.019
 1001TIP3    H1 2960   7.460   4.975   1.936
 1001TIP3    H2 2961   7.397   5.088   2.015
 1002TIP3   OH2 2962   5.889   4.106   1.304
 1002TIP3    H1 2963   5.943   4.081   1.229
 1002TIP3    H2 2964   5.815   4.154   1.266
 1003TIP3   OH2 2965   1.007   3.332   5.852
 1003TIP3    H1 2966   1.015   3.425   5.871
 1003TIP3    H2 2967   1.012   3.326   5.756
 1004TIP3   OH2 2968   4.718   0.567   0.841
 1004TIP3    H1 2969   4.664   0.491   0.819
 1004TIP3    H2 2970   4.765   0.588   0.760
 1005TIP3   OH2 2971   1.857   7.569   2.947
 1005TIP3    H1 2972   1.858   7.482   2.906
 1005TIP3    H2 2973   1.787   7.564   3.012
 1006TIP3   OH2 2974   3.280   1.635   0.662
 1006TIP3    H1 2975   3.290   1.699   0.592
 1006TIP3    H2 2976   3.347   1.569   0.644
 1007TIP3   OH2 2977   6.264   6.987   4.829
 1007TIP3    H1 2978   6.189   7.016   4.880
 1007TIP3    H2 2979   6.316   6.935   4.890
 1008TIP3   OH2 2980   3.836   4.426   3.374
 1008TIP3    H1 2981   3.878   4.473   3.302
 1008TIP3    H2 2982   3.909   4.396   3.429
 1009TIP3   OH2 2983   7.833   4.359   2.592
 1009TIP3    H1 2984   7.833   4.314   2.507
 1009TIP3    H2 2985   7.887   4.437   2.578
 1010TIP3   OH2 2986   0.352   1.327   2.564
 1010TIP3    H1 2987   0.439   1.329   2.524
 1010TIP3    H2 2988   0.340   1.417   2.597
 1011TIP3   OH2 2989   1.126   7.791   3.892
 1011TIP3    H1 2990   1.140   7.884   3.911
 1011TIP3    H2 2991   1.210   7.760   3.859
 1012TIP3   OH2 2992   5.568   0.894   3.397
 1012TIP3    H1 2993   5.625   0.971   3.396
 1012TIP3    H2 2994   5.539   0.888   3.488
 1013TIP3   OH2 2995   1.809   2.097   3.224
 1013TIP3    H1 2996   1.781   2.015   3.266
 1013TIP3    H2 2997   1.755   2.164   3.266
 1014TIP3   OH2 2998   5.127   0.455   2.032
 1014TIP3    H1 2999   5.112   0.391   1.964
 1014TIP3    H2 3000   5.054   0.516   2.025
 1015TIP3   OH2 3001   2.943   5.469   2.440
 1015TIP3    H1 3002   2.963   5.556   2.475
 1015TIP3    H2 3003   2.871   5.437   2.496
 1016TIP3   OH2 3004   7.545   1.620   6.164
 1016TIP3    H1 3005   7.473   1.674   6.131
 1016TIP3    H2 3006   7.618   1.681   6.175
 1017TIP3   OH2 3007   3.667   5.615   1.916
 1017TIP3    H1 3008   3.618   5.533   1.903
 1017TIP3    H2 3009   3.758   5.592   1.897
 1018TIP3   OH2 3010   5.490   6.573   1.230
 1018TIP3    H1 3011   5.554   6.549   1.164
 1018TIP3    H2 3012   5.536   6.635   1.288
 1019TIP3   OH2 3013   3.731   6.424   4.545
 1019TIP3    H1 3014   3.792   6.350   4.537
 1019TIP3    H2 3015   3.698   6.437   4.456
 1020TIP3   OH2 3016   4.231   3.064   1.644
 1020TIP3    H1 3017   4.211   3.124   1.572
 1020TIP3    H2 3018   4.305   3.012   1.612
 1021TIP3   OH2 3019   3.740   5.450   4.586
 1021TIP3    H1 3020   3.744   5.416   4.496
 1021TIP3    H2 3021   3.647   5.466   4.601
 1022TIP3   OH2 3022   3.364   5.691   4.329
 1022TIP3    H1 3023   3.310   5.756   4.284
 1022TIP3    H2 3024   3.449   5.735   4.341
 1023TIP3   OH2 3025   4.387   1.686   3.960
 1023TIP3    H1 3026   4.458   1.649   4.013
 1023TIP3    H2 3027   4.372   1.621   3.892
 1024TIP3   OH2 3028   1.298   3.792   5.202
 1024TIP3    H1 3029   1.345   3.865   5.243
 1024TIP3    H2 3030   1.366   3.738   5.163
 1025TIP3   OH2 3031   0.731   3.141   0.826
 1025TIP3    H1 3032   0.800   3.120   0.763
 1025TIP3    H2 3033   0.720   3.236   0.819
 1026TIP3   OH2 3034   7.370   1.858   3.798
 1026TIP3    H1 3035   7.383   1.876   3.891
 1026TIP3    H2 3036   7.329   1.771   3.796
 1027TIP3   OH2 3037   6.810   5.474   1.183
 1027TIP3    H1 3038   6.796   5.470   1.088
 1027TIP3    H2 3039   6.759   5.550   1.211
 1028TIP3   OH2 3040   0.285   4.729   1.552
 1028TIP3    H1 3041   0.250   4.793   1.614
 1028TIP3    H2 3042   0.354   4.683   1.601
 1029TIP3   OH2 3043   6.262   3.144   3.510
 1029TIP3    H1 3044   6.211   3.066   3.530
 1029TIP3    H2 3045   6.233   3.208   3.576
 1030TIP3   OH2 3046   0.204   1.660   4.801
 1030TIP3    H1 3047   0.283   1.616   4.832
 1030TIP3    H2 3048   0.237   1.738   4.755
 1031TIP3   OH2 3049   4.787   0.796   5.804
 1031TIP3    H1 3050   4.727   0.823   5.734
 1031TIP3    H2 3051   4.804   0.876   5.853
 1032TIP3   OH2 3052   1.214   7.770   4.347
 1032TIP3    H1 3053   1.190   7.852   4.304
 1032TIP3    H2 3054   1.278   7.730   4.288
 1033TIP3   OH2 3055   1.159   6.847   3.943
 1033TIP3    H1 3056   1.127   6.757   3.938
 1033TIP3    H2 3057   1.083   6.898   3.970
 1034TIP3   OH2 3058   6.862   7.453   1.714
 1034TIP3    H1 3059   6.943   7.498   1.687
 1034TIP3    H2 3060   6.876   7.363   1.687
 1035TIP3   OH2 3061   3.766   2.789   3.809
 1035TIP3    H1 3062   3.756   2.803   3.903
 1035TIP3    H2 3063   3.809   2.868   3.777
 1036TIP3   OH2 3064   6.956   0.526   4.060
 1036TIP3    H1 3065   7.028   0.529   4.123
 1036TIP3    H2 3066   6.965   0.607   4.010
 1037TIP3   OH2 3067   2.241   3.712   6.434
 1037TIP3    H1 3068   2.236   3.622   6.400
 1037TIP3    H2 3069   2.193   3.709   6.516
 1038TIP3   OH2 3070   0.464   3.120   3.404
 1038TIP3    H1 3071   0.435   3.197   3.354
 1038TIP3    H2 3072   0.559   3.126   3.405
 1039TIP3   OH2 3073   0.143   2.060   5.275
 1039TIP3    H1 3074   0.050   2.069   5.295
 1039TIP3    H2 3075   0.148   1.986   5.215
 1040TIP3   OH2 3076   0.703   3.365   4.239
 1040TIP3    H1 3077   0.763   3.293   4.222
 1040TIP3    H2 3078   0.622   3.339   4.195
 1041TIP3   OH2 3079   2.502   5.168   6.631
 1041TIP3    H1 3080   2.492   5.128   6.544
 1041TIP3    H2 3081   2.581   5.127   6.667
 1042TIP3   OH2 3082   5.820   5.724   5.396
 1042TIP3    H1 3083   5.772   5.642   5.408
 1042TIP3    H2 3084   5.752   5.791   5.392
 1043TIP3   OH2 3085   0.505   4.911   5.709
 1043TIP3    H1 3086   0.489   4.825   5.749
 1043TIP3    H2 3087   0.483   4.974   5.778
 1044TIP3   OH2 3088   2.009   3.839   3.452
 1044TIP3    H1 3089   2.010   3.761   3.396
 1044TIP3    H2 3090   1.926   3.834   3.499
 1045TIP3   OH2 3091   8.351   0.266   6.492
 1045TIP3    H1 3092   8.284   0.328   6.461
 1045TIP3    H2 3093   8.308   0.218   6.563
 1046TIP3   OH2 3094   1.547   1.638   5.025
 1046TIP3    H1 3095   1.594   1.721   5.033
 1046TIP3    H2 3096   1.455   1.663   5.033
 1047TIP3   OH2 3097   2.907   7.573   5.431
 1047TIP3    H1 3098   3.002   7.587   5.437
 1047TIP3    H2 3099   2.876   7.577   5.521
 1048TIP3   OH2 3100   0.457   5.936   3.193
 1048TIP3    H1 3101   0.469   5.958   3.101
 1048TIP3    H2 3102   0.439   5.842   3.192
 1049TIP3   OH2 3103   1.263   5.508   0.789
 1049TIP3    H1 3104   1.188   5.510   0.729
 1049TIP3    H2 3105   1.322   5.577   0.756
 1050TIP3   OH2 3106   2.827   4.459   5.466
 1050TIP3    H1 3107   2.782   4.460   5.381
 1050TIP3    H2 3108   2.886   4.384   5.460
 1051TIP3   OH2 3109   8.147   5.152   5.163
 1051TIP3    H1 3110   8.171   5.243   5.147
 1051TIP3    H2 3111   8.225   5.113   5.202
 1052TIP3   OH2 3112   6.756   4.288   4.817
 1052TIP3    H1 3113   6.810   4.213   4.841
 1052TIP3    H2 3114   6.794   4.319   4.735
 1053TIP3   OH2 3115   6.257   2.424   6.694
 1053TIP3    H1 3116   6.319   2.469   6.751
 1053TIP3    H2 3117   6.245   2.338   6.734
 1054TIP3   OH2 3118   6.144   1.338   4.761
 1054TIP3    H1 3119   6.161   1.432   4.764
 1054TIP3    H2 3120   6.229   1.298   4.784
 1055TIP3   OH2 3121   2.160   2.740   4.532
 1055TIP3    H1 3122   2.167   2.709   4.623
 1055TIP3    H2 3123   2.163   2.835   4.539
 1056TIP3   OH2 3124   3.852   6.684   3.710
 1056TIP3    H1 3125   3.766   6.727   3.712
 1056TIP3    H2 3126   3.915   6.754   3.719
 1057TIP3   OH2 3127   2.122   7.268   1.421
 1057TIP3    H1 3128   2.191   7.280   1.356
 1057TIP3    H2 3129   2.094   7.177   1.410
 1058TIP3   OH2 3130   4.757   7.366   6.181
 1058TIP3    H1 3131   4.744   7.440   6.239
 1058TIP3    H2 3132   4.823   7.312   6.224
 1059TIP3   OH2 3133   3.692   5.120   6.437
 1059TIP3    H1 3134   3.619   5.096   6.380
 1059TIP3    H2 3135   3.748   5.042   6.439
 1060TIP3   OH2 3136   1.066   2.535   2.857
 1060TIP3    H1 3137   1.087   2.627   2.845
 1060TIP3    H2 3138   0.972   2.534   2.875
 1061TIP3   OH2 3139   6.460   0.356   4.979
 1061TIP3    H1 3140   6.370   0.324   4.983
 1061TIP3    H2 3141   6.513   0.276   4.972
 1062TIP3   OH2 3142   2.413   3.225   6.487
 1062TIP3    H1 3143   2.446   3.182   6.408
 1062TIP3    H2 3144   2.455   3.311   6.486
 1063TIP3   OH2 3145   6.165   1.139   2.254
 1063TIP3    H1 3146   6.192   1.155   2.163
 1063TIP3    H2 3147   6.096   1.203   2.270
 1064TIP3   OH2 3148   6.317   0.433   2.600
 1064TIP3    H1 3149   6.313   0.528   2.612
 1064TIP3    H2 3150   6.309   0.421   2.505
 1065TIP3   OH2 3151   7.611   0.869   1.574
 1065TIP3    H1 3152   7.604   0.775   1.553
 1065TIP3    H2 3153   7.529   0.890   1.618
 1066TIP3   OH2 3154   3.611   2.631   0.933
 1066TIP3    H1 3155   3.560   2.690   0.878
 1066TIP3    H2 3156   3.553   2.556   0.947
 1067TIP3   OH2 3157   7.103   5.322   0.926
 1067TIP3    H1 3158   7.096   5.363   0.840
 1067TIP3    H2 3159   7.187   5.276   0.925
 1068TIP3   OH2 3160   5.004   4.568   6.186
 1068TIP3    H1 3161   4.952   4.536   6.112
 1068TIP3    H2 3162   5.092   4.580   6.150
 1069TIP3   OH2 3163   3.613   5.781   4.381
 1069TIP3    H1 3164   3.686   5.819   4.331
 1069TIP3    H2 3165   3.595   5.845   4.450
 1070TIP3   OH2 3166   0.428   2.861   2.576
 1070TIP3    H1 3167   0.490   2.807   2.526
 1070TIP3    H2 3168   0.384   2.914   2.509
 1071TIP3   OH2 3169   0.463   4.629   4.494
 1071TIP3    H1 3170   0.555   4.646   4.514
 1071TIP3    H2 3171   0.440   4.696   4.429
 1072TIP3   OH2 3172   3.314   6.286   2.113
 1072TIP3    H1 3173   3.398   6.267   2.156
 1072TIP3    H2 3174   3.273   6.200   2.103
 1073TIP3   OH2 3175   5.533   3.007   1.136
 1073TIP3    H1 3176   5.555   3.024   1.045
 1073TIP3    H2 3177   5.438   2.997   1.136
 1074TIP3   OH2 3178   2.043  -0.022   1.224
 1074TIP3    H1 3179   2.103  -0.074   1.172
 1074TIP3    H2 3180   2.098   0.022   1.288
 1075TIP3   OH2 3181   2.565   1.406   5.575
 1075TIP3    H1 3182   2.471   1.393   5.562
 1075TIP3    H2 3183   2.575   1.500   5.588
 1076TIP3   OH2 3184   3.500   4.606   5.936
 1076TIP3    H1 3185   3.508   4.602   5.841
 1076TIP3    H2 3186   3.414   4.646   5.951
 1077TIP3   OH2 3187   3.480   4.077   1.021
 1077TIP3    H1 3188   3.495   4.010   1.088
 1077TIP3    H2 3189   3.545   4.145   1.040
 1078TIP3   OH2 3190   4.055   3.390   2.558
 1078TIP3    H1 3191   3.997   3.418   2.629
 1078TIP3    H2 3192   4.021   3.305   2.531
 1079TIP3   OH2 3193   3.747   6.895   4.307
 1079TIP3    H1 3194   3.739   6.955   4.381
 1079TIP3    H2 3195   3.661   6.855   4.298
 1080TIP3   OH2 3196   4.102   2.312   1.592
 1080TIP3    H1 3197   4.128   2.270   1.510
 1080TIP3    H2 3198   4.058   2.392   1.565
 1081TIP3   OH2 3199   5.696   7.572   1.609
 1081TIP3    H1 3200   5.629   7.624   1.566
 1081TIP3    H2 3201   5.699   7.607   1.698
 1082TIP3   OH2 3202   2.277   5.237   5.619
 1082TIP3    H1 3203   2.183   5.252   5.631
 1082TIP3    H2 3204   2.284   5.142   5.607
 1083TIP3   OH2 3205   0.876   0.376   1.436
 1083TIP3    H1 3206   0.842   0.342   1.353
 1083TIP3    H2 3207   0.909   0.463   1.415
 1084TIP3   OH2 3208   7.386   0.859   1.736
 1084TIP3    H1 3209   7.433   0.876   1.818
 1084TIP3    H2 3210   7.340   0.941   1.718
 1085TIP3   OH2 3211   1.942   2.605   4.383
 1085TIP3    H1 3212   1.972   2.667   4.450
 1085TIP3    H2 3213   1.969   2.519   4.416
 1086TIP3   OH2 3214   7.007   2.248   6.467
 1086TIP3    H1 3215   7.023   2.277   6.377
 1086TIP3    H2 3216   6.931   2.191   6.461
 1087TIP3   OH2 3217   6.200   3.790   5.700
 1087TIP3    H1 3218   6.200   3.886   5.707
 1087TIP3    H2 3219   6.187   3.760   5.790
 1088TIP3   OH2 3220   2.517   6.235   3.984
 1088TIP3    H1 3221   2.517   6.192   4.070
 1088TIP3    H2 3222   2.505   6.163   3.922
 1089TIP3   OH2 3223   7.007   2.030   0.965
 1089TIP3    H1 3224   6.978   2.043   1.055
 1089TIP3    H2 3225   6.936   2.066   0.912
 1090TIP3   OH2 3226   1.227   3.462   1.616
 1090TIP3    H1 3227   1.148   3.437   1.664
 1090TIP3    H2 3228   1.196   3.490   1.531
 1091TIP3   OH2 3229   0.586   6.711   2.590
 1091TIP3    H1 3230   0.529   6.687   2.517
 1091TIP3    H2 3231   0.561   6.801   2.611
 1092TIP3   OH2 3232   2.801   5.226   2.928
 1092TIP3    H1 3233   2.776   5.212   3.020
 1092TIP3    H2 3234   2.766   5.150   2.882
 1093TIP3   OH2 3235   6.147   2.275   6.192
 1093TIP3    H1 3236   6.186   2.302   6.276
 1093TIP3    H2 3237   6.126   2.357   6.148
 1094TIP3   OH2 3238   6.668   7.216   0.253
 1094TIP3    H1 3239   6.581   7.192   0.222
 1094TIP3    H2 3240   6.698   7.282   0.191
 1095TIP3   OH2 3241   4.874   2.626   2.369
 1095TIP3    H1 3242   4.829   2.622   2.284
 1095TIP3    H2 3243   4.911   2.539   2.380
 1096TIP3   OH2 3244   6.064   6.626   6.562
 1096TIP3    H1 3245   6.117   6.701   6.536
 1096TIP3    H2 3246   6.129   6.557   6.580
 1097TIP3   OH2 3247   6.048   2.025   0.706
 1097TIP3    H1 3248   6.129   2.040   0.754
 1097TIP3    H2 3249   6.075   2.017   0.615
 1098TIP3   OH2 3250   6.556   2.908   3.420
 1098TIP3    H1 3251   6.532   2.968   3.491
 1098TIP3    H2 3252   6.599   2.834   3.464
 1099TIP3   OH2 3253   4.856   4.997   0.681
 1099TIP3    H1 3254   4.943   4.961   0.695
 1099TIP3    H2 3255   4.865   5.052   0.603
 1100TIP3   OH2 3256   8.138   6.251   2.646
 1100TIP3    H1 3257   8.122   6.345   2.634
 1100TIP3    H2 3258   8.225   6.236   2.609
 1101TIP3   OH2 3259   3.725   5.742   6.513
 1101TIP3    H1 3260   3.769   5.694   6.584
 1101TIP3    H2 3261   3.702   5.674   6.449
 1102TIP3   OH2 3262   5.201   6.770   2.738
 1102TIP3    H1 3263   5.293   6.786   2.763
 1102TIP3    H2 3264   5.163   6.728   2.815
 1103TIP3   OH2 3265   7.470   0.048   5.767
 1103TIP3    H1 3266   7.461  -0.036   5.811
 1103TIP3    H2 3267   7.399   0.050   5.703
 1104TIP3   OH2 3268   0.640   0.273   4.920
 1104TIP3    H1 3269   0.733   0.290   4.937
 1104TIP3    H2 3270   0.632   0.276   4.825
 1105TIP3   OH2 3271   3.236   1.985   2.884
 1105TIP3    H1 3272   3.312   2.041   2.867
 1105TIP3    H2 3273   3.272   1.899   2.903
 1106TIP3   OH2 3274   6.197   4.441   2.172
 1106TIP3    H1 3275   6.253   4.381   2.221
 1106TIP3    H2 3276   6.110   4.402   2.175
 1107TIP3   OH2 3277   3.930   6.583   3.438
 1107TIP3    H1 3278   3.901   6.498   3.469
 1107TIP3    H2 3279   4.008   6.603   3.489
 1108TIP3   OH2 3280   3.446   7.565   3.196
 1108TIP3    H1 3281   3.432   7.568   3.101
 1108TIP3    H2 3282   3.423   7.652   3.226
 1109TIP3   OH2 3283   6.000   0.326   2.170
 1109TIP3    H1 3284   5.992   0.345   2.076
 1109TIP3    H2 3285   6.059   0.251   2.175
 1110TIP3   OH2 3286   7.585   6.925   6.007
 1110TIP3    H1 3287   7.499   6.927   5.964
 1110TIP3    H2 3288   7.604   7.016   6.027
 1111TIP3   OH2 3289   5.505   2.401   4.260
 1111TIP3    H1 3290   5.560   2.323   4.267
 1111TIP3    H2 3291   5.561   2.473   4.289
 1112TIP3   OH2 3292   2.992   0.675   4.501
 1112TIP3    H1 3293   2.933   0.750   4.492
 1112TIP3    H2 3294   3.048   0.679   4.423
 1113TIP3   OH2 3295   2.116   1.557   4.239
 1113TIP3    H1 3296   2.125   1.542   4.144
 1113TIP3    H2 3297   2.092   1.649   4.246
 1114TIP3   OH2 3298   6.226   7.329   6.211
 1114TIP3    H1 3299   6.269   7.312   6.128
 1114TIP3    H2 3300   6.296   7.323   6.276
 1115TIP3   OH2 3301   2.230   7.747   3.270
 1115TIP3    H1 3302   2.233   7.660   3.231
 1115TIP3    H2 3303   2.156   7.790   3.227
 1116TIP3   OH2 3304   6.924   7.517   0.913
 1116TIP3    H1 3305   6.939   7.534   0.820
 1116TIP3    H2 3306   6.973   7.436   0.931
 1117TIP3   OH2 3307   1.683   6.914   0.975
 1117TIP3    H1 3308   1.606   6.942   0.925
 1117TIP3    H2 3309   1.676   6.819   0.979
 1118TIP3   OH2 3310   2.920   5.894   6.782
 1118TIP3    H1 3311   2.893   5.829   6.718
 1118TIP3    H2 3312   2.838   5.931   6.816
 1119TIP3   OH2 3313   1.759   3.017   1.977
 1119TIP3    H1 3314   1.730   2.932   1.943
 1119TIP3    H2 3315   1.822   3.049   1.912
 1120TIP3   OH2 3316   7.349   2.958   5.909
 1120TIP3    H1 3317   7.279   3.009   5.950
 1120TIP3    H2 3318   7.427   2.980   5.961
 1121TIP3   OH2 3319   0.570   2.161   5.304
 1121TIP3    H1 3320   0.519   2.083   5.282
 1121TIP3    H2 3321   0.568   2.165   5.400
 1122TIP3   OH2 3322   6.417   6.625   4.054
 1122TIP3    H1 3323   6.377   6.567   3.989
 1122TIP3    H2 3324   6.444   6.702   4.004
 1123TIP3   OH2 3325   1.482   7.203   0.456
 1123TIP3    H1 3326   1.520   7.205   0.368
 1123TIP3    H2 3327   1.387   7.208   0.441
 1124TIP3   OH2 3328   1.456   6.730   2.410
 1124TIP3    H1 3329   1.505   6.681   2.476
 1124TIP3    H2 3330   1.364   6.713   2.431
 1125TIP3   OH2 3331   2.111   0.668   5.219
 1125TIP3    H1 3332   2.045   0.708   5.163
 1125TIP3    H2 3333   2.100   0.574   5.206
 1126TIP3   OH2 3334   4.178   2.932   3.879
 1126TIP3    H1 3335   4.159   2.898   3.791
 1126TIP3    H2 3336   4.252   2.991   3.867
 1127TIP3   OH2 3337   8.201   7.383   0.684
 1127TIP3    H1 3338   8.207   7.289   0.665
 1127TIP3    H2 3339   8.273   7.422   0.635
 1128TIP3   OH2 3340   7.787   0.066   0.274
 1128TIP3    H1 3341   7.804  -0.011   0.328
 1128TIP3    H2 3342   7.872   0.087   0.235
 1129TIP3   OH2 3343   5.593   7.297   4.315
 1129TIP3    H1 3344   5.502   7.295   4.286
 1129TIP3    H2 3345   5.637   7.357   4.255
 1130TIP3   OH2 3346   2.076   0.795   2.969
 1130TIP3    H1 3347   2.040   0.730   3.030
 1130TIP3    H2 3348   2.167   0.806   2.997
 1131TIP3   OH2 3349   8.109   1.620   4.467
 1131TIP3    H1 3350   8.203   1.631   4.454
 1131TIP3    H2 3351   8.089   1.536   4.425
 1132TIP3   OH2 3352   3.748   0.764   1.009
 1132TIP3    H1 3353   3.713   0.696   1.067
 1132TIP3    H2 3354   3.728   0.846   1.053
 1133TIP3   OH2 3355   0.523   0.308   1.805
 1133TIP3    H1 3356   0.540   0.343   1.893
 1133TIP3    H2 3357   0.582   0.356   1.747
 1134TIP3   OH2 3358   5.246   1.362   4.089
 1134TIP3    H1 3359   5.274   1.289   4.144
 1134TIP3    H2 3360   5.154   1.342   4.069
 1135TIP3   OH2 3361   1.904   2.536   3.385
 1135TIP3    H1 3362   1.999   2.524   3.380
 1135TIP3    H2 3363   1.872   2.517   3.297
 1136TIP3   OH2 3364   6.476   0.516   1.963
 1136TIP3    H1 3365   6.461   0.430   2.002
 1136TIP3    H2 3366   6.567   0.512   1.932
 1137TIP3   OH2 3367   7.483   2.750   0.444
 1137TIP3    H1 3368   7.414   2.813   0.465
 1137TIP3    H2 3369   7.505   2.768   0.353
 1138TIP3   OH2 3370   6.283   2.946   5.118
 1138TIP3    H1 3371   6.193   2.924   5.092
 1138TIP3    H2 3372   6.289   3.040   5.106
 1139TIP3   OH2 3373   2.999   2.184   4.053
 1139TIP3    H1 3374   2.933   2.162   3.986
 1139TIP3    H2 3375   3.062   2.112   4.049
 1140TIP3   OH2 3376   7.471   4.998   5.911
 1140TIP3    H1 3377   7.448   4.922   5.965
 1140TIP3    H2 3378   7.428   5.072   5.953
 1141TIP3   OH2 3379   2.040   6.742   3.172
 1141TIP3    H1 3380   2.051   6.809   3.239
 1141TIP3    H2 3381   1.952   6.707   3.186
 1142TIP3   OH2 3382   8.124   6.391   3.221
 1142TIP3    H1 3383   8.039   6.424   3.193
 1142TIP3    H2 3384   8.181   6.404   3.145
 1143TIP3   OH2 3385   1.463   6.799   5.021
 1143TIP3    H1 3386   1.376   6.805   4.981
 1143TIP3    H2 3387   1.512   6.741   4.963
 1144TIP3   OH2 3388   6.015   2.629   2.832
 1144TIP3    H1 3389   5.979   2.685   2.763
 1144TIP3    H2 3390   6.037   2.690   2.903
 1145TIP3   OH2 3391   3.097   1.020   1.618
 1145TIP3    H1 3392   3.101   1.076   1.696
 1145TIP3    H2 3393   3.119   0.933   1.651
 1146TIP3   OH2 3394   1.336   3.323   2.834
 1146TIP3    H1 3395   1.339   3.251   2.897
 1146TIP3    H2 3396   1.257   3.306   2.782
 1147TIP3   OH2 3397   5.309   3.468   3.248
 1147TIP3    H1 3398   5.231   3.508   3.286
 1147TIP3    H2 3399   5.283   3.443   3.159
 1148TIP3   OH2 3400   5.823   2.507   3.039
 1148TIP3    H1 3401   5.740   2.516   2.992
 1148TIP3    H2 3402   5.889   2.535   2.976
 1149TIP3   OH2 3403   0.002   2.216   3.323
 1149TIP3    H1 3404   0.081   2.175   3.288
 1149TIP3    H2 3405  -0.039   2.148   3.377
 1150TIP3   OH2 3406   6.304   1.999   5.088
 1150TIP3    H1 3407   6.243   1.926   5.101
 1150TIP3    H2 3408   6.380   1.976   5.141
 1151TIP3   OH2 3409   1.922   5.299   4.947
 1151TIP3    H1 3410   1.969   5.335   5.023
 1151TIP3    H2 3411   1.984   5.237   4.908
 1152TIP3   OH2 3412   7.927   7.081   1.876
 1152TIP3    H1 3413   7.854   7.138   1.851
 1152TIP3    H2 3414   7.994   7.097   1.809
 1153TIP3   OH2 3415   5.988   3.713   6.457
 1153TIP3    H1 3416   5.926   3.679   6.393
 1153TIP3    H2 3417   6.073   3.681   6.427
 1154TIP3   OH2 3418   6.914   2.576   6.203
 1154TIP3    H1 3419   6.851   2.578   6.276
 1154TIP3    H2 3420   6.993   2.616   6.239
 1155TIP3   OH2 3421   2.568   7.129   0.207
 1155TIP3    H1 3422   2.595   7.051   0.157
 1155TIP3    H2 3423   2.643   7.188   0.200
 1156TIP3   OH2 3424   7.929   1.242   5.530
 1156TIP3    H1 3425   7.947   1.149   5.544
 1156TIP3    H2 3426   8.008   1.275   5.487
 1157TIP3   OH2 3427   7.808   1.969   4.005
 1157TIP3    H1 3428   7.891   1.968   4.052
 1157TIP3    H2 3429   7.751   2.025   4.058
 1158TIP3   OH2 3430   6.816   7.470   3.430
 1158TIP3    H1 3431   6.836   7.433   3.516
 1158TIP3    H2 3432   6.794   7.395   3.376
 1159TIP3   OH2 3433   5.431   3.003   4.501
 1159TIP3    H1 3434   5.460   2.926   4.452
 1159TIP3    H2 3435   5.474   3.076   4.458
 1160TIP3   OH2 3436   0.983   0.606   2.890
 1160TIP3    H1 3437   1.037   0.684   2.888
 1160TIP3    H2 3438   0.939   0.609   2.975
 1161TIP3   OH2 3439   4.838   7.733   5.078
 1161TIP3    H1 3440   4.843   7.686   4.994
 1161TIP3    H2 3441   4.749   7.768   5.081
 1162TIP3   OH2 3442   4.498   0.152   5.026
 1162TIP3    H1 3443   4.565   0.220   5.032
 1162TIP3    H2 3444   4.480   0.127   5.116
 1163TIP3   OH2 3445   7.306   7.507   0.143
 1163TIP3    H1 3446   7.381   7.532   0.089
 1163TIP3    H2 3447   7.338   7.513   0.233
 1164TIP3   OH2 3448   2.611   6.347   5.273
 1164TIP3    H1 3449   2.664   6.420   5.302
 1164TIP3    H2 3450   2.613   6.285   5.345
 1165TIP3   OH2 3451   5.308   2.729   1.039
 1165TIP3    H1 3452   5.360   2.760   0.965
 1165TIP3    H2 3453   5.367   2.672   1.088
 1166TIP3   OH2 3454   1.819   3.458   1.837
 1166TIP3    H1 3455   1.763   3.467   1.915
 1166TIP3    H2 3456   1.768   3.497   1.766
 1167TIP3   OH2 3457   4.871   2.858   1.724
 1167TIP3    H1 3458   4.775   2.859   1.727
 1167TIP3    H2 3459   4.893   2.766   1.712
 1168TIP3   OH2 3460   0.593   1.301   2.450
 1168TIP3    H1 3461   0.557   1.247   2.380
 1168TIP3    H2 3462   0.614   1.239   2.520
 1169TIP3   OH2 3463   1.644   1.669   2.249
 1169TIP3    H1 3464   1.577   1.623   2.300
 1169TIP3    H2 3465   1.720   1.611   2.252
 1170TIP3   OH2 3466   1.485   3.515   1.502
 1170TIP3    H1 3467   1.400   3.498   1.542
 1170TIP3    H2 3468   1.466   3.572   1.428
 1171TIP3   OH2 3469   0.986   0.556   3.425
 1171TIP3    H1 3470   0.966   0.645   3.453
 1171TIP3    H2 3471   0.906   0.507   3.444
 1172TIP3   OH2 3472   2.372   7.584   5.933
 1172TIP3    H1 3473   2.363   7.640   6.010
 1172TIP3    H2 3474   2.306   7.615   5.872
 1173TIP3   OH2 3475   4.323   2.642   3.638
 1173TIP3    H1 3476   4.382   2.670   3.568
 1173TIP3    H2 3477   4.304   2.550   3.618
 1174TIP3   OH2 3478   0.061   7.692   2.431
 1174TIP3    H1 3479   0.100   7.721   2.348
 1174TIP3    H2 3480  -0.014   7.751   2.443
 1175TIP3   OH2 3481   1.730   2.099   5.727
 1175TIP3    H1 3482   1.818   2.114   5.762
 1175TIP3    H2 3483   1.671   2.121   5.799
 1176TIP3   OH2 3484   7.037   7.382   2.785
 1176TIP3    H1 3485   7.069   7.473   2.782
 1176TIP3    H2 3486   7.089   7.341   2.854
 1177TIP3   OH2 3487   0.740   2.757   1.656
 1177TIP3    H1 3488   0.651   2.739   1.688
 1177TIP3    H2 3489   0.785   2.796   1.730
 1178TIP3   OH2 3490   6.150   1.214   0.395
 1178TIP3    H1 3491   6.174   1.261   0.315
 1178TIP3    H2 3492   6.163   1.121   0.373
 1179TIP3   OH2 3493   4.612   1.333   5.729
 1179TIP3    H1 3494   4.668   1.380   5.792
 1179TIP3    H2 3495   4.524   1.342   5.764
 1180TIP3   OH2 3496   5.721   1.497   5.925
 1180TIP3    H1 3497   5.654   1.443   5.882
 1180TIP3    H2 3498   5.693   1.503   6.016
 1181TIP3   OH2 3499   0.174   4.357   3.900
 1181TIP3    H1 3500   0.251   4.320   3.857
 1181TIP3    H2 3501   0.137   4.284   3.950
 1182TIP3   OH2 3502   1.806   4.372   1.224
 1182TIP3    H1 3503   1.837   4.292   1.181
 1182TIP3    H2 3504   1.859   4.380   1.303
 1183TIP3   OH2 3505   2.637   6.471   1.254
 1183TIP3    H1 3506   2.554   6.482   1.299
 1183TIP3    H2 3507   2.619   6.496   1.163
 1184TIP3   OH2 3508   4.714   6.994   2.302
 1184TIP3    H1 3509   4.681   6.973   2.214
 1184TIP3    H2 3510   4.806   7.016   2.289
 1185TIP3   OH2 3511   7.192   2.350   1.829
 1185TIP3    H1 3512   7.181   2.367   1.923
 1185TIP3    H2 3513   7.270   2.294   1.824
 1186TIP3   OH2 3514   2.673   7.555   3.967
 1186TIP3    H1 3515   2.678   7.578   3.874
 1186TIP3    H2 3516   2.724   7.475   3.975
 1187TIP3   OH2 3517   4.176   3.858   1.464
 1187TIP3    H1 3518   4.223   3.922   1.517
 1187TIP3    H2 3519   4.214   3.866   1.377
 1188TIP3   OH2 3520   7.182   5.793   5.501
 1188TIP3    H1 3521   7.093   5.760   5.500
 1188TIP3    H2 3522   7.234   5.720   5.536
 1189TIP3   OH2 3523   6.548   7.388   4.661
 1189TIP3    H1 3524   6.528   7.397   4.568
 1189TIP3    H2 3525   6.489   7.450   4.705
 1190TIP3   OH2 3526   7.578   1.662   6.543
 1190TIP3    H1 3527   7.666   1.697   6.561
 1190TIP3    H2 3528   7.546   1.714   6.470
 1191TIP3   OH2 3529   7.453   2.705   1.774
 1191TIP3    H1 3530   7.455   2.788   1.821
 1191TIP3    H2 3531   7.480   2.640   1.839
 1192TIP3   OH2 3532   6.168   7.341   1.930
 1192TIP3    H1 3533   6.153   7.399   1.856
 1192TIP3    H2 3534   6.080   7.319   1.961
 1193TIP3   OH2 3535   7.407   1.421   5.401
 1193TIP3    H1 3536   7.461   1.358   5.448
 1193TIP3    H2 3537   7.456   1.440   5.321
 1194TIP3   OH2 3538   4.665   7.776   1.097
 1194TIP3    H1 3539   4.683   7.827   1.018
 1194TIP3    H2 3540   4.728   7.705   1.094
 1195TIP3   OH2 3541   2.071   3.910   0.862
 1195TIP3    H1 3542   2.025   3.847   0.917
 1195TIP3    H2 3543   2.003   3.947   0.806
 1196TIP3   OH2 3544   0.839   4.894   1.931
 1196TIP3    H1 3545   0.929   4.926   1.929
 1196TIP3    H2 3546   0.825   4.864   2.021
 1197TIP3   OH2 3547   2.285   6.242   2.508
 1197TIP3    H1 3548   2.224   6.197   2.566
 1197TIP3    H2 3549   2.230   6.302   2.458
 1198TIP3   OH2 3550   1.789   1.195   4.994
 1198TIP3    H1 3551   1.716   1.233   5.043
 1198TIP3    H2 3552   1.799   1.253   4.918
 1199TIP3   OH2 3553   2.874   0.867   6.452
 1199TIP3    H1 3554   2.903   0.781   6.484
 1199TIP3    H2 3555   2.953   0.907   6.416
 1200TIP3   OH2 3556   3.579   4.062   5.621
 1200TIP3    H1 3557   3.652   4.000   5.613
 1200TIP3    H2 3558   3.514   4.015   5.674
 1201TIP3   OH2 3559   7.656   3.836   2.104
 1201TIP3    H1 3560   7.678   3.921   2.065
 1201TIP3    H2 3561   7.561   3.832   2.099
 1202TIP3   OH2 3562   3.479   3.441   1.824
 1202TIP3    H1 3563   3.524   3.495   1.760
 1202TIP3    H2 3564   3.388   3.470   1.822
 1203TIP3   OH2 3565   7.989   4.402   2.924
 1203TIP3    H1 3566   7.913   4.459   2.925
 1203TIP3    H2 3567   7.962   4.326   2.871
 1204TIP3   OH2 3568   3.523   6.308   5.474
 1204TIP3    H1 3569   3.452   6.267   5.426
 1204TIP3    H2 3570   3.487   6.392   5.503
 1205TIP3   OH2 3571   4.874   5.334   0.604
 1205TIP3    H1 3572   4.869   5.304   0.695
 1205TIP3    H2 3573   4.884   5.254   0.552
 1206TIP3   OH2 3574   0.036   7.554   1.503
 1206TIP3    H1 3575   0.060   7.469   1.465
 1206TIP3    H2 3576  -0.047   7.537   1.549
 1207TIP3   OH2 3577   3.718   2.883   5.738
 1207TIP3    H1 3578   3.737   2.968   5.777
 1207TIP3    H2 3579   3.686   2.830   5.810
 1208TIP3   OH2 3580   5.173   1.211   2.754
 1208TIP3    H1 3581   5.138   1.122   2.760
 1208TIP3    H2 3582   5.261   1.204   2.791
 1209TIP3   OH2 3583   0.131   4.498   0.345
 1209TIP3    H1 3584   0.222   4.507   0.317
 1209TIP3    H2 3585   0.082   4.484   0.264
 1210TIP3   OH2 3586   5.409   1.501   2.585
 1210TIP3    H1 3587   5.420   1.586   2.543
 1210TIP3    H2 3588   5.315   1.484   2.580
 1211TIP3   OH2 3589   4.697   1.885   0.270
 1211TIP3    H1 3590   4.711   1.946   0.343
 1211TIP3    H2 3591   4.781   1.883   0.224
 1212TIP3   OH2 3592   2.139   3.850   6.140
 1212TIP3    H1 3593   2.069   3.902   6.103
 1212TIP3    H2 3594   2.117   3.841   6.232
 1213TIP3   OH2 3595   6.913   4.944   6.755
 1213TIP3    H1 3596   6.850   5.014   6.738
 1213TIP3    H2 3597   6.858   4.870   6.782
 1214TIP3   OH2 3598   2.427   4.376   6.413
 1214TIP3    H1 3599   2.427   4.470   6.433
 1214TIP3    H2 3600   2.445   4.334   6.497
 1215TIP3   OH2 3601   6.529   5.531   0.374
 1215TIP3    H1 3602   6.498   5.459   0.429
 1215TIP3    H2 3603   6.615   5.502   0.344
 1216TIP3   OH2 3604   0.647   5.953   6.390
 1216TIP3    H1 3605   0.655   5.938   6.484
 1216TIP3    H2 3606   0.577   5.894   6.362
 1217TIP3   OH2 3607   1.635   2.093   6.277
 1217TIP3    H1 3608   1.664   2.011   6.237
 1217TIP3    H2 3609   1.550   2.111   6.237
 1218TIP3   OH2 3610   5.419   7.231   1.810
 1218TIP3    H1 3611   5.404   7.279   1.729
 1218TIP3    H2 3612   5.386   7.143   1.793
 1219TIP3   OH2 3613   5.460   0.434   0.075
 1219TIP3    H1 3614   5.503   0.515   0.044
 1219TIP3    H2 3615   5.383   0.426   0.019
 1220TIP3   OH2 3616   2.181   5.623   5.382
 1220TIP3    H1 3617   2.184   5.558   5.311
 1220TIP3    H2 3618   2.236   5.586   5.451
 1221TIP3   OH2 3619   1.507   1.361   0.498
 1221TIP3    H1 3620   1.468   1.442   0.465
 1221TIP3    H2 3621   1.487   1.361   0.592
 1222TIP3   OH2 3622   5.184   0.432   2.947
 1222TIP3    H1 3623   5.096   0.455   2.976
 1222TIP3    H2 3624   5.241   0.458   3.020
 1223TIP3   OH2 3625   4.150   5.378   4.378
 1223TIP3    H1 3626   4.069   5.334   4.350
 1223TIP3    H2 3627   4.120   5.457   4.422
 1224TIP3   OH2 3628   3.763   6.466   1.284
 1224TIP3    H1 3629   3.803   6.412   1.353
 1224TIP3    H2 3630   3.762   6.409   1.207
 1225TIP3   OH2 3631   4.562   0.428   1.929
 1225TIP3    H1 3632   4.589   0.339   1.951
 1225TIP3    H2 3633   4.511   0.457   2.005
 1226TIP3   OH2 3634   6.714   4.088   3.946
 1226TIP3    H1 3635   6.644   4.024   3.936
 1226TIP3    H2 3636   6.786   4.038   3.986
 1227TIP3   OH2 3637   4.901   3.726   1.918
 1227TIP3    H1 3638   4.928   3.818   1.918
 1227TIP3    H2 3639   4.854   3.715   2.002
 1228TIP3   OH2 3640   0.352   4.794   6.665
 1228TIP3    H1 3641   0.320   4.745   6.590
 1228TIP3    H2 3642   0.447   4.797   6.652
 1229TIP3   OH2 3643   4.580   5.618   3.378
 1229TIP3    H1 3644   4.627   5.695   3.411
 1229TIP3    H2 3645   4.645   5.571   3.327
 1230TIP3   OH2 3646   5.029   6.095   2.743
 1230TIP3    H1 3647   5.082   6.163   2.784
 1230TIP3    H2 3648   4.962   6.143   2.695
 1231TIP3   OH2 3649   7.003   1.787   2.017
 1231TIP3    H1 3650   7.008   1.711   1.959
 1231TIP3    H2 3651   7.082   1.781   2.071
 1232TIP3   OH2 3652   4.347   6.761   6.307
 1232TIP3    H1 3653   4.427   6.783   6.354
 1232TIP3    H2 3654   4.293   6.715   6.372
 1233TIP3   OH2 3655   0.945   2.579   3.231
 1233TIP3    H1 3656   0.872   2.537   3.276
 1233TIP3    H2 3657   1.009   2.597   3.300
 1234TIP3   OH2 3658   7.349   0.169   3.997
 1234TIP3    H1 3659   7.261   0.182   3.961
 1234TIP3    H2 3660   7.375   0.082   3.966
 1235TIP3   OH2 3661   4.978   2.212   3.815
 1235TIP3    H1 3662   5.006   2.220   3.724
 1235TIP3    H2 3663   4.961   2.301   3.844
 1236TIP3   OH2 3664   8.140   7.004   4.689
 1236TIP3    H1 3665   8.235   7.014   4.688
 1236TIP3    H2 3666   8.119   6.985   4.780
 1237TIP3   OH2 3667   1.157   4.063   3.349
 1237TIP3    H1 3668   1.128   4.079   3.259
 1237TIP3    H2 3669   1.210   4.140   3.371
 1238TIP3   OH2 3670   7.254   7.398   4.120
 1238TIP3    H1 3671   7.306   7.359   4.050
 1238TIP3    H2 3672   7.271   7.492   4.112
 1239TIP3   OH2 3673   5.975   5.563   4.893
 1239TIP3    H1 3674   5.892   5.517   4.891
 1239TIP3    H2 3675   6.016   5.545   4.809
 1240TIP3   OH2 3676   5.771   2.595   3.763
 1240TIP3    H1 3677   5.677   2.611   3.756
 1240TIP3    H2 3678   5.782   2.554   3.849
 1241TIP3   OH2 3679   5.241   1.193   5.254
 1241TIP3    H1 3680   5.188   1.120   5.221
 1241TIP3    H2 3681   5.293   1.220   5.178
 1242TIP3   OH2 3682   7.598   5.404   1.297
 1242TIP3    H1 3683   7.646   5.321   1.297
 1242TIP3    H2 3684   7.658   5.467   1.336
 1243TIP3   OH2 3685   0.906   3.038   0.619
 1243TIP3    H1 3686   0.986   3.004   0.577
 1243TIP3    H2 3687   0.846   3.055   0.547
 1244TIP3   OH2 3688   1.193   7.246   1.518
 1244TIP3    H1 3689   1.260   7.180   1.532
 1244TIP3    H2 3690   1.130   7.233   1.589
 1245TIP3   OH2 3691   4.140   2.696   0.953
 1245TIP3    H1 3692   4.106   2.727   1.037
 1245TIP3    H2 3693   4.161   2.775   0.904
 1246TIP3   OH2 3694   6.541   3.618   0.871
 1246TIP3    H1 3695   6.580   3.664   0.945
 1246TIP3    H2 3696   6.525   3.686   0.806
 1247TIP3   OH2 3697   0.855   6.805   3.314
 1247TIP3    H1 3698   0.763   6.822   3.334
 1247TIP3    H2 3699   0.868   6.714   3.341
 1248TIP3   OH2 3700   0.801   6.009   4.918
 1248TIP3    H1 3701   0.883   5.960   4.908
 1248TIP3    H2 3702   0.804   6.043   5.007
 1249TIP3   OH2 3703   3.297   0.923   6.499
 1249TIP3    H1 3704   3.282   0.906   6.592
 1249TIP3    H2 3705   3.385   0.890   6.483
 1250TIP3   OH2 3706   6.327   2.591   3.117
 1250TIP3    H1 3707   6.263   2.530   3.155
 1250TIP3    H2 3708   6.307   2.590   3.023
 1251TIP3   OH2 3709   1.812   4.509   6.057
 1251TIP3    H1 3710   1.731   4.462   6.038
 1251TIP3    H2 3711   1.793   4.557   6.137
 1252TIP3   OH2 3712   8.234   2.048   4.650
 1252TIP3    H1 3713   8.235   2.119   4.714
 1252TIP3    H2 3714   8.236   1.968   4.702
 1253TIP3   OH2 3715   6.699   2.504   3.334
 1253TIP3    H1 3716   6.757   2.473   3.265
 1253TIP3    H2 3717   6.667   2.588   3.302
 1254TIP3   OH2 3718   6.713   3.672   6.597
 1254TIP3    H1 3719   6.623   3.704   6.591
 1254TIP3    H2 3720   6.728   3.660   6.690
 1255TIP3   OH2 3721   3.701   3.755   2.531
 1255TIP3    H1 3722   3.753   3.804   2.594
 1255TIP3    H2 3723   3.644   3.700   2.584
 1256TIP3   OH2 3724   2.063   0.397   5.183
 1256TIP3    H1 3725   2.067   0.303   5.168
 1256TIP3    H2 3726   1.973   0.421   5.164
 1257TIP3   OH2 3727   1.339   5.688   1.917
 1257TIP3    H1 3728   1.401   5.640   1.971
 1257TIP3    H2 3729   1.311   5.762   1.971
 1258TIP3   OH2 3730   7.177   5.592   5.948
 1258TIP3    H1 3731   7.096   5.639   5.932
 1258TIP3    H2 3732   7.192   5.543   5.867
 1259TIP3   OH2 3733   7.330   0.317   1.665
 1259TIP3    H1 3734   7.337   0.412   1.654
 1259TIP3    H2 3735   7.281   0.287   1.587
 1260TIP3   OH2 3736   0.701   1.490   2.659
 1260TIP3    H1 3737   0.698   1.419   2.595
 1260TIP3    H2 3738   0.640   1.462   2.728
 1261TIP3   OH2 3739   1.523   4.729   4.000
 1261TIP3    H1 3740   1.489   4.715   4.088
 1261TIP3    H2 3741   1.470   4.672   3.945
 1262TIP3   OH2 3742   3.325   4.365   4.314
 1262TIP3    H1 3743   3.382   4.311   4.259
 1262TIP3    H2 3744   3.383   4.401   4.380
 1263TIP3   OH2 3745   2.082   0.140   5.449
 1263TIP3    H1 3746   2.018   0.188   5.396
 1263TIP3    H2 3747   2.029   0.077   5.499
 1264TIP3   OH2 3748   3.965   1.907   2.800
 1264TIP3    H1 3749   4.012   1.977   2.846
 1264TIP3    H2 3750   3.981   1.925   2.707
 1265TIP3   OH2 3751   7.123   6.356   1.590
 1265TIP3    H1 3752   7.094   6.265   1.580
 1265TIP3    H2 3753   7.044   6.404   1.614
 1266TIP3   OH2 3754   1.308   0.757   5.035
 1266TIP3    H1 3755   1.366   0.789   4.966
 1266TIP3    H2 3756   1.366   0.709   5.094
 1267TIP3   OH2 3757   0.654   0.625   2.385
 1267TIP3    H1 3758   0.687   0.685   2.318
 1267TIP3    H2 3759   0.609   0.683   2.448
 1268TIP3   OH2 3760   6.674   0.631   5.253
 1268TIP3    H1 3761   6.742   0.628   5.185
 1268TIP3    H2 3762   6.724   0.632   5.335
 1269TIP3   OH2 3763   6.930   2.042   3.147
 1269TIP3    H1 3764   6.985   1.981   3.195
 1269TIP3    H2 3765   6.899   1.992   3.072
 1270TIP3   OH2 3766   5.952   6.802   1.322
 1270TIP3    H1 3767   5.987   6.747   1.393
 1270TIP3    H2 3768   5.924   6.883   1.366
 1271TIP3   OH2 3769   8.225   4.460   2.532
 1271TIP3    H1 3770   8.156   4.520   2.506
 1271TIP3    H2 3771   8.181   4.376   2.544
 1272TIP3   OH2 3772   2.842   1.390   2.521
 1272TIP3    H1 3773   2.875   1.319   2.576
 1272TIP3    H2 3774   2.921   1.434   2.489
 1273TIP3   OH2 3775   3.026   5.192   4.726
 1273TIP3    H1 3776   3.018   5.279   4.764
 1273TIP3    H2 3777   3.101   5.197   4.668
 1274TIP3   OH2 3778   1.883   6.470   3.041
 1274TIP3    H1 3779   1.813   6.525   3.075
 1274TIP3    H2 3780   1.949   6.470   3.110
 1275TIP3   OH2 3781   5.428   2.261   5.767
 1275TIP3    H1 3782   5.491   2.198   5.801
 1275TIP3    H2 3783   5.451   2.270   5.674
 1276TIP3   OH2 3784   6.819   6.206   2.670
 1276TIP3    H1 3785   6.817   6.235   2.761
 1276TIP3    H2 3786   6.889   6.141   2.667
 1277TIP3   OH2 3787   0.749   0.053   2.686
 1277TIP3    H1 3788   0.806   0.042   2.762
 1277TIP3    H2 3789   0.786   0.126   2.637
 1278TIP3   OH2 3790   4.686   1.139   1.234
 1278TIP3    H1 3791   4.745   1.134   1.309
 1278TIP3    H2 3792   4.740   1.113   1.159
 1279TIP3   OH2 3793   0.820   2.916   6.421
 1279TIP3    H1 3794   0.876   2.851   6.463
 1279TIP3    H2 3795   0.878   2.989   6.400
 1280TIP3   OH2 3796   5.827   0.715   5.342
 1280TIP3    H1 3797   5.918   0.695   5.318
 1280TIP3    H2 3798   5.828   0.808   5.363
 1281TIP3   OH2 3799   0.895   2.294   4.379
 1281TIP3    H1 3800   0.985   2.280   4.350
 1281TIP3    H2 3801   0.848   2.318   4.299
 1282TIP3   OH2 3802   4.114   7.306   5.349
 1282TIP3    H1 3803   4.070   7.250   5.285
 1282TIP3    H2 3804   4.152   7.377   5.297
 1283TIP3   OH2 3805   1.990   6.366   5.129
 1283TIP3    H1 3806   1.914   6.349   5.185
 1283TIP3    H2 3807   2.066   6.342   5.183
 1284TIP3   OH2 3808   7.383   0.596   3.666
 1284TIP3    H1 3809   7.404   0.672   3.721
 1284TIP3    H2 3810   7.289   0.604   3.648
 1285TIP3   OH2 3811   7.052   2.625   5.408
 1285TIP3    H1 3812   6.963   2.601   5.434
 1285TIP3    H2 3813   7.040   2.695   5.344
 1286TIP3   OH2 3814   2.489   7.434   0.834
 1286TIP3    H1 3815   2.522   7.357   0.881
 1286TIP3    H2 3816   2.498   7.410   0.741
 1287TIP3   OH2 3817   1.662   7.429   3.665
 1287TIP3    H1 3818   1.576   7.465   3.642
 1287TIP3    H2 3819   1.650   7.390   3.751
 1288TIP3   OH2 3820   7.085   2.226   6.203
 1288TIP3    H1 3821   7.018   2.228   6.135
 1288TIP3    H2 3822   7.124   2.313   6.200
 1289TIP3   OH2 3823   3.210   2.070   1.957
 1289TIP3    H1 3824   3.231   2.124   2.033
 1289TIP3    H2 3825   3.171   2.131   1.894
 1290TIP3   OH2 3826   3.757   7.386   6.258
 1290TIP3    H1 3827   3.801   7.322   6.202
 1290TIP3    H2 3828   3.789   7.367   6.346
 1291TIP3   OH2 3829   5.557   2.024   1.617
 1291TIP3    H1 3830   5.504   1.971   1.558
 1291TIP3    H2 3831   5.494   2.084   1.658
 1292TIP3   OH2 3832   8.059   1.298   4.317
 1292TIP3    H1 3833   8.113   1.335   4.247
 1292TIP3    H2 3834   8.107   1.219   4.344
 1293TIP3   OH2 3835   4.750   0.605   4.022
 1293TIP3    H1 3836   4.791   0.528   3.982
 1293TIP3    H2 3837   4.658   0.580   4.033
 1294TIP3   OH2 3838   2.688   4.943   5.322
 1294TIP3    H1 3839   2.633   4.972   5.250
 1294TIP3    H2 3840   2.728   5.023   5.357
 1295TIP3   OH2 3841   4.959   4.513   0.748
 1295TIP3    H1 3842   5.023   4.582   0.766
 1295TIP3    H2 3843   4.885   4.533   0.806
 1296TIP3   OH2 3844   7.128   3.987   2.752
 1296TIP3    H1 3845   7.049   3.972   2.803
 1296TIP3    H2 3846   7.196   4.003   2.817
 1297TIP3   OH2 3847   5.828   4.828   3.248
 1297TIP3    H1 3848   5.913   4.868   3.267
 1297TIP3    H2 3849   5.850   4.750   3.197
 1298TIP3   OH2 3850   5.941   5.426   1.576
 1298TIP3    H1 3851   5.913   5.465   1.659
 1298TIP3    H2 3852   6.018   5.478   1.550
 1299TIP3   OH2 3853   0.039   0.104   1.180
 1299TIP3    H1 3854   0.087   0.056   1.113
 1299TIP3    H2 3855  -0.036   0.048   1.201
 1300TIP3   OH2 3856   2.297   1.967   6.706
 1300TIP3    H1 3857   2.380   2.006   6.734
 1300TIP3    H2 3858   2.232   2.034   6.724
 1301TIP3   OH2 3859   7.998   5.696   3.560
 1301TIP3    H1 3860   8.017   5.612   3.519
 1301TIP3    H2 3861   8.038   5.690   3.647
 1302TIP3   OH2 3862   1.785   1.604   3.283
 1302TIP3    H1 3863   1.772   1.689   3.326
 1302TIP3    H2 3864   1.808   1.544   3.355
 1303TIP3   OH2 3865   4.903   5.860   3.583
 1303TIP3    H1 3866   4.942   5.944   3.608
 1303TIP3    H2 3867   4.963   5.794   3.618
 1304TIP3   OH2 3868   4.980   7.130   4.271
 1304TIP3    H1 3869   5.036   7.108   4.197
 1304TIP3    H2 3870   5.021   7.087   4.346
 1305TIP3   OH2 3871   7.096   0.069   5.922
 1305TIP3    H1 3872   7.072   0.004   5.856
 1305TIP3    H2 3873   7.020   0.127   5.927
 1306TIP3   OH2 3874   2.066   4.156   1.688
 1306TIP3    H1 3875   2.145   4.119   1.648
 1306TIP3    H2 3876   2.098   4.232   1.737
 1307TIP3   OH2 3877   3.065   4.983   1.717
 1307TIP3    H1 3878   3.078   5.021   1.804
 1307TIP3    H2 3879   2.999   4.915   1.730
 1308TIP3   OH2 3880   0.191   4.670   2.532
 1308TIP3    H1 3881   0.198   4.587   2.485
 1308TIP3    H2 3882   0.153   4.731   2.469
 1309TIP3   OH2 3883   0.545   3.568   2.325
 1309TIP3    H1 3884   0.540   3.485   2.277
 1309TIP3    H2 3885   0.578   3.631   2.261
 1310TIP3   OH2 3886   0.801   3.027   3.709
 1310TIP3    H1 3887   0.731   3.080   3.749
 1310TIP3    H2 3888   0.763   2.939   3.703
 1311TIP3   OH2 3889   6.072   2.225   4.026
 1311TIP3    H1 3890   6.140   2.158   4.035
 1311TIP3    H2 3891   5.993   2.177   4.002
 1312TIP3   OH2 3892   6.557   1.844   5.573
 1312TIP3    H1 3893   6.638   1.876   5.613
 1312TIP3    H2 3894   6.496   1.835   5.647
 1313TIP3   OH2 3895   7.786   7.391   2.668
 1313TIP3    H1 3896   7.788   7.452   2.742
 1313TIP3    H2 3897   7.739   7.439   2.599
 1314TIP3   OH2 3898   6.523   4.664   2.890
 1314TIP3    H1 3899   6.480   4.656   2.974
 1314TIP3    H2 3900   6.603   4.611   2.899
 1315TIP3   OH2 3901   1.964   0.932   6.591
 1315TIP3    H1 3902   1.992   1.018   6.558
 1315TIP3    H2 3903   2.033   0.872   6.563
 1316TIP3   OH2 3904   4.013   6.333   4.486
 1316TIP3    H1 3905   3.961   6.370   4.415
 1316TIP3    H2 3906   4.062   6.261   4.445
 1317TIP3   OH2 3907   4.454   5.661   2.379
 1317TIP3    H1 3908   4.486   5.631   2.464
 1317TIP3    H2 3909   4.383   5.601   2.357
 1318TIP3   OH2 3910   0.655   5.824   0.667
 1318TIP3    H1 3911   0.711   5.773   0.726
 1318TIP3    H2 3912   0.681   5.915   0.684
 1319TIP3   OH2 3913   7.994   5.125   0.251
 1319TIP3    H1 3914   8.011   5.040   0.210
 1319TIP3    H2 3915   8.022   5.189   0.186
 1320TIP3   OH2 3916   8.271   3.539   5.464
 1320TIP3    H1 3917   8.306   3.485   5.534
 1320TIP3    H2 3918   8.291   3.490   5.384
 1321TIP3   OH2 3919   2.478   7.458   0.233
 1321TIP3    H1 3920   2.450   7.369   0.211
 1321TIP3    H2 3921   2.569   7.463   0.204
 1322TIP3   OH2 3922   6.613   0.185   3.888
 1322TIP3    H1 3923   6.525   0.214   3.863
 1322TIP3    H2 3924   6.670   0.258   3.863
 1323TIP3   OH2 3925   1.053   7.294   4.903
 1323TIP3    H1 3926   1.064   7.376   4.854
 1323TIP3    H2 3927   0.967   7.302   4.944
 1324TIP3   OH2 3928   2.502   5.811   3.642
 1324TIP3    H1 3929   2.537   5.857   3.566
 1324TIP3    H2 3930   2.462   5.732   3.605
 1325TIP3   OH2 3931   0.674   7.525   3.275
 1325TIP3    H1 3932   0.721   7.491   3.351
 1325TIP3    H2 3933   0.643   7.611   3.302
 1326TIP3   OH2 3934   3.178   5.617   1.570
 1326TIP3    H1 3935   3.215   5.681   1.631
 1326TIP3    H2 3936   3.219   5.534   1.593
 1327TIP3   OH2 3937   3.626   3.536   4.164
 1327TIP3    H1 3938   3.534   3.560   4.177
 1327TIP3    H2 3939   3.624   3.442   4.143
 1328TIP3   OH2 3940   6.872   6.855   6.125
 1328TIP3    H1 3941   6.833   6.768   6.114
 1328TIP3    H2 3942   6.934   6.863   6.053
 1329TIP3   OH2 3943   4.298   1.457   6.793
 1329TIP3    H1 3944   4.308   1.548   6.764
 1329TIP3    H2 3945   4.377   1.413   6.761
 1330TIP3   OH2 3946   6.305   0.408   2.311
 1330TIP3    H1 3947   6.284   0.468   2.239
 1330TIP3    H2 3948   6.332   0.327   2.268
 1331TIP3   OH2 3949   0.250   7.671   6.164
 1331TIP3    H1 3950   0.157   7.652   6.165
 1331TIP3    H2 3951   0.276   7.671   6.256
 1332TIP3   OH2 3952   8.147   4.662   5.573
 1332TIP3    H1 3953   8.127   4.662   5.479
 1332TIP3    H2 3954   8.106   4.582   5.605
 1333TIP3   OH2 3955   1.354   6.246   3.799
 1333TIP3    H1 3956   1.282   6.182   3.793
 1333TIP3    H2 3957   1.326   6.319   3.743
 1334TIP3   OH2 3958   2.282   0.328   6.587
 1334TIP3    H1 3959   2.291   0.401   6.648
 1334TIP3    H2 3960   2.231   0.263   6.635
 1335TIP3   OH2 3961   2.205   1.213   1.632
 1335TIP3    H1 3962   2.293   1.190   1.602
 1335TIP3    H2 3963   2.157   1.130   1.632
 1336TIP3   OH2 3964   5.778   1.256   4.030
 1336TIP3    H1 3965   5.761   1.164   4.048
 1336TIP3    H2 3966   5.692   1.298   4.037
 1337TIP3   OH2 3967   2.917   4.191   4.872
 1337TIP3    H1 3968   2.915   4.097   4.889
 1337TIP3    H2 3969   2.887   4.199   4.781
 1338TIP3   OH2 3970   4.244   4.893   2.505
 1338TIP3    H1 3971   4.269   4.802   2.517
 1338TIP3    H2 3972   4.162   4.902   2.552
 1339TIP3   OH2 3973   4.693   1.076   6.727
 1339TIP3    H1 3974   4.740   1.092   6.809
 1339TIP3    H2 3975   4.602   1.095   6.748
 1340TIP3   OH2 3976   5.701   0.677   5.069
 1340TIP3    H1 3977   5.722   0.629   5.149
 1340TIP3    H2 3978   5.722   0.768   5.089
 1341TIP3   OH2 3979   1.486   1.951   1.264
 1341TIP3    H1 3980   1.469   2.003   1.342
 1341TIP3    H2 3981   1.470   2.011   1.191
 1342TIP3   OH2 3982   2.697   1.988   1.556
 1342TIP3    H1 3983   2.644   1.915   1.522
 1342TIP3    H2 3984   2.735   1.954   1.637
 1343TIP3   OH2 3985   6.631   5.243   0.849
 1343TIP3    H1 3986   6.593   5.157   0.870
 1343TIP3    H2 3987   6.725   5.231   0.862
 1344TIP3   OH2 3988   2.580   7.819   6.585
 1344TIP3    H1 3989   2.485   7.816   6.595
 1344TIP3    H2 3990   2.611   7.737   6.624
 1345TIP3   OH2 3991  -0.037   5.855   4.497
 1345TIP3    H1 3992  -0.078   5.844   4.583
 1345TIP3    H2 3993   0.055   5.830   4.510
 1346TIP3   OH2 3994   0.567   1.866   1.549
 1346TIP3    H1 3995   0.603   1.821   1.473
 1346TIP3    H2 3996   0.632   1.933   1.570
 1347TIP3   OH2 3997   3.318   1.295   0.069
 1347TIP3    H1 3998   3.401   1.323   0.030
 1347TIP3    H2 3999   3.261   1.276  -0.005
 1348TIP3   OH2 4000   6.082   1.116   6.018
 1348TIP3    H1 4001   6.021   1.185   5.992
 1348TIP3    H2 4002   6.163   1.137   5.972
 1349TIP3   OH2 4003   5.076   4.677   5.084
 1349TIP3    H1 4004   5.149   4.687   5.144
 1349TIP3    H2 4005   5.003   4.721   5.127
 1350TIP3   OH2 4006   2.719   3.998   6.518
 1350TIP3    H1 4007   2.729   4.086   6.483
 1350TIP3    H2 4008   2.808   3.970   6.538
 1351TIP3   OH2 4009   5.991   3.031   0.090
 1351TIP3    H1 4010   6.022   3.030   0.000
 1351TIP3    H2 4011   5.948   2.946   0.102
 1352TIP3   OH2 4012   3.734   0.688   2.475
 1352TIP3    H1 4013   3.796   0.735   2.419
 1352TIP3    H2 4014   3.685   0.633   2.415
 1353TIP3   OH2 4015   2.050   0.946   3.336
 1353TIP3    H1 4016   1.980   1.010   3.331
 1353TIP3    H2 4017   2.016   0.869   3.291
 1354TIP3   OH2 4018   2.665   2.746   3.424
 1354TIP3    H1 4019   2.570   2.742   3.411
 1354TIP3    H2 4020   2.679   2.823   3.479
 1355TIP3   OH2 4021   5.024   6.170   2.149
 1355TIP3    H1 4022   5.051   6.236   2.213
 1355TIP3    H2 4023   5.033   6.214   2.064
 1356TIP3   OH2 4024   7.123   4.776   1.493
 1356TIP3    H1 4025   7.047   4.732   1.531
 1356TIP3    H2 4026   7.154   4.835   1.562
 1357TIP3   OH2 4027   2.951   2.538   5.223
 1357TIP3    H1 4028   2.882   2.553   5.158
 1357TIP3    H2 4029   2.907   2.496   5.297
 1358TIP3   OH2 4030   0.197   3.696   5.861
 1358TIP3    H1 4031   0.146   3.736   5.789
 1358TIP3    H2 4032   0.272   3.655   5.817
 1359TIP3   OH2 4033   5.934   4.390   6.508
 1359TIP3    H1 4034   5.912   4.466   6.562
 1359TIP3    H2 4035   5.909   4.315   6.561
 1360TIP3   OH2 4036   1.731   4.583   4.222
 1360TIP3    H1 4037   1.799   4.549   4.280
 1360TIP3    H2 4038   1.780   4.628   4.153
 1361TIP3   OH2 4039   0.967   2.274   6.510
 1361TIP3    H1 4040   0.970   2.351   6.453
 1361TIP3    H2 4041   0.946   2.308   6.596
 1362TIP3   OH2 4042   5.721   4.463   4.082
 1362TIP3    H1 4043   5.672   4.445   4.163
 1362TIP3    H2 4044   5.777   4.386   4.071
 1363TIP3   OH2 4045   7.532   6.444   0.339
 1363TIP3    H1 4046   7.530   6.462   0.433
 1363TIP3    H2 4047   7.525   6.530   0.298
 1364TIP3   OH2 4048   3.198   6.759   0.047
 1364TIP3    H1 4049   3.240   6.839   0.015
 1364TIP3    H2 4050   3.270   6.708   0.083
 1365TIP3   OH2 4051   3.114   6.416   5.636
 1365TIP3    H1 4052   3.181   6.388   5.699
 1365TIP3    H2 4053   3.118   6.352   5.565
 1366TIP3   OH2 4054   4.473   5.591   5.901
 1366TIP3    H1 4055   4.455   5.660   5.837
 1366TIP3    H2 4056   4.545   5.541   5.862
 1367TIP3   OH2 4057   2.568   3.817   4.928
 1367TIP3    H1 4058   2.565   3.812   4.833
 1367TIP3    H2 4059   2.479   3.842   4.954
 1368TIP3   OH2 4060   5.819   0.084   3.509
 1368TIP3    H1 4061   5.905   0.114   3.482
 1368TIP3    H2 4062   5.789   0.150   3.571
 1369TIP3   OH2 4063   1.598   1.298   2.246
 1369TIP3    H1 4064   1.546   1.280   2.325
 1369TIP3    H2 4065   1.596   1.393   2.237
 1370TIP3   OH2 4066   5.637   1.535   6.208
 1370TIP3    H1 4067   5.652   1.440   6.202
 1370TIP3    H2 4068   5.600   1.548   6.295
 1371TIP3   OH2 4069   3.312   2.187   1.641
 1371TIP3    H1 4070   3.286   2.256   1.580
 1371TIP3    H2 4071   3.380   2.139   1.595
 1372TIP3   OH2 4072   1.621   4.122   3.991
 1372TIP3    H1 4073   1.575   4.075   3.922
 1372TIP3    H2 4074   1.671   4.189   3.945
 1373TIP3   OH2 4075   0.072   1.374   6.686
 1373TIP3    H1 4076   0.144   1.312   6.695
 1373TIP3    H2 4077   0.113   1.453   6.652
 1374TIP3   OH2 4078   3.480   3.777   2.362
 1374TIP3    H1 4079   3.457   3.688   2.335
 1374TIP3    H2 4080   3.564   3.768   2.407
 1375TIP3   OH2 4081   3.635   5.983   0.120
 1375TIP3    H1 4082   3.711   6.037   0.142
 1375TIP3    H2 4083   3.593   5.966   0.205
 1376TIP3   OH2 4084   1.076   2.076   5.073
 1376TIP3    H1 4085   1.018   2.070   4.997
 1376TIP3    H2 4086   1.032   2.137   5.132
 1377TIP3   OH2 4087   8.098   3.279   3.102
 1377TIP3    H1 4088   8.134   3.302   3.017
 1377TIP3    H2 4089   8.151   3.205   3.132
 1378TIP3   OH2 4090   6.187   1.728   2.583
 1378TIP3    H1 4091   6.203   1.821   2.601
 1378TIP3    H2 4092   6.093   1.717   2.597
 1379TIP3   OH2 4093   8.269   1.132   2.150
 1379TIP3    H1 4094   8.197   1.190   2.129
 1379TIP3    H2 4095   8.232   1.067   2.209
 1380TIP3   OH2 4096   2.685   2.834   4.869
 1380TIP3    H1 4097   2.617   2.900   4.873
 1380TIP3    H2 4098   2.642   2.753   4.895
 1381TIP3   OH2 4099   1.281   2.437   2.718
 1381TIP3    H1 4100   1.249   2.425   2.629
 1381TIP3    H2 4101   1.205   2.471   2.766
 1382TIP3   OH2 4102   5.011   7.351   1.438
 1382TIP3    H1 4103   4.933   7.317   1.481
 1382TIP3    H2 4104   5.076   7.281   1.446
 1383TIP3   OH2 4105   1.177   6.145   5.600
 1383TIP3    H1 4106   1.259   6.184   5.632
 1383TIP3    H2 4107   1.110   6.208   5.624
 1384TIP3   OH2 4108   6.562   6.181   6.604
 1384TIP3    H1 4109   6.528   6.092   6.618
 1384TIP3    H2 4110   6.623   6.172   6.530
 1385TIP3   OH2 4111   6.251   4.448   3.012
 1385TIP3    H1 4112   6.281   4.367   3.053
 1385TIP3    H2 4113   6.301   4.517   3.056
 1386TIP3   OH2 4114   2.104   7.721   1.917
 1386TIP3    H1 4115   2.170   7.729   1.848
 1386TIP3    H2 4116   2.136   7.777   1.988
 1387TIP3   OH2 4117   1.167   7.031   5.396
 1387TIP3    H1 4118   1.248   7.074   5.371
 1387TIP3    H2 4119   1.099   7.076   5.346
 1388TIP3   OH2 4120   0.377   3.103   0.837
 1388TIP3    H1 4121   0.468   3.112   0.864
 1388TIP3    H2 4122   0.375   3.023   0.785
 1389TIP3   OH2 4123   2.081   1.278   4.753
 1389TIP3    H1 4124   2.140   1.327   4.809
 1389TIP3    H2 4125   2.047   1.208   4.809
 1390TIP3   OH2 4126   1.425   3.581   2.398
 1390TIP3    H1 4127   1.352   3.520   2.412
 1390TIP3    H2 4128   1.470   3.548   2.321
 1391TIP3   OH2 4129   2.597   0.083   0.404
 1391TIP3    H1 4130   2.592   0.061   0.311
 1391TIP3    H2 4131   2.506   0.098   0.429
 1392TIP3   OH2 4132   1.748   5.637   1.796
 1392TIP3    H1 4133   1.722   5.549   1.769
 1392TIP3    H2 4134   1.747   5.634   1.891
 1393TIP3   OH2 4135   6.963   6.580   2.587
 1393TIP3    H1 4136   6.876   6.545   2.564
 1393TIP3    H2 4137   6.985   6.639   2.515
 1394TIP3   OH2 4138   6.078   4.404   1.452
 1394TIP3    H1 4139   6.048   4.424   1.363
 1394TIP3    H2 4140   6.000   4.370   1.496
 1395TIP3   OH2 4141   0.994   5.479   5.748
 1395TIP3    H1 4142   0.947   5.562   5.758
 1395TIP3    H2 4143   1.030   5.462   5.835
 1396TIP3   OH2 4144   7.857   7.305   3.257
 1396TIP3    H1 4145   7.900   7.234   3.305
 1396TIP3    H2 4146   7.916   7.380   3.268
 1397TIP3   OH2 4147   6.319   6.140   4.667
 1397TIP3    H1 4148   6.227   6.120   4.682
 1397TIP3    H2 4149   6.321   6.232   4.644
 1398TIP3   OH2 4150   0.076   7.473   2.884
 1398TIP3    H1 4151   0.133   7.463   2.808
 1398TIP3    H2 4152  -0.013   7.479   2.848
 1399TIP3   OH2 4153   3.873   1.363   6.026
 1399TIP3    H1 4154   3.808   1.299   6.056
 1399TIP3    H2 4155   3.821   1.434   5.989
 1400TIP3   OH2 4156   0.225   0.191   4.400
 1400TIP3    H1 4157   0.231   0.194   4.496
 1400TIP3    H2 4158   0.186   0.275   4.376
 1401TIP3   OH2 4159   6.533   1.598   4.369
 1401TIP3    H1 4160   6.611   1.545   4.351
 1401TIP3    H2 4161   6.467   1.564   4.308
 1402TIP3   OH2 4162   8.162   4.959   0.500
 1402TIP3    H1 4163   8.254   4.982   0.486
 1402TIP3    H2 4164   8.128   5.028   0.556
 1403TIP3   OH2 4165   7.689   4.087   3.623
 1403TIP3    H1 4166   7.687   4.155   3.690
 1403TIP3    H2 4167   7.742   4.123   3.553
 1404TIP3   OH2 4168   0.220   4.260   2.550
 1404TIP3    H1 4169   0.308   4.234   2.580
 1404TIP3    H2 4170   0.227   4.262   2.455
 1405TIP3   OH2 4171   6.963   7.312   5.290
 1405TIP3    H1 4172   7.008   7.228   5.302
 1405TIP3    H2 4173   6.980   7.335   5.199
 1406TIP3   OH2 4174   6.056   4.633   3.936
 1406TIP3    H1 4175   6.092   4.651   4.023
 1406TIP3    H2 4176   6.073   4.712   3.885
 1407TIP3   OH2 4177   8.212   3.013   2.549
 1407TIP3    H1 4178   8.275   2.989   2.481
 1407TIP3    H2 4179   8.249   3.093   2.588
 1408TIP3   OH2 4180   8.078   0.403   4.270
 1408TIP3    H1 4181   8.114   0.334   4.324
 1408TIP3    H2 4182   8.094   0.374   4.180
 1409TIP3   OH2 4183   4.245   2.759   2.263
 1409TIP3    H1 4184   4.202   2.827   2.211
 1409TIP3    H2 4185   4.314   2.807   2.311
 1410TIP3   OH2 4186   5.673   3.920   4.904
 1410TIP3    H1 4187   5.592   3.870   4.908
 1410TIP3    H2 4188   5.703   3.925   4.995
 1411TIP3   OH2 4189   4.397   3.650   3.087
 1411TIP3    H1 4190   4.403   3.676   3.179
 1411TIP3    H2 4191   4.472   3.694   3.045
 1412TIP3   OH2 4192   4.905   1.143   2.595
 1412TIP3    H1 4193   4.851   1.130   2.673
 1412TIP3    H2 4194   4.981   1.192   2.625
 1413TIP3   OH2 4195   1.594   7.203   1.614
 1413TIP3    H1 4196   1.685   7.217   1.639
 1413TIP3    H2 4197   1.553   7.289   1.624
 1414TIP3   OH2 4198   2.601   5.579   1.414
 1414TIP3    H1 4199   2.604   5.596   1.508
 1414TIP3    H2 4200   2.645   5.494   1.404
 1415TIP3   OH2 4201   7.728   1.482   0.469
 1415TIP3    H1 4202   7.685   1.397   0.473
 1415TIP3    H2 4203   7.666   1.543   0.509
 1416TIP3   OH2 4204   2.434   6.490   4.592
 1416TIP3    H1 4205   2.408   6.543   4.516
 1416TIP3    H2 4206   2.477   6.552   4.651
 1417TIP3   OH2 4207   6.528   0.490   3.260
 1417TIP3    H1 4208   6.523   0.505   3.165
 1417TIP3    H2 4209   6.543   0.396   3.268
 1418TIP3   OH2 4210   0.957   2.333   0.018
 1418TIP3    H1 4211   1.020   2.324   0.090
 1418TIP3    H2 4212   0.887   2.270   0.039
 1419TIP3   OH2 4213   4.903   5.101   3.780
 1419TIP3    H1 4214   4.936   5.116   3.869
 1419TIP3    H2 4215   4.921   5.183   3.733
 1420TIP3   OH2 4216   5.950   3.741   3.300
 1420TIP3    H1 4217   5.943   3.831   3.269
 1420TIP3    H2 4218   5.886   3.692   3.248
 1421TIP3   OH2 4219   1.304   1.385   4.641
 1421TIP3    H1 4220   1.291   1.303   4.688
 1421TIP3    H2 4221   1.397   1.404   4.649
 1422TIP3   OH2 4222   4.940   5.862   4.966
 1422TIP3    H1 4223   4.893   5.932   4.921
 1422TIP3    H2 4224   5.021   5.904   4.997
 1423TIP3   OH2 4225   0.913   3.139   4.257
 1423TIP3    H1 4226   1.001   3.122   4.292
 1423TIP3    H2 4227   0.928   3.157   4.164
 1424TIP3   OH2 4228   5.329   1.185   3.652
 1424TIP3    H1 4229   5.237   1.187   3.627
 1424TIP3    H2 4230   5.366   1.266   3.616
 1425TIP3   OH2 4231   3.559   4.572   1.039
 1425TIP3    H1 4232   3.528   4.659   1.011
 1425TIP3    H2 4233   3.479   4.521   1.050
 1426TIP3   OH2 4234   7.546   5.832   2.180
 1426TIP3    H1 4235   7.582   5.745   2.198
 1426TIP3    H2 4236   7.502   5.822   2.096
 1427TIP3   OH2 4237   2.885   5.931   6.402
 1427TIP3    H1 4238   2.916   5.868   6.338
 1427TIP3    H2 4239   2.947   6.004   6.396
 1428TIP3   OH2 4240   5.946   5.733   1.950
 1428TIP3    H1 4241   5.994   5.653   1.927
 1428TIP3    H2 4242   5.992   5.768   2.025
 1429TIP3   OH2 4243   0.734   6.674   2.069
 1429TIP3    H1 4244   0.727   6.686   1.974
 1429TIP3    H2 4245   0.760   6.583   2.080
 1430TIP3   OH2 4246   1.080   0.124   6.383
 1430TIP3    H1 4247   0.988   0.142   6.363
 1430TIP3    H2 4248   1.123   0.210   6.376
 1431TIP3   OH2 4249   0.121   3.033   2.237
 1431TIP3    H1 4250   0.040   2.986   2.220
 1431TIP3    H2 4251   0.098   3.125   2.226
 1432TIP3   OH2 4252   7.953   2.063   4.635
 1432TIP3    H1 4253   7.935   2.023   4.550
 1432TIP3    H2 4254   8.048   2.059   4.644
 1433TIP3   OH2 4255   6.738   6.182   0.531
 1433TIP3    H1 4256   6.719   6.091   0.554
 1433TIP3    H2 4257   6.787   6.176   0.449
 1434TIP3   OH2 4258   1.878   1.945   2.474
 1434TIP3    H1 4259   1.961   1.936   2.519
 1434TIP3    H2 4260   1.873   1.869   2.416
 1435TIP3   OH2 4261   1.427   3.192   0.860
 1435TIP3    H1 4262   1.428   3.206   0.954
 1435TIP3    H2 4263   1.336   3.173   0.839
 1436TIP3   OH2 4264   5.546   3.962   5.182
 1436TIP3    H1 4265   5.474   3.985   5.240
 1436TIP3    H2 4266   5.624   3.963   5.238
 1437TIP3   OH2 4267   3.307   4.923   3.054
 1437TIP3    H1 4268   3.380   4.908   2.994
 1437TIP3    H2 4269   3.264   4.838   3.062
 1438TIP3   OH2 4270   4.908   2.708   5.682
 1438TIP3    H1 4271   4.952   2.730   5.600
 1438TIP3    H2 4272   4.927   2.615   5.695
 1439TIP3   OH2 4273   4.272   4.021   5.015
 1439TIP3    H1 4274   4.253   4.109   4.982
 1439TIP3    H2 4275   4.202   4.004   5.078
 1440TIP3   OH2 4276   4.856   2.555   6.075
 1440TIP3    H1 4277   4.769   2.522   6.054
 1440TIP3    H2 4278   4.867   2.631   6.018
 1441TIP3   OH2 4279   1.564   6.833   5.601
 1441TIP3    H1 4280   1.549   6.799   5.513
 1441TIP3    H2 4281   1.630   6.775   5.639
 1442TIP3   OH2 4282   5.173   5.031   6.237
 1442TIP3    H1 4283   5.252   5.084   6.245
 1442TIP3    H2 4284   5.191   4.972   6.164
 1443TIP3   OH2 4285   5.561   5.909   6.102
 1443TIP3    H1 4286   5.650   5.931   6.074
 1443TIP3    H2 4287   5.514   5.993   6.101
 1444TIP3   OH2 4288   6.494   7.292   1.387
 1444TIP3    H1 4289   6.434   7.311   1.460
 1444TIP3    H2 4290   6.466   7.350   1.317
 1445TIP3   OH2 4291   0.504   1.261   6.495
 1445TIP3    H1 4292   0.461   1.197   6.553
 1445TIP3    H2 4293   0.444   1.336   6.494
 1446TIP3   OH2 4294   4.646   0.198   2.889
 1446TIP3    H1 4295   4.577   0.234   2.833
 1446TIP3    H2 4296   4.717   0.175   2.828
 1447TIP3   OH2 4297   5.370   5.083   2.720
 1447TIP3    H1 4298   5.313   5.131   2.781
 1447TIP3    H2 4299   5.458   5.111   2.743
 1448TIP3   OH2 4300   7.226   6.492   4.875
 1448TIP3    H1 4301   7.313   6.532   4.869
 1448TIP3    H2 4302   7.237   6.405   4.836
 1449TIP3   OH2 4303   4.660   1.867   4.699
 1449TIP3    H1 4304   4.589   1.895   4.640
 1449TIP3    H2 4305   4.631   1.894   4.786
 1450TIP3   OH2 4306   6.602   3.579   2.562
 1450TIP3    H1 4307   6.510   3.607   2.555
 1450TIP3    H2 4308   6.652   3.657   2.539
 1451TIP3   OH2 4309   4.814   6.296   0.288
 1451TIP3    H1 4310   4.812   6.206   0.319
 1451TIP3    H2 4311   4.892   6.333   0.329
 1452TIP3   OH2 4312   6.727   6.431   2.582
 1452TIP3    H1 4313   6.770   6.353   2.616
 1452TIP3    H2 4314   6.726   6.419   2.487
 1453TIP3   OH2 4315   3.094   5.088   3.046
 1453TIP3    H1 4316   3.015   5.036   3.058
 1453TIP3    H2 4317   3.166   5.026   3.057
 1454TIP3   OH2 4318   0.772   2.899   2.814
 1454TIP3    H1 4319   0.689   2.871   2.853
 1454TIP3    H2 4320   0.827   2.923   2.889
 1455TIP3   OH2 4321   5.307   3.940   4.110
 1455TIP3    H1 4322   5.307   3.846   4.128
 1455TIP3    H2 4323   5.239   3.975   4.168
 1456TIP3   OH2 4324   3.127   7.168   2.830
 1456TIP3    H1 4325   3.168   7.150   2.915
 1456TIP3    H2 4326   3.040   7.201   2.853
 1457TIP3   OH2 4327   3.968   0.342   5.591
 1457TIP3    H1 4328   3.902   0.338   5.521
 1457TIP3    H2 4329   4.010   0.427   5.579
 1458TIP3   OH2 4330   7.549   1.748   1.909
 1458TIP3    H1 4331   7.584   1.751   1.998
 1458TIP3    H2 4332   7.581   1.666   1.873
 1459TIP3   OH2 4333   0.329   7.858   0.853
 1459TIP3    H1 4334   0.379   7.811   0.786
 1459TIP3    H2 4335   0.286   7.789   0.904
 1460TIP3   OH2 4336   4.715   3.732   3.063
 1460TIP3    H1 4337   4.758   3.647   3.074
 1460TIP3    H2 4338   4.720   3.773   3.150
 1461TIP3   OH2 4339   3.996   4.893   5.755
 1461TIP3    H1 4340   3.945   4.817   5.728
 1461TIP3    H2 4341   4.086   4.872   5.728
 1462TIP3   OH2 4342   2.932   5.747   2.522
 1462TIP3    H1 4343   2.849   5.764   2.478
 1462TIP3    H2 4344   2.952   5.828   2.568
 1463TIP3   OH2 4345   0.550   6.261   2.854
 1463TIP3    H1 4346   0.589   6.247   2.940
 1463TIP3    H2 4347   0.468   6.308   2.871
 1464TIP3   OH2 4348   4.093   5.631   4.446
 1464TIP3    H1 4349   4.124   5.711   4.487
 1464TIP3    H2 4350   4.005   5.653   4.415
 1465TIP3   OH2 4351   3.999   0.583   2.839
 1465TIP3    H1 4352   3.996   0.601   2.933
 1465TIP3    H2 4353   3.935   0.513   2.826
 1466TIP3   OH2 4354   7.773   0.754   0.343
 1466TIP3    H1 4355   7.824   0.833   0.363
 1466TIP3    H2 4356   7.827   0.682   0.376
 1467TIP3   OH2 4357   6.045   2.983   2.343
 1467TIP3    H1 4358   5.982   3.041   2.301
 1467TIP3    H2 4359   6.036   3.000   2.436
 1468TIP3   OH2 4360   7.992   7.743   3.079
 1468TIP3    H1 4361   8.019   7.767   3.168
 1468TIP3    H2 4362   8.045   7.799   3.022
 1469TIP3   OH2 4363   0.750   3.091   4.896
 1469TIP3    H1 4364   0.665   3.130   4.876
 1469TIP3    H2 4365   0.780   3.057   4.812
 1470TIP3   OH2 4366   6.463   2.193   4.808
 1470TIP3    H1 4367   6.544   2.236   4.835
 1470TIP3    H2 4368   6.484   2.100   4.807
 1471TIP3   OH2 4369   1.589   1.080   6.321
 1471TIP3    H1 4370   1.641   1.126   6.385
 1471TIP3    H2 4371   1.644   1.006   6.293
 1472TIP3   OH2 4372   2.306   2.903   3.825
 1472TIP3    H1 4373   2.325   2.914   3.918
 1472TIP3    H2 4374   2.343   2.817   3.803
 1473TIP3   OH2 4375   1.265   5.784   6.321
 1473TIP3    H1 4376   1.351   5.757   6.354
 1473TIP3    H2 4377   1.248   5.867   6.365
 1474TIP3   OH2 4378   2.162   6.702   6.122
 1474TIP3    H1 4379   2.176   6.774   6.062
 1474TIP3    H2 4380   2.190   6.736   6.207
 1475TIP3   OH2 4381   2.667   6.759   1.566
 1475TIP3    H1 4382   2.752   6.738   1.606
 1475TIP3    H2 4383   2.645   6.845   1.601
 1476TIP3   OH2 4384   8.238   6.803   2.537
 1476TIP3    H1 4385   8.202   6.714   2.526
 1476TIP3    H2 4386   8.173   6.859   2.494
 1477TIP3   OH2 4387   1.198   2.031   1.395
 1477TIP3    H1 4388   1.220   2.084   1.319
 1477TIP3    H2 4389   1.121   2.074   1.433
 1478TIP3   OH2 4390   3.505   7.346   2.738
 1478TIP3    H1 4391   3.458   7.263   2.735
 1478TIP3    H2 4392   3.592   7.326   2.703
 1479TIP3   OH2 4393   5.753   0.223   5.925
 1479TIP3    H1 4394   5.784   0.282   5.994
 1479TIP3    H2 4395   5.659   0.240   5.919
 1480TIP3   OH2 4396   5.756   3.362   6.343
 1480TIP3    H1 4397   5.682   3.411   6.307
 1480TIP3    H2 4398   5.752   3.378   6.437
 1481TIP3   OH2 4399   4.877   7.427   2.626
 1481TIP3    H1 4400   4.856   7.481   2.702
 1481TIP3    H2 4401   4.798   7.376   2.610
 1482TIP3   OH2 4402   4.745   7.799   6.163
 1482TIP3    H1 4403   4.653   7.821   6.174
 1482TIP3    H2 4404   4.792   7.877   6.191
 1483TIP3   OH2 4405   4.743   1.953   0.008
 1483TIP3    H1 4406   4.676   1.999   0.057
 1483TIP3    H2 4407   4.708   1.864  -0.003
 1484TIP3   OH2 4408   6.896   3.460   0.986
 1484TIP3    H1 4409   6.842   3.382   0.989
 1484TIP3    H2 4410   6.864   3.514   1.059
 1485TIP3   OH2 4411   1.249   2.992   1.459
 1485TIP3    H1 4412   1.321   3.022   1.516
 1485TIP3    H2 4413   1.286   2.994   1.371
 1486TIP3   OH2 4414   6.641   1.734   1.343
 1486TIP3    H1 4415   6.727   1.773   1.357
 1486TIP3    H2 4416   6.658   1.655   1.293
 1487TIP3   OH2 4417   4.816   7.106   5.868
 1487TIP3    H1 4418   4.783   7.097   5.778
 1487TIP3    H2 4419   4.897   7.156   5.860
 1488TIP3   OH2 4420   1.544   3.264   4.168
 1488TIP3    H1 4421   1.536   3.336   4.106
 1488TIP3    H2 4422   1.464   3.213   4.157
 1489TIP3   OH2 4423   1.123   1.764   1.150
 1489TIP3    H1 4424   1.192   1.715   1.105
 1489TIP3    H2 4425   1.145   1.758   1.243
 1490TIP3   OH2 4426   7.892   5.165   5.258
 1490TIP3    H1 4427   7.865   5.200   5.173
 1490TIP3    H2 4428   7.987   5.176   5.259
 1491TIP3   OH2 4429   2.966   3.387   1.328
 1491TIP3    H1 4430   3.014   3.369   1.409
 1491TIP3    H2 4431   2.880   3.347   1.342
 1492TIP3   OH2 4432   4.329   0.313   1.313
 1492TIP3    H1 4433   4.387   0.237   1.316
 1492TIP3    H2 4434   4.362   0.366   1.241
 1493TIP3   OH2 4435   0.920   4.505   3.272
 1493TIP3    H1 4436   0.880   4.524   3.357
 1493TIP3    H2 4437   0.924   4.410   3.268
 1494TIP3   OH2 4438   7.554   3.982   1.319
 1494TIP3    H1 4439   7.538   3.934   1.238
 1494TIP3    H2 4440   7.469   3.984   1.363
 1495TIP3   OH2 4441   6.680   2.684   2.323
 1495TIP3    H1 4442   6.768   2.675   2.360
 1495TIP3    H2 4443   6.649   2.769   2.354
 1496TIP3   OH2 4444   0.042   1.083   1.522
 1496TIP3    H1 4445  -0.049   1.072   1.548
 1496TIP3    H2 4446   0.038   1.108   1.430
 1497TIP3   OH2 4447   1.608   2.258   3.347
 1497TIP3    H1 4448   1.587   2.342   3.389
 1497TIP3    H2 4449   1.528   2.232   3.301
 1498TIP3   OH2 4450   1.931   6.088   4.358
 1498TIP3    H1 4451   1.932   6.144   4.280
 1498TIP3    H2 4452   1.957   6.146   4.429
 1499TIP3   OH2 4453   6.178   2.452   2.073
 1499TIP3    H1 4454   6.246   2.396   2.034
 1499TIP3    H2 4455   6.210   2.470   2.162
 1500TIP3   OH2 4456   7.458   1.100   5.287
 1500TIP3    H1 4457   7.446   1.020   5.235
 1500TIP3    H2 4458   7.518   1.073   5.357
 1501TIP3   OH2 4459   2.811   1.859   3.821
 1501TIP3    H1 4460   2.717   1.844   3.809
 1501TIP3    H2 4461   2.833   1.811   3.901
 1502TIP3   OH2 4462   3.975   1.988   5.006
 1502TIP3    H1 4463   3.994   2.026   5.092
 1502TIP3    H2 4464   3.963   1.895   5.023
 1503TIP3   OH2 4465   0.684   3.716   2.955
 1503TIP3    H1 4466   0.697   3.676   3.041
 1503TIP3    H2 4467   0.729   3.800   2.960
 1504TIP3   OH2 4468   2.203   4.769   6.328
 1504TIP3    H1 4469   2.181   4.779   6.420
 1504TIP3    H2 4470   2.118   4.766   6.283
 1505TIP3   OH2 4471   6.903   0.379   2.943
 1505TIP3    H1 4472   6.833   0.325   2.977
 1505TIP3    H2 4473   6.904   0.361   2.849
 1506TIP3   OH2 4474   1.992   3.086   6.000
 1506TIP3    H1 4475   2.047   3.106   6.075
 1506TIP3    H2 4476   2.019   2.998   5.973
 1507TIP3   OH2 4477   4.491   6.652   3.612
 1507TIP3    H1 4478   4.518   6.565   3.642
 1507TIP3    H2 4479   4.552   6.672   3.541
 1508TIP3   OH2 4480   7.780  -0.005   6.367
 1508TIP3    H1 4481   7.725   0.071   6.347
 1508TIP3    H2 4482   7.870   0.025   6.350
 1509TIP3   OH2 4483   2.379   4.429   3.166
 1509TIP3    H1 4484   2.313   4.496   3.147
 1509TIP3    H2 4485   2.419   4.410   3.081
 1510TIP3   OH2 4486   6.984   5.804   2.538
 1510TIP3    H1 4487   6.890   5.783   2.538
 1510TIP3    H2 4488   7.025   5.727   2.577
 1511TIP3   OH2 4489   0.579   7.480   4.444
 1511TIP3    H1 4490   0.551   7.399   4.402
 1511TIP3    H2 4491   0.536   7.479   4.530
 1512TIP3   OH2 4492   6.304   1.342   0.171
 1512TIP3    H1 4493   6.397   1.364   0.182
 1512TIP3    H2 4494   6.259   1.426   0.176
 1513TIP3   OH2 4495   2.256   4.990   1.384
 1513TIP3    H1 4496   2.169   5.017   1.411
 1513TIP3    H2 4497   2.306   5.071   1.376
 1514TIP3   OH2 4498   4.388   2.395   4.504
 1514TIP3    H1 4499   4.445   2.470   4.522
 1514TIP3    H2 4500   4.446   2.319   4.504
 1515TIP3   OH2 4501   3.366   5.986   4.863
 1515TIP3    H1 4502   3.312   5.940   4.799
 1515TIP3    H2 4503   3.352   5.937   4.945
 1516TIP3   OH2 4504   5.738   6.153   4.893
 1516TIP3    H1 4505   5.797   6.091   4.851
 1516TIP3    H2 4506   5.700   6.104   4.966
 1517TIP3   OH2 4507   1.670   2.193   1.521
 1517TIP3    H1 4508   1.744   2.132   1.515
 1517TIP3    H2 4509   1.593   2.136   1.524
 1518TIP3   OH2 4510   5.097   0.581   5.883
 1518TIP3    H1 4511   5.150   0.649   5.842
 1518TIP3    H2 4512   5.116   0.589   5.977
 1519TIP3   OH2 4513   4.890   7.620   2.840
 1519TIP3    H1 4514   4.970   7.600   2.889
 1519TIP3    H2 4515   4.915   7.694   2.784
 1520TIP3   OH2 4516   2.591   2.792   0.019
 1520TIP3    H1 4517   2.575   2.836  -0.064
 1520TIP3    H2 4518   2.658   2.844   0.062
 1521TIP3   OH2 4519   3.852   2.441   0.480
 1521TIP3    H1 4520   3.798   2.364   0.464
 1521TIP3    H2 4521   3.804   2.490   0.547
 1522TIP3   OH2 4522   5.877   0.097   0.380
 1522TIP3    H1 4523   5.950   0.065   0.434
 1522TIP3    H2 4524   5.863   0.187   0.410
 1523TIP3   OH2 4525   7.316   4.360   3.721
 1523TIP3    H1 4526   7.306   4.446   3.761
 1523TIP3    H2 4527   7.249   4.357   3.653
 1524TIP3   OH2 4528   5.089   5.832   1.065
 1524TIP3    H1 4529   5.052   5.745   1.084
 1524TIP3    H2 4530   5.183   5.821   1.077
 1525TIP3   OH2 4531   0.578   3.870   3.294
 1525TIP3    H1 4532   0.535   3.890   3.211
 1525TIP3    H2 4533   0.575   3.952   3.343
 1526TIP3   OH2 4534   5.788   7.101   0.194
 1526TIP3    H1 4535   5.840   7.149   0.130
 1526TIP3    H2 4536   5.716   7.063   0.143
 1527TIP3   OH2 4537   6.190   7.704   1.320
 1527TIP3    H1 4538   6.134   7.729   1.246
 1527TIP3    H2 4539   6.169   7.767   1.389
 1528TIP3   OH2 4540   3.774   1.143   2.425
 1528TIP3    H1 4541   3.738   1.082   2.360
 1528TIP3    H2 4542   3.861   1.109   2.443
 1529TIP3   OH2 4543   0.420   1.328   4.319
 1529TIP3    H1 4544   0.504   1.293   4.289
 1529TIP3    H2 4545   0.444   1.398   4.380
 1530TIP3   OH2 4546   6.308   7.218   4.667
 1530TIP3    H1 4547   6.304   7.165   4.746
 1530TIP3    H2 4548   6.335   7.305   4.698
 1531TIP3   OH2 4549   5.698   1.520   2.021
 1531TIP3    H1 4550   5.743   1.453   2.073
 1531TIP3    H2 4551   5.608   1.488   2.013
 1532TIP3   OH2 4552   0.784   4.318   0.658
 1532TIP3    H1 4553   0.794   4.233   0.615
 1532TIP3    H2 4554   0.839   4.378   0.607
 1533TIP3   OH2 4555   5.979   4.521   0.253
 1533TIP3    H1 4556   6.029   4.448   0.291
 1533TIP3    H2 4557   5.955   4.491   0.165
 1534TIP3   OH2 4558   1.976   4.452   3.866
 1534TIP3    H1 4559   1.895   4.404   3.844
 1534TIP3    H2 4560   2.039   4.383   3.887
 1535TIP3   OH2 4561   7.781   4.540   5.747
 1535TIP3    H1 4562   7.867   4.578   5.764
 1535TIP3    H2 4563   7.719   4.612   5.759
 1536TIP3   OH2 4564   7.855   5.971   6.490
 1536TIP3    H1 4565   7.835   5.879   6.509
 1536TIP3    H2 4566   7.802   5.991   6.413
 1537TIP3   OH2 4567   7.222   1.003   3.935
 1537TIP3    H1 4568   7.307   1.011   3.980
 1537TIP3    H2 4569   7.172   1.078   3.966
 1538TIP3   OH2 4570   1.742   4.729   2.011
 1538TIP3    H1 4571   1.668   4.756   2.065
 1538TIP3    H2 4572   1.737   4.634   2.008
 1539TIP3   OH2 4573   5.902   0.230   3.235
 1539TIP3    H1 4574   5.935   0.203   3.321
 1539TIP3    H2 4575   5.928   0.322   3.227
 1540TIP3   OH2 4576   4.993   7.899   3.065
 1540TIP3    H1 4577   4.970   7.901   2.972
 1540TIP3    H2 4578   5.010   7.807   3.084
 1541TIP3   OH2 4579   2.424   6.570   5.648
 1541TIP3    H1 4580   2.407   6.583   5.554
 1541TIP3    H2 4581   2.374   6.491   5.670
 1542TIP3   OH2 4582   1.301   1.321   2.927
 1542TIP3    H1 4583   1.209   1.294   2.922
 1542TIP3    H2 4584   1.302   1.388   2.995
 1543TIP3   OH2 4585   2.452   3.834   2.721
 1543TIP3    H1 4586   2.400   3.912   2.739
 1543TIP3    H2 4587   2.531   3.845   2.775
 1544TIP3   OH2 4588   5.650   5.086   0.121
 1544TIP3    H1 4589   5.610   5.112   0.204
 1544TIP3    H2 4590   5.580   5.092   0.057
 1545TIP3   OH2 4591   0.675   0.873   2.225
 1545TIP3    H1 4592   0.741   0.893   2.291
 1545TIP3    H2 4593   0.611   0.944   2.231
 1546TIP3   OH2 4594   4.436   3.893   5.354
 1546TIP3    H1 4595   4.444   3.848   5.270
 1546TIP3    H2 4596   4.512   3.951   5.358
 1547TIP3   OH2 4597   3.639   3.226   6.598
 1547TIP3    H1 4598   3.609   3.316   6.582
 1547TIP3    H2 4599   3.559   3.175   6.608
 1548TIP3   OH2 4600   7.920   1.417   2.063
 1548TIP3    H1 4601   7.873   1.400   2.145
 1548TIP3    H2 4602   8.010   1.434   2.090
 1549TIP3   OH2 4603   6.161   7.278   2.263
 1549TIP3    H1 4604   6.106   7.242   2.194
 1549TIP3    H2 4605   6.100   7.307   2.331
 1550TIP3   OH2 4606   6.016   4.986   1.034
 1550TIP3    H1 4607   6.044   5.067   0.992
 1550TIP3    H2 4608   6.053   4.990   1.122
 1551TIP3   OH2 4609   7.571   3.325   3.461
 1551TIP3    H1 4610   7.589   3.326   3.555
 1551TIP3    H2 4611   7.566   3.417   3.437
 1552TIP3   OH2 4612   7.131   3.919   6.217
 1552TIP3    H1 4613   7.121   4.001   6.169
 1552TIP3    H2 4614   7.097   3.852   6.158
 1553TIP3   OH2 4615   4.447   5.403   3.079
 1553TIP3    H1 4616   4.458   5.495   3.102
 1553TIP3    H2 4617   4.399   5.405   2.996
 1554TIP3   OH2 4618   6.981   4.751   5.593
 1554TIP3    H1 4619   7.053   4.808   5.568
 1554TIP3    H2 4620   6.958   4.778   5.682
 1555TIP3   OH2 4621   6.849   7.085   5.127
 1555TIP3    H1 4622   6.837   7.111   5.036
 1555TIP3    H2 4623   6.890   6.999   5.123
 1556TIP3   OH2 4624   4.541   6.655   2.901
 1556TIP3    H1 4625   4.561   6.715   2.830
 1556TIP3    H2 4626   4.468   6.602   2.867
 1557TIP3   OH2 4627   3.642   6.438   3.326
 1557TIP3    H1 4628   3.614   6.350   3.303
 1557TIP3    H2 4629   3.691   6.469   3.249
 1558TIP3   OH2 4630   7.581   7.726   4.241
 1558TIP3    H1 4631   7.584   7.822   4.247
 1558TIP3    H2 4632   7.510   7.701   4.301
 1559TIP3   OH2 4633   1.838   1.319   1.303
 1559TIP3    H1 4634   1.788   1.237   1.300
 1559TIP3    H2 4635   1.772   1.387   1.294
 1560TIP3   OH2 4636   2.806   3.887   4.285
 1560TIP3    H1 4637   2.879   3.861   4.230
 1560TIP3    H2 4638   2.753   3.944   4.229
 1561TIP3   OH2 4639   6.284   5.236   3.781
 1561TIP3    H1 4640   6.197   5.218   3.816
 1561TIP3    H2 4641   6.335   5.265   3.856
 1562TIP3   OH2 4642   2.685   7.374   1.217
 1562TIP3    H1 4643   2.727   7.321   1.285
 1562TIP3    H2 4644   2.733   7.457   1.217
 1563TIP3   OH2 4645   2.412   7.610   0.458
 1563TIP3    H1 4646   2.445   7.565   0.380
 1563TIP3    H2 4647   2.317   7.595   0.456
 1564TIP3   OH2 4648   1.282   2.332   5.874
 1564TIP3    H1 4649   1.314   2.242   5.867
 1564TIP3    H2 4650   1.275   2.348   5.968
 1565TIP3   OH2 4651   0.492   0.698   5.832
 1565TIP3    H1 4652   0.587   0.691   5.842
 1565TIP3    H2 4653   0.480   0.771   5.771
 1566TIP3   OH2 4654   3.778   7.819   0.701
 1566TIP3    H1 4655   3.814   7.768   0.629
 1566TIP3    H2 4656   3.854   7.862   0.740
 1567TIP3   OH2 4657   1.672   1.173   2.021
 1567TIP3    H1 4658   1.601   1.114   1.995
 1567TIP3    H2 4659   1.638   1.220   2.097
 1568TIP3   OH2 4660   7.702   7.656   3.686
 1568TIP3    H1 4661   7.722   7.742   3.723
 1568TIP3    H2 4662   7.622   7.629   3.731
 1569TIP3   OH2 4663   7.230   2.369   5.018
 1569TIP3    H1 4664   7.144   2.411   5.014
 1569TIP3    H2 4665   7.246   2.341   4.928
 1570TIP3   OH2 4666   4.598   3.220   2.292
 1570TIP3    H1 4667   4.609   3.310   2.324
 1570TIP3    H2 4668   4.639   3.220   2.206
 1571TIP3   OH2 4669   8.150   4.812   5.997
 1571TIP3    H1 4670   8.131   4.903   5.974
 1571TIP3    H2 4671   8.095   4.795   6.074
 1572TIP3   OH2 4672   2.225   6.856   0.619
 1572TIP3    H1 4673   2.223   6.902   0.535
 1572TIP3    H2 4674   2.200   6.923   0.683
 1573TIP3   OH2 4675   8.145   6.715   4.358
 1573TIP3    H1 4676   8.082   6.645   4.377
 1573TIP3    H2 4677   8.127   6.740   4.268
 1574TIP3   OH2 4678   7.186   2.132   2.954
 1574TIP3    H1 4679   7.246   2.185   2.901
 1574TIP3    H2 4680   7.155   2.193   3.022
 1575TIP3   OH2 4681   1.188   6.330   2.699
 1575TIP3    H1 4682   1.103   6.371   2.685
 1575TIP3    H2 4683   1.242   6.360   2.626
 1576TIP3   OH2 4684   7.915   1.299   4.550
 1576TIP3    H1 4685   7.964   1.288   4.468
 1576TIP3    H2 4686   7.824   1.304   4.522
 1577TIP3   OH2 4687   3.066   6.741   0.302
 1577TIP3    H1 4688   2.975   6.764   0.286
 1577TIP3    H2 4689   3.106   6.741   0.215
 1578TIP3   OH2 4690   3.618   2.587   1.599
 1578TIP3    H1 4691   3.643   2.674   1.632
 1578TIP3    H2 4692   3.611   2.599   1.504
 1579TIP3   OH2 4693   3.219   5.165   6.547
 1579TIP3    H1 4694   3.243   5.122   6.465
 1579TIP3    H2 4695   3.273   5.121   6.613
 1580TIP3   OH2 4696   4.646   2.754   5.725
 1580TIP3    H1 4697   4.629   2.833   5.673
 1580TIP3    H2 4698   4.741   2.743   5.721
 1581TIP3   OH2 4699   0.926   3.568   0.619
 1581TIP3    H1 4700   0.997   3.626   0.594
 1581TIP3    H2 4701   0.964   3.480   0.614
 1582TIP3   OH2 4702   7.949   7.790   4.578
 1582TIP3    H1 4703   7.916   7.772   4.490
 1582TIP3    H2 4704   8.035   7.829   4.563
 1583TIP3   OH2 4705   4.187   4.634   4.231
 1583TIP3    H1 4706   4.189   4.554   4.179
 1583TIP3    H2 4707   4.134   4.612   4.308
 1584TIP3   OH2 4708   6.341   6.524   6.288
 1584TIP3    H1 4709   6.290   6.488   6.361
 1584TIP3    H2 4710   6.280   6.583   6.243
 1585TIP3   OH2 4711   5.332   7.345   6.501
 1585TIP3    H1 4712   5.280   7.275   6.460
 1585TIP3    H2 4713   5.381   7.383   6.428
 1586TIP3   OH2 4714   8.282   0.491   6.303
 1586TIP3    H1 4715   8.362   0.543   6.304
 1586TIP3    H2 4716   8.243   0.508   6.217
 1587TIP3   OH2 4717   7.303   3.044   3.136
 1587TIP3    H1 4718   7.226   3.071   3.186
 1587TIP3    H2 4719   7.366   3.114   3.150
 1588TIP3   OH2 4720   4.982   4.217   4.692
 1588TIP3    H1 4721   4.929   4.283   4.737
 1588TIP3    H2 4722   5.059   4.265   4.661
 1589TIP3   OH2 4723   4.678   1.561   2.055
 1589TIP3    H1 4724   4.611   1.501   2.023
 1589TIP3    H2 4725   4.631   1.641   2.076
 1590TIP3   OH2 4726   2.114   3.648   2.526
 1590TIP3    H1 4727   2.103   3.636   2.621
 1590TIP3    H2 4728   2.207   3.663   2.514
 1591TIP3   OH2 4729   4.697   4.812   2.423
 1591TIP3    H1 4730   4.666   4.774   2.505
 1591TIP3    H2 4731   4.619   4.852   2.385
 1592TIP3   OH2 4732   7.628   6.039   1.615
 1592TIP3    H1 4733   7.709   6.051   1.566
 1592TIP3    H2 4734   7.560   6.028   1.548
 1593TIP3   OH2 4735   1.862   6.422   1.052
 1593TIP3    H1 4736   1.946   6.377   1.047
 1593TIP3    H2 4737   1.799   6.362   1.012
 1594TIP3   OH2 4738   4.821   5.446   3.136
 1594TIP3    H1 4739   4.866   5.483   3.213
 1594TIP3    H2 4740   4.819   5.517   3.073
 1595TIP3   OH2 4741   0.425   1.437   5.004
 1595TIP3    H1 4742   0.389   1.436   5.093
 1595TIP3    H2 4743   0.448   1.346   4.986
 1596TIP3   OH2 4744   7.293   2.194   4.368
 1596TIP3    H1 4745   7.298   2.134   4.443
 1596TIP3    H2 4746   7.372   2.248   4.375
 1597TIP3   OH2 4747   1.553   6.048   2.648
 1597TIP3    H1 4748   1.463   6.031   2.676
 1597TIP3    H2 4749   1.574   6.134   2.685
 1598TIP3   OH2 4750   8.300   7.346   2.611
 1598TIP3    H1 4751   8.317   7.360   2.518
 1598TIP3    H2 4752   8.228   7.405   2.632
 1599TIP3   OH2 4753   3.708   1.038   1.128
 1599TIP3    H1 4754   3.779   1.092   1.163
 1599TIP3    H2 4755   3.628   1.076   1.165
 1600TIP3   OH2 4756   0.197   1.621   6.633
 1600TIP3    H1 4757   0.186   1.715   6.614
 1600TIP3    H2 4758   0.278   1.597   6.589
 1601TIP3   OH2 4759   3.610   5.725   3.971
 1601TIP3    H1 4760   3.555   5.710   3.894
 1601TIP3    H2 4761   3.666   5.648   3.977
 1602TIP3   OH2 4762   3.514   0.703   3.651
 1602TIP3    H1 4763   3.557   0.646   3.715
 1602TIP3    H2 4764   3.438   0.738   3.698
 1603TIP3   OH2 4765   6.292   0.473   6.234
 1603TIP3    H1 4766   6.284   0.501   6.143
 1603TIP3    H2 4767   6.213   0.508   6.277
 1604TIP3   OH2 4768   0.352   7.629   5.068
 1604TIP3    H1 4769   0.431   7.682   5.055
 1604TIP3    H2 4770   0.383   7.539   5.064
 1605TIP3   OH2 4771   7.969   6.004   6.072
 1605TIP3    H1 4772   7.902   6.014   6.140
 1605TIP3    H2 4773   7.921   6.013   5.990
 1606TIP3   OH2 4774   5.579   1.694   4.045
 1606TIP3    H1 4775   5.624   1.736   3.971
 1606TIP3    H2 4776   5.496   1.741   4.052
 1607TIP3   OH2 4777   3.122   1.390   1.648
 1607TIP3    H1 4778   3.062   1.374   1.721
 1607TIP3    H2 4779   3.070   1.371   1.570
 1608TIP3   OH2 4780   0.747   3.597   5.162
 1608TIP3    H1 4781   0.688   3.525   5.142
 1608TIP3    H2 4782   0.823   3.582   5.106
 1609TIP3   OH2 4783   2.321   0.412   1.162
 1609TIP3    H1 4784   2.377   0.438   1.235
 1609TIP3    H2 4785   2.237   0.455   1.178
 1610TIP3   OH2 4786   4.601   6.251   2.087
 1610TIP3    H1 4787   4.596   6.325   2.147
 1610TIP3    H2 4788   4.564   6.178   2.136
 1611TIP3   OH2 4789   2.422   4.207   2.178
 1611TIP3    H1 4790   2.335   4.244   2.195
 1611TIP3    H2 4791   2.407   4.113   2.171
 1612TIP3   OH2 4792   3.042   2.342   5.028
 1612TIP3    H1 4793   3.037   2.417   5.087
 1612TIP3    H2 4794   3.126   2.301   5.050
 1613TIP3   OH2 4795   2.347   3.160   5.093
 1613TIP3    H1 4796   2.264   3.206   5.111
 1613TIP3    H2 4797   2.403   3.227   5.055
 1614TIP3   OH2 4798   7.259   6.794   3.318
 1614TIP3    H1 4799   7.315   6.718   3.330
 1614TIP3    H2 4800   7.271   6.818   3.227
 1615TIP3   OH2 4801   4.721   4.408   5.499
 1615TIP3    H1 4802   4.703   4.501   5.512
 1615TIP3    H2 4803   4.779   4.405   5.423
 1616TIP3   OH2 4804   0.983   3.656   2.665
 1616TIP3    H1 4805   1.069   3.692   2.688
 1616TIP3    H2 4806   0.934   3.730   2.631
 1617TIP3   OH2 4807   7.675   0.793   5.865
 1617TIP3    H1 4808   7.657   0.707   5.828
 1617TIP3    H2 4809   7.717   0.842   5.794
 1618TIP3   OH2 4810   2.805   1.149   4.515
 1618TIP3    H1 4811   2.876   1.184   4.568
 1618TIP3    H2 4812   2.733   1.210   4.527
 1619TIP3   OH2 4813   2.925   6.074   5.759
 1619TIP3    H1 4814   2.905   6.161   5.793
 1619TIP3    H2 4815   2.983   6.090   5.685
 1620TIP3   OH2 4816   1.643   0.407   3.389
 1620TIP3    H1 4817   1.629   0.443   3.476
 1620TIP3    H2 4818   1.674   0.481   3.337
 1621TIP3   OH2 4819   6.317   4.286   1.476
 1621TIP3    H1 4820   6.239   4.337   1.499
 1621TIP3    H2 4821   6.376   4.298   1.551
 1622TIP3   OH2 4822   3.136   0.843   0.143
 1622TIP3    H1 4823   3.196   0.836   0.217
 1622TIP3    H2 4824   3.192   0.836   0.066
 1623TIP3   OH2 4825   7.443   0.160   3.078
 1623TIP3    H1 4826   7.421   0.169   2.985
 1623TIP3    H2 4827   7.399   0.080   3.106
 1624TIP3   OH2 4828   5.128   0.993   6.354
 1624TIP3    H1 4829   5.121   1.061   6.421
 1624TIP3    H2 4830   5.208   0.945   6.377
 1625TIP3   OH2 4831   2.529   3.129   0.159
 1625TIP3    H1 4832   2.472   3.081   0.218
 1625TIP3    H2 4833   2.526   3.080   0.077
 1626TIP3   OH2 4834   8.036   7.823   1.052
 1626TIP3    H1 4835   8.065   7.738   1.086
 1626TIP3    H2 4836   8.085   7.887   1.102
 1627TIP3   OH2 4837   7.488   7.109   5.322
 1627TIP3    H1 4838   7.440   7.183   5.284
 1627TIP3    H2 4839   7.523   7.062   5.246
 1628TIP3   OH2 4840   4.999   4.207   0.495
 1628TIP3    H1 4841   5.054   4.252   0.430
 1628TIP3    H2 4842   4.915   4.195   0.451
 1629TIP3   OH2 4843   7.205   1.032   4.898
 1629TIP3    H1 4844   7.286   1.017   4.848
 1629TIP3    H2 4845   7.221   1.114   4.945
 1630TIP3   OH2 4846   7.748   6.968   5.296
 1630TIP3    H1 4847   7.747   6.966   5.200
 1630TIP3    H2 4848   7.731   6.878   5.322
 1631TIP3   OH2 4849   2.935   2.510   4.458
 1631TIP3    H1 4850   2.963   2.459   4.382
 1631TIP3    H2 4851   2.864   2.565   4.425
 1632TIP3   OH2 4852   6.143   5.468   6.682
 1632TIP3    H1 4853   6.200   5.533   6.724
 1632TIP3    H2 4854   6.186   5.451   6.598
 1633TIP3   OH2 4855   0.543   6.558   5.822
 1633TIP3    H1 4856   0.517   6.589   5.735
 1633TIP3    H2 4857   0.638   6.551   5.817
 1634TIP3   OH2 4858   2.982   7.819   2.222
 1634TIP3    H1 4859   3.006   7.883   2.288
 1634TIP3    H2 4860   2.914   7.862   2.170
 1635TIP3   OH2 4861   2.629   7.240   5.159
 1635TIP3    H1 4862   2.665   7.327   5.177
 1635TIP3    H2 4863   2.554   7.256   5.102
 1636TIP3   OH2 4864   1.620   4.137   2.742
 1636TIP3    H1 4865   1.654   4.175   2.661
 1636TIP3    H2 4866   1.614   4.211   2.803
 1637TIP3   OH2 4867   5.814   1.379   1.510
 1637TIP3    H1 4868   5.891   1.414   1.466
 1637TIP3    H2 4869   5.810   1.424   1.594
 1638TIP3   OH2 4870   5.858   7.798   2.536
 1638TIP3    H1 4871   5.781   7.837   2.577
 1638TIP3    H2 4872   5.931   7.851   2.568
 1639TIP3   OH2 4873   6.007   0.547   6.274
 1639TIP3    H1 4874   5.930   0.600   6.294
 1639TIP3    H2 4875   5.994   0.466   6.325
 1640TIP3   OH2 4876   7.286   6.382   5.241
 1640TIP3    H1 4877   7.212   6.351   5.189
 1640TIP3    H2 4878   7.328   6.302   5.272
 1641TIP3   OH2 4879   5.706   4.182   3.920
 1641TIP3    H1 4880   5.767   4.113   3.945
 1641TIP3    H2 4881   5.749   4.228   3.848
 1642TIP3   OH2 4882   1.397   0.725   3.354
 1642TIP3    H1 4883   1.310   0.724   3.314
 1642TIP3    H2 4884   1.410   0.816   3.381
 1643TIP3   OH2 4885   8.063   0.913   4.559
 1643TIP3    H1 4886   8.027   0.851   4.496
 1643TIP3    H2 4887   8.152   0.929   4.529
 1644TIP3   OH2 4888   2.895   1.201   2.716
 1644TIP3    H1 4889   2.932   1.114   2.709
 1644TIP3    H2 4890   2.962   1.252   2.762
 1645TIP3   OH2 4891   5.373   2.733   5.531
 1645TIP3    H1 4892   5.333   2.713   5.446
 1645TIP3    H2 4893   5.442   2.797   5.510
 1646TIP3   OH2 4894   1.153   5.312   3.475
 1646TIP3    H1 4895   1.121   5.402   3.468
 1646TIP3    H2 4896   1.244   5.321   3.503
 1647TIP3   OH2 4897   0.544   5.595   6.364
 1647TIP3    H1 4898   0.625   5.548   6.386
 1647TIP3    H2 4899   0.530   5.577   6.271
 1648TIP3   OH2 4900   1.830   4.361   5.638
 1648TIP3    H1 4901   1.795   4.272   5.643
 1648TIP3    H2 4902   1.770   4.414   5.691
 1649TIP3   OH2 4903   4.982   5.069   6.754
 1649TIP3    H1 4904   4.909   5.131   6.760
 1649TIP3    H2 4905   4.944   4.986   6.781
 1650TIP3   OH2 4906   6.060   4.070   6.390
 1650TIP3    H1 4907   6.083   3.999   6.330
 1650TIP3    H2 4908   5.978   4.105   6.356
 1651TIP3   OH2 4909   3.334   3.836   1.436
 1651TIP3    H1 4910   3.386   3.771   1.389
 1651TIP3    H2 4911   3.381   3.848   1.519
 1652TIP3   OH2 4912   6.798   5.670   2.301
 1652TIP3    H1 4913   6.821   5.589   2.345
 1652TIP3    H2 4914   6.715   5.652   2.258
 1653TIP3   OH2 4915   7.393   1.679   3.214
 1653TIP3    H1 4916   7.343   1.669   3.294
 1653TIP3    H2 4917   7.348   1.748   3.165
 1654TIP3   OH2 4918   7.266   2.809   3.608
 1654TIP3    H1 4919   7.291   2.733   3.661
 1654TIP3    H2 4920   7.254   2.774   3.520
 1655TIP3   OH2 4921   3.211   7.848   5.193
 1655TIP3    H1 4922   3.156   7.782   5.150
 1655TIP3    H2 4923   3.292   7.801   5.212
 1656TIP3   OH2 4924   1.828   6.252   3.517
 1656TIP3    H1 4925   1.811   6.270   3.609
 1656TIP3    H2 4926   1.773   6.176   3.497
 1657TIP3   OH2 4927   6.623   6.462   5.275
 1657TIP3    H1 4928   6.628   6.528   5.344
 1657TIP3    H2 4929   6.584   6.385   5.317
 1658TIP3   OH2 4930   7.227   7.321   2.974
 1658TIP3    H1 4931   7.293   7.270   3.020
 1658TIP3    H2 4932   7.255   7.412   2.985
 1659TIP3   OH2 4933   5.558   4.876   3.313
 1659TIP3    H1 4934   5.637   4.882   3.258
 1659TIP3    H2 4935   5.571   4.796   3.365
 1660TIP3   OH2 4936   7.683   1.903   2.683
 1660TIP3    H1 4937   7.587   1.894   2.679
 1660TIP3    H2 4938   7.697   1.979   2.739
 1661TIP3   OH2 4939   2.160   4.841   2.129
 1661TIP3    H1 4940   2.188   4.870   2.042
 1661TIP3    H2 4941   2.068   4.870   2.135
 1662TIP3   OH2 4942   2.540   1.435   6.304
 1662TIP3    H1 4943   2.534   1.364   6.241
 1662TIP3    H2 4944   2.610   1.491   6.271
 1663TIP3   OH2 4945   2.380   7.104   2.038
 1663TIP3    H1 4946   2.327   7.030   2.067
 1663TIP3    H2 4947   2.328   7.146   1.969
 1664TIP3   OH2 4948   0.264   1.699   1.870
 1664TIP3    H1 4949   0.214   1.733   1.796
 1664TIP3    H2 4950   0.310   1.623   1.834
 1665TIP3   OH2 4951   2.242   6.405   4.206
 1665TIP3    H1 4952   2.304   6.442   4.268
 1665TIP3    H2 4953   2.206   6.481   4.160
 1666TIP3   OH2 4954   4.580   0.064   0.360
 1666TIP3    H1 4955   4.607   0.150   0.392
 1666TIP3    H2 4956   4.652   0.006   0.385
 1667TIP3   OH2 4957   1.850   1.498   0.904
 1667TIP3    H1 4958   1.805   1.478   0.822
 1667TIP3    H2 4959   1.941   1.472   0.889
 1668TIP3   OH2 4960   7.957   4.883   5.471
 1668TIP3    H1 4961   7.954   4.920   5.559
 1668TIP3    H2 4962   7.865   4.876   5.445
 1669TIP3   OH2 4963   8.229   3.388   4.015
 1669TIP3    H1 4964   8.180   3.350   4.088
 1669TIP3    H2 4965   8.191   3.347   3.937
 1670TIP3   OH2 4966   3.472   1.437   1.161
 1670TIP3    H1 4967   3.419   1.372   1.207
 1670TIP3    H2 4968   3.439   1.434   1.071
 1671TIP3   OH2 4969   0.402   0.263   2.295
 1671TIP3    H1 4970   0.341   0.217   2.351
 1671TIP3    H2 4971   0.425   0.342   2.344
 1672TIP3   OH2 4972   1.720   0.827   0.677
 1672TIP3    H1 4973   1.669   0.795   0.603
 1672TIP3    H2 4974   1.657   0.834   0.748
 1673TIP3   OH2 4975   7.925   1.893   0.197
 1673TIP3    H1 4976   7.925   1.826   0.129
 1673TIP3    H2 4977   7.889   1.971   0.154
 1674TIP3   OH2 4978   6.594   6.307   4.490
 1674TIP3    H1 4979   6.513   6.314   4.439
 1674TIP3    H2 4980   6.619   6.214   4.484
 1675TIP3   OH2 4981   5.201   5.501   4.592
 1675TIP3    H1 4982   5.247   5.573   4.635
 1675TIP3    H2 4983   5.270   5.447   4.554
 1676TIP3   OH2 4984   3.536   6.372   5.816
 1676TIP3    H1 4985   3.466   6.309   5.797
 1676TIP3    H2 4986   3.492   6.444   5.861
 1677TIP3   OH2 4987   5.806   2.422   3.302
 1677TIP3    H1 4988   5.816   2.441   3.209
 1677TIP3    H2 4989   5.830   2.329   3.310
 1678TIP3   OH2 4990   6.559   1.206   4.317
 1678TIP3    H1 4991   6.493   1.164   4.372
 1678TIP3    H2 4992   6.530   1.191   4.228
 1679TIP3   OH2 4993   4.064   7.596   3.926
 1679TIP3    H1 4994   4.085   7.689   3.934
 1679TIP3    H2 4995   4.038   7.586   3.835
 1680TIP3   OH2 4996   4.104   1.540   4.616
 1680TIP3    H1 4997   4.107   1.625   4.572
 1680TIP3    H2 4998   4.155   1.553   4.696
 1681TIP3   OH2 4999   1.635   5.933   6.240
 1681TIP3    H1 5000   1.571   5.979   6.185
 1681TIP3    H2 5001   1.604   5.945   6.329
 1682TIP3   OH2 5002   5.840   0.140   5.682
 1682TIP3    H1 5003   5.819   0.128   5.775
 1682TIP3    H2 5004   5.755   0.157   5.641
 1683TIP3   OH2 5005   0.929   7.580   5.861
 1683TIP3    H1 5006   0.882   7.633   5.926
 1683TIP3    H2 5007   0.878   7.499   5.854
 1684TIP3   OH2 5008   7.643   7.783   6.519
 1684TIP3    H1 5009   7.624   7.711   6.460
 1684TIP3    H2 5010   7.710   7.749   6.579
 1685TIP3   OH2 5011   3.264   5.063   2.414
 1685TIP3    H1 5012   3.272   5.029   2.325
 1685TIP3    H2 5013   3.302   5.151   2.409
 1686TIP3   OH2 5014   4.344   0.311   0.643
 1686TIP3    H1 5015   4.350   0.385   0.584
 1686TIP3    H2 5016   4.429   0.307   0.686
 1687TIP3   OH2 5017   7.951   4.636   4.800
 1687TIP3    H1 5018   8.006   4.568   4.760
 1687TIP3    H2 5019   7.947   4.705   4.734
 1688TIP3   OH2 5020   3.999   1.801   0.861
 1688TIP3    H1 5021   4.063   1.863   0.826
 1688TIP3    H2 5022   3.914   1.840   0.839
 1689TIP3   OH2 5023   4.257   4.601   0.111
 1689TIP3    H1 5024   4.204   4.563   0.181
 1689TIP3    H2 5025   4.294   4.525   0.065
 1690TIP3   OH2 5026   1.091   2.373   1.090
 1690TIP3    H1 5027   1.091   2.361   0.995
 1690TIP3    H2 5028   1.018   2.320   1.121
 1691TIP3   OH2 5029   7.836   7.748   0.205
 1691TIP3    H1 5030   7.929   7.726   0.206
 1691TIP3    H2 5031   7.804   7.711   0.123
 1692TIP3   OH2 5032   2.005   4.874   5.584
 1692TIP3    H1 5033   1.943   4.935   5.624
 1692TIP3    H2 5034   1.952   4.821   5.526
 1693TIP3   OH2 5035   0.329   5.419   3.904
 1693TIP3    H1 5036   0.267   5.450   3.970
 1693TIP3    H2 5037   0.320   5.481   3.832
 1694TIP3   OH2 5038   0.088   4.575   0.099
 1694TIP3    H1 5039   0.030   4.568   0.024
 1694TIP3    H2 5040   0.093   4.668   0.118
 1695TIP3   OH2 5041   6.095   5.195   2.897
 1695TIP3    H1 5042   6.179   5.213   2.939
 1695TIP3    H2 5043   6.095   5.250   2.819
 1696TIP3   OH2 5044   0.027   0.380   1.336
 1696TIP3    H1 5045   0.044   0.291   1.306
 1696TIP3    H2 5046  -0.068   0.390   1.330
 1697TIP3   OH2 5047   4.256   7.089   3.758
 1697TIP3    H1 5048   4.178   7.078   3.813
 1697TIP3    H2 5049   4.297   7.003   3.757
 1698TIP3   OH2 5050   3.452   0.032   2.399
 1698TIP3    H1 5051   3.435  -0.062   2.407
 1698TIP3    H2 5052   3.366   0.071   2.380
 1699TIP3   OH2 5053   1.182   6.238   0.604
 1699TIP3    H1 5054   1.264   6.189   0.600
 1699TIP3    H2 5055   1.182   6.279   0.691
 1700TIP3   OH2 5056   6.688   4.493   2.367
 1700TIP3    H1 5057   6.701   4.584   2.392
 1700TIP3    H2 5058   6.759   4.445   2.411
 1701TIP3   OH2 5059   1.344   6.275   6.727
 1701TIP3    H1 5060   1.252   6.299   6.739
 1701TIP3    H2 5061   1.346   6.228   6.644
 1702TIP3   OH2 5062   2.285   2.003   0.410
 1702TIP3    H1 5063   2.345   1.937   0.444
 1702TIP3    H2 5064   2.340   2.063   0.360
 1703TIP3   OH2 5065   3.824   4.461   0.964
 1703TIP3    H1 5066   3.881   4.534   0.939
 1703TIP3    H2 5067   3.756   4.501   1.018
 1704TIP3   OH2 5068   2.368   3.180   1.182
 1704TIP3    H1 5069   2.309   3.151   1.252
 1704TIP3    H2 5070   2.414   3.101   1.156
 1705TIP3   OH2 5071   7.557   4.346   4.472
 1705TIP3    H1 5072   7.647   4.316   4.459
 1705TIP3    H2 5073   7.561   4.441   4.463
 1706TIP3   OH2 5074   7.097   4.483   1.923
 1706TIP3    H1 5075   7.105   4.490   2.018
 1706TIP3    H2 5076   7.012   4.524   1.904
 1707TIP3   OH2 5077   8.115   6.392   5.355
 1707TIP3    H1 5078   8.164   6.344   5.288
 1707TIP3    H2 5079   8.165   6.378   5.436
 1708TIP3   OH2 5080   2.851   3.051   1.518
 1708TIP3    H1 5081   2.852   3.045   1.423
 1708TIP3    H2 5082   2.758   3.052   1.541
 1709TIP3   OH2 5083   8.095   0.174   1.089
 1709TIP3    H1 5084   8.072   0.265   1.073
 1709TIP3    H2 5085   8.186   0.176   1.118
 1710TIP3   OH2 5086   4.918   4.878   2.232
 1710TIP3    H1 5087   4.830   4.842   2.239
 1710TIP3    H2 5088   4.977   4.805   2.254
 1711TIP3   OH2 5089   1.850   5.619   0.650
 1711TIP3    H1 5090   1.852   5.708   0.615
 1711TIP3    H2 5091   1.933   5.580   0.621
 1712TIP3   OH2 5092   7.760   5.833   1.948
 1712TIP3    H1 5093   7.687   5.827   2.010
 1712TIP3    H2 5094   7.789   5.924   1.953
 1713TIP3   OH2 5095   3.534   2.691   0.506
 1713TIP3    H1 5096   3.521   2.724   0.594
 1713TIP3    H2 5097   3.581   2.761   0.461
 1714TIP3   OH2 5098   5.127   0.330   3.615
 1714TIP3    H1 5099   5.067   0.399   3.646
 1714TIP3    H2 5100   5.165   0.366   3.535
 1715TIP3   OH2 5101   7.221   3.661   4.042
 1715TIP3    H1 5102   7.188   3.572   4.051
 1715TIP3    H2 5103   7.305   3.651   3.997
 1716TIP3   OH2 5104   7.025   4.232   6.107
 1716TIP3    H1 5105   7.069   4.255   6.024
 1716TIP3    H2 5106   7.044   4.305   6.165
 1717TIP3   OH2 5107   5.263   5.797   4.799
 1717TIP3    H1 5108   5.179   5.770   4.836
 1717TIP3    H2 5109   5.263   5.893   4.807
 1718TIP3   OH2 5110   6.471   5.163   2.486
 1718TIP3    H1 5111   6.426   5.082   2.506
 1718TIP3    H2 5112   6.436   5.226   2.549
 1719TIP3   OH2 5113   2.261   5.143   2.456
 1719TIP3    H1 5114   2.355   5.158   2.461
 1719TIP3    H2 5115   2.223   5.231   2.454
 1720TIP3   OH2 5116   0.422   5.991   1.798
 1720TIP3    H1 5117   0.329   5.974   1.809
 1720TIP3    H2 5118   0.434   6.082   1.827
 1721TIP3   OH2 5119   8.153   5.967   4.831
 1721TIP3    H1 5120   8.220   6.035   4.823
 1721TIP3    H2 5121   8.197   5.895   4.876
 1722TIP3   OH2 5122   3.756   0.155   6.330
 1722TIP3    H1 5123   3.738   0.078   6.384
 1722TIP3    H2 5124   3.756   0.122   6.240
 1723TIP3   OH2 5125   2.718   3.731   1.353
 1723TIP3    H1 5126   2.705   3.648   1.308
 1723TIP3    H2 5127   2.649   3.733   1.420
 1724TIP3   OH2 5128   4.404   0.331   2.440
 1724TIP3    H1 5129   4.443   0.266   2.498
 1724TIP3    H2 5130   4.372   0.399   2.498
 1725TIP3   OH2 5131   4.404   1.491   5.087
 1725TIP3    H1 5132   4.457   1.412   5.093
 1725TIP3    H2 5133   4.314   1.459   5.094
 1726TIP3   OH2 5134   5.447   7.105   1.522
 1726TIP3    H1 5135   5.488   7.190   1.542
 1726TIP3    H2 5136   5.489   7.044   1.582
 1727TIP3   OH2 5137   2.465   6.042   6.448
 1727TIP3    H1 5138   2.455   5.950   6.472
 1727TIP3    H2 5139   2.446   6.090   6.529
 1728TIP3   OH2 5140   8.118   4.528   5.246
 1728TIP3    H1 5141   8.135   4.453   5.189
 1728TIP3    H2 5142   8.059   4.495   5.313
 1729TIP3   OH2 5143   4.030   5.971   4.342
 1729TIP3    H1 5144   4.078   6.042   4.384
 1729TIP3    H2 5145   4.091   5.936   4.276
 1730TIP3   OH2 5146   0.491   4.693   5.890
 1730TIP3    H1 5147   0.443   4.720   5.969
 1730TIP3    H2 5148   0.578   4.671   5.921
 1731TIP3   OH2 5149   4.456   7.655   6.151
 1731TIP3    H1 5150   4.486   7.744   6.133
 1731TIP3    H2 5151   4.378   7.644   6.096
 1732TIP3   OH2 5152   4.558   1.549   4.138
 1732TIP3    H1 5153   4.585   1.462   4.109
 1732TIP3    H2 5154   4.637   1.585   4.179
 1733TIP3   OH2 5155   1.366   2.481   0.494
 1733TIP3    H1 5156   1.456   2.452   0.508
 1733TIP3    H2 5157   1.319   2.403   0.466
 1734TIP3   OH2 5158   4.851   5.613   3.411
 1734TIP3    H1 5159   4.804   5.620   3.494
 1734TIP3    H2 5160   4.921   5.679   3.418
 1735TIP3   OH2 5161   0.556   7.038   4.275
 1735TIP3    H1 5162   0.632   6.995   4.236
 1735TIP3    H2 5163   0.576   7.042   4.369
 1736TIP3   OH2 5164   2.580   2.947   0.869
 1736TIP3    H1 5165   2.640   2.874   0.852
 1736TIP3    H2 5166   2.574   2.951   0.965
 1737TIP3   OH2 5167   2.372   4.761   0.018
 1737TIP3    H1 5168   2.373   4.853  -0.007
 1737TIP3    H2 5169   2.313   4.758   0.093
 1738TIP3   OH2 5170   0.472   0.016   5.804
 1738TIP3    H1 5171   0.441  -0.024   5.723
 1738TIP3    H2 5172   0.410  -0.013   5.871
 1739TIP3   OH2 5173   8.150   6.396   3.710
 1739TIP3    H1 5174   8.163   6.348   3.628
 1739TIP3    H2 5175   8.224   6.457   3.713
 1740TIP3   OH2 5176   3.717   7.538   0.090
 1740TIP3    H1 5177   3.686   7.484   0.017
 1740TIP3    H2 5178   3.759   7.613   0.048
 1741TIP3   OH2 5179   3.627   0.361   3.899
 1741TIP3    H1 5180   3.639   0.266   3.899
 1741TIP3    H2 5181   3.615   0.383   3.807
 1742TIP3   OH2 5182   8.221   0.698   4.360
 1742TIP3    H1 5183   8.227   0.768   4.295
 1742TIP3    H2 5184   8.145   0.647   4.334
 1743TIP3   OH2 5185   1.309   2.847   4.447
 1743TIP3    H1 5186   1.347   2.765   4.416
 1743TIP3    H2 5187   1.215   2.829   4.454
 1744TIP3   OH2 5188   1.404   1.915   5.209
 1744TIP3    H1 5189   1.336   1.948   5.268
 1744TIP3    H2 5190   1.400   1.972   5.133
 1745TIP3   OH2 5191   2.447   0.607   5.670
 1745TIP3    H1 5192   2.480   0.659   5.596
 1745TIP3    H2 5193   2.513   0.617   5.738
 1746TIP3   OH2 5194   5.188   5.264   1.824
 1746TIP3    H1 5195   5.100   5.227   1.822
 1746TIP3    H2 5196   5.179   5.346   1.873
 1747TIP3   OH2 5197   7.697   2.295   6.750
 1747TIP3    H1 5198   7.695   2.205   6.717
 1747TIP3    H2 5199   7.717   2.286   6.844
 1748TIP3   OH2 5200   3.928   5.391   0.700
 1748TIP3    H1 5201   3.832   5.399   0.704
 1748TIP3    H2 5202   3.950   5.427   0.614
 1749TIP3   OH2 5203   2.013   4.888   1.100
 1749TIP3    H1 5204   2.059   4.885   1.016
 1749TIP3    H2 5205   2.025   4.801   1.138
 1750TIP3   OH2 5206   5.772   0.960   5.867
 1750TIP3    H1 5207   5.803   0.896   5.802
 1750TIP3    H2 5208   5.702   1.007   5.823
 1751TIP3   OH2 5209   2.741   5.325   5.059
 1751TIP3    H1 5210   2.756   5.317   5.153
 1751TIP3    H2 5211   2.825   5.354   5.023
 1752TIP3   OH2 5212   5.453   7.491   1.886
 1752TIP3    H1 5213   5.452   7.395   1.881
 1752TIP3    H2 5214   5.439   7.520   1.796
 1753TIP3   OH2 5215   2.342   3.448   0.338
 1753TIP3    H1 5216   2.319   3.499   0.416
 1753TIP3    H2 5217   2.270   3.467   0.276
 1754TIP3   OH2 5218   7.062   6.549   0.758
 1754TIP3    H1 5219   7.157   6.542   0.767
 1754TIP3    H2 5220   7.030   6.547   0.848
 1755TIP3   OH2 5221   7.633   4.181   3.022
 1755TIP3    H1 5222   7.614   4.218   3.109
 1755TIP3    H2 5223   7.636   4.257   2.964
 1756TIP3   OH2 5224   3.975   3.084   2.877
 1756TIP3    H1 5225   3.965   3.048   2.965
 1756TIP3    H2 5226   3.963   3.008   2.819
 1757TIP3   OH2 5227   4.217   6.929   3.415
 1757TIP3    H1 5228   4.225   7.025   3.412
 1757TIP3    H2 5229   4.299   6.898   3.375
 1758TIP3   OH2 5230   2.518   2.329   2.243
 1758TIP3    H1 5231   2.428   2.296   2.239
 1758TIP3    H2 5232   2.537   2.357   2.153
 1759TIP3   OH2 5233   7.959   2.481   4.443
 1759TIP3    H1 5234   7.997   2.432   4.516
 1759TIP3    H2 5235   7.985   2.431   4.365
 1760TIP3   OH2 5236   3.567   6.876   2.122
 1760TIP3    H1 5237   3.633   6.899   2.057
 1760TIP3    H2 5238   3.613   6.821   2.185
 1761TIP3   OH2 5239   4.680   3.215   4.872
 1761TIP3    H1 5240   4.707   3.305   4.887
 1761TIP3    H2 5241   4.607   3.201   4.933
 1762TIP3   OH2 5242   3.829   0.616   0.771
 1762TIP3    H1 5243   3.800   0.658   0.852
 1762TIP3    H2 5244   3.924   0.619   0.775
 1763TIP3   OH2 5245   5.010   5.108   2.101
 1763TIP3    H1 5246   4.979   5.019   2.119
 1763TIP3    H2 5247   5.055   5.135   2.181
 1764TIP3   OH2 5248   8.079   4.082   3.968
 1764TIP3    H1 5249   7.995   4.106   3.928
 1764TIP3    H2 5250   8.085   3.987   3.955
 1765TIP3   OH2 5251   8.001   1.419   3.395
 1765TIP3    H1 5252   8.076   1.477   3.380
 1765TIP3    H2 5253   8.013   1.387   3.484
 1766TIP3   OH2 5254   6.191   0.684   0.830
 1766TIP3    H1 5255   6.255   0.747   0.863
 1766TIP3    H2 5256   6.234   0.643   0.755
 1767TIP3   OH2 5257   6.346   2.320   2.337
 1767TIP3    H1 5258   6.264   2.323   2.386
 1767TIP3    H2 5259   6.387   2.238   2.365
 1768TIP3   OH2 5260   2.616   2.472   1.912
 1768TIP3    H1 5261   2.606   2.378   1.898
 1768TIP3    H2 5262   2.709   2.489   1.896
 1769TIP3   OH2 5263   7.512   1.627   0.303
 1769TIP3    H1 5264   7.447   1.579   0.252
 1769TIP3    H2 5265   7.502   1.594   0.392
 1770TIP3   OH2 5266   8.222   1.907   2.201
 1770TIP3    H1 5267   8.191   1.973   2.263
 1770TIP3    H2 5268   8.194   1.939   2.116
 1771TIP3   OH2 5269   4.270   0.952   2.592
 1771TIP3    H1 5270   4.284   0.860   2.613
 1771TIP3    H2 5271   4.233   0.989   2.672
 1772TIP3   OH2 5272   3.978   2.766   1.533
 1772TIP3    H1 5273   3.982   2.817   1.452
 1772TIP3    H2 5274   3.951   2.678   1.504
 1773TIP3   OH2 5275   2.754   6.650   5.535
 1773TIP3    H1 5276   2.705   6.640   5.617
 1773TIP3    H2 5277   2.793   6.564   5.520
 1774TIP3   OH2 5278   1.793   2.362   5.283
 1774TIP3    H1 5279   1.838   2.445   5.267
 1774TIP3    H2 5280   1.784   2.357   5.378
 1775TIP3   OH2 5281   4.978   2.360   1.129
 1775TIP3    H1 5282   4.932   2.292   1.080
 1775TIP3    H2 5283   4.922   2.377   1.205
 1776TIP3   OH2 5284   4.091   2.385   0.342
 1776TIP3    H1 5285   4.060   2.396   0.252
 1776TIP3    H2 5286   4.020   2.419   0.396
 1777TIP3   OH2 5287   1.791   2.645   6.404
 1777TIP3    H1 5288   1.784   2.604   6.491
 1777TIP3    H2 5289   1.885   2.648   6.386
 1778TIP3   OH2 5290   3.525   4.839   2.551
 1778TIP3    H1 5291   3.527   4.933   2.564
 1778TIP3    H2 5292   3.445   4.810   2.594
 1779TIP3   OH2 5293   4.210   7.445   4.298
 1779TIP3    H1 5294   4.123   7.405   4.301
 1779TIP3    H2 5295   4.270   7.372   4.281
 1780TIP3   OH2 5296   7.969   5.606   2.908
 1780TIP3    H1 5297   7.877   5.583   2.897
 1780TIP3    H2 5298   7.998   5.555   2.983
 1781TIP3   OH2 5299   7.377   6.868   2.672
 1781TIP3    H1 5300   7.406   6.879   2.762
 1781TIP3    H2 5301   7.281   6.868   2.678
 1782TIP3   OH2 5302   2.551   4.309   2.580
 1782TIP3    H1 5303   2.470   4.274   2.546
 1782TIP3    H2 5304   2.575   4.379   2.519
 1783TIP3   OH2 5305   2.706   6.766   1.075
 1783TIP3    H1 5306   2.671   6.767   1.164
 1783TIP3    H2 5307   2.710   6.858   1.050
 1784TIP3   OH2 5308   7.733   0.008   2.285
 1784TIP3    H1 5309   7.807  -0.038   2.324
 1784TIP3    H2 5310   7.769   0.092   2.257
 1785TIP3   OH2 5311   7.281   6.929   1.609
 1785TIP3    H1 5312   7.325   7.004   1.569
 1785TIP3    H2 5313   7.189   6.954   1.612
 1786TIP3   OH2 5314   5.916   6.228   3.267
 1786TIP3    H1 5315   5.925   6.299   3.203
 1786TIP3    H2 5316   5.931   6.148   3.217
 1787TIP3   OH2 5317   1.018   2.306   3.812
 1787TIP3    H1 5318   0.950   2.268   3.867
 1787TIP3    H2 5319   1.100   2.277   3.852
 1788TIP3   OH2 5320   0.847   0.056   1.575
 1788TIP3    H1 5321   0.770   0.102   1.542
 1788TIP3    H2 5322   0.818   0.016   1.657
 1789TIP3   OH2 5323   1.393   7.769   0.164
 1789TIP3    H1 5324   1.413   7.827   0.090
 1789TIP3    H2 5325   1.377   7.683   0.123
 1790TIP3   OH2 5326   8.247   4.073   1.288
 1790TIP3    H1 5327   8.237   4.162   1.256
 1790TIP3    H2 5328   8.208   4.018   1.219
 1791TIP3   OH2 5329   7.643   7.817   6.038
 1791TIP3    H1 5330   7.661   7.834   6.130
 1791TIP3    H2 5331   7.641   7.903   5.997
 1792TIP3   OH2 5332   3.604   1.668   4.535
 1792TIP3    H1 5333   3.531   1.608   4.542
 1792TIP3    H2 5334   3.678   1.614   4.507
 1793TIP3   OH2 5335   5.392   0.891   0.463
 1793TIP3    H1 5336   5.314   0.918   0.415
 1793TIP3    H2 5337   5.463   0.942   0.425
 1794TIP3   OH2 5338   7.138   4.954   5.472
 1794TIP3    H1 5339   7.095   5.005   5.402
 1794TIP3    H2 5340   7.221   4.999   5.487
 1795TIP3   OH2 5341   6.215   5.031   1.229
 1795TIP3    H1 5342   6.309   5.028   1.245
 1795TIP3    H2 5343   6.179   5.079   1.304
 1796TIP3   OH2 5344   6.895   4.481   0.890
 1796TIP3    H1 5345   6.985   4.468   0.858
 1796TIP3    H2 5346   6.844   4.414   0.844
 1797TIP3   OH2 5347   0.136   0.685   2.256
 1797TIP3    H1 5348   0.053   0.703   2.212
 1797TIP3    H2 5349   0.118   0.701   2.348
 1798TIP3   OH2 5350   5.616   1.544   2.741
 1798TIP3    H1 5351   5.590   1.486   2.812
 1798TIP3    H2 5352   5.543   1.542   2.680
 1799TIP3   OH2 5353   6.000   1.045   2.770
 1799TIP3    H1 5354   5.965   0.962   2.800
 1799TIP3    H2 5355   6.024   1.092   2.850
 1800TIP3   OH2 5356   5.422   1.528   1.505
 1800TIP3    H1 5357   5.452   1.595   1.567
 1800TIP3    H2 5358   5.463   1.447   1.536
 1801TIP3   OH2 5359   2.895   5.434   3.570
 1801TIP3    H1 5360   2.931   5.346   3.560
 1801TIP3    H2 5361   2.862   5.456   3.482
 1802TIP3   OH2 5362   1.913   3.328   3.598
 1802TIP3    H1 5363   2.008   3.331   3.590
 1802TIP3    H2 5364   1.882   3.308   3.509
 1803TIP3   OH2 5365   0.560   1.047   3.692
 1803TIP3    H1 5366   0.489   1.034   3.755
 1803TIP3    H2 5367   0.602   1.128   3.721
 1804TIP3   OH2 5368   7.323   5.532   1.239
 1804TIP3    H1 5369   7.260   5.556   1.307
 1804TIP3    H2 5370   7.388   5.478   1.285
 1805TIP3   OH2 5371   6.771   2.773   5.987
 1805TIP3    H1 5372   6.797   2.720   6.063
 1805TIP3    H2 5373   6.851   2.782   5.936
 1806TIP3   OH2 5374   2.831   2.794   2.547
 1806TIP3    H1 5375   2.786   2.778   2.630
 1806TIP3    H2 5376   2.860   2.885   2.553
 1807TIP3   OH2 5377   7.364   4.401   0.953
 1807TIP3    H1 5378   7.422   4.335   0.916
 1807TIP3    H2 5379   7.347   4.373   1.043
 1808TIP3   OH2 5380   2.692   5.688   2.240
 1808TIP3    H1 5381   2.634   5.613   2.230
 1808TIP3    H2 5382   2.689   5.709   2.333
 1809TIP3   OH2 5383   5.061   0.546   4.311
 1809TIP3    H1 5384   5.086   0.459   4.281
 1809TIP3    H2 5385   5.101   0.553   4.398
 1810TIP3   OH2 5386   2.343   7.145   5.685
 1810TIP3    H1 5387   2.276   7.204   5.651
 1810TIP3    H2 5388   2.380   7.191   5.760
 1811TIP3   OH2 5389   1.263   4.388   3.940
 1811TIP3    H1 5390   1.258   4.370   4.034
 1811TIP3    H2 5391   1.276   4.302   3.900
 1812TIP3   OH2 5392   7.880   3.211   2.400
 1812TIP3    H1 5393   7.835   3.126   2.407
 1812TIP3    H2 5394   7.925   3.207   2.316
 1813TIP3   OH2 5395   7.554   0.313   2.617
 1813TIP3    H1 5396   7.642   0.280   2.601
 1813TIP3    H2 5397   7.518   0.331   2.530
 1814TIP3   OH2 5398   7.127   3.374   4.086
 1814TIP3    H1 5399   7.046   3.384   4.135
 1814TIP3    H2 5400   7.159   3.287   4.111
 1815TIP3   OH2 5401   2.734   3.965   0.620
 1815TIP3    H1 5402   2.809   3.909   0.601
 1815TIP3    H2 5403   2.764   4.025   0.688
 1816TIP3   OH2 5404   3.116   3.470   3.314
 1816TIP3    H1 5405   3.079   3.405   3.254
 1816TIP3    H2 5406   3.178   3.421   3.367
 1817TIP3   OH2 5407   7.415   1.098   1.905
 1817TIP3    H1 5408   7.338   1.056   1.943
 1817TIP3    H2 5409   7.430   1.175   1.959
 1818TIP3   OH2 5410   7.419   1.421   2.006
 1818TIP3    H1 5411   7.350   1.404   2.071
 1818TIP3    H2 5412   7.372   1.454   1.929
 1819TIP3   OH2 5413   7.790   0.367   1.791
 1819TIP3    H1 5414   7.876   0.381   1.751
 1819TIP3    H2 5415   7.748   0.453   1.790
 1820TIP3   OH2 5416   4.807   2.870   5.243
 1820TIP3    H1 5417   4.878   2.808   5.224
 1820TIP3    H2 5418   4.735   2.841   5.188
 1821TIP3   OH2 5419   4.736   2.826   3.912
 1821TIP3    H1 5420   4.642   2.814   3.900
 1821TIP3    H2 5421   4.756   2.781   3.994
 1822TIP3   OH2 5422   1.011   3.862   5.193
 1822TIP3    H1 5423   0.982   3.774   5.170
 1822TIP3    H2 5424   1.106   3.860   5.180
 1823TIP3   OH2 5425   3.091   0.519   5.129
 1823TIP3    H1 5426   3.148   0.486   5.060
 1823TIP3    H2 5427   3.142   0.589   5.171
 1824TIP3   OH2 5428   7.386   6.647   0.187
 1824TIP3    H1 5429   7.406   6.720   0.246
 1824TIP3    H2 5430   7.295   6.626   0.205
 1825TIP3   OH2 5431   3.813   7.142   6.637
 1825TIP3    H1 5432   3.874   7.177   6.702
 1825TIP3    H2 5433   3.865   7.136   6.556
 1826TIP3   OH2 5434   0.810   1.050   1.467
 1826TIP3    H1 5435   0.778   1.001   1.543
 1826TIP3    H2 5436   0.808   1.142   1.495
 1827TIP3   OH2 5437   8.132   2.965   0.070
 1827TIP3    H1 5438   8.196   3.027   0.105
 1827TIP3    H2 5439   8.131   2.982  -0.025
 1828TIP3   OH2 5440   6.655   6.790   5.631
 1828TIP3    H1 5441   6.697   6.837   5.703
 1828TIP3    H2 5442   6.624   6.859   5.572
 1829TIP3   OH2 5443   3.443   5.963   2.462
 1829TIP3    H1 5444   3.524   5.991   2.420
 1829TIP3    H2 5445   3.470   5.931   2.548
 1830TIP3   OH2 5446   7.546   5.807   3.346
 1830TIP3    H1 5447   7.474   5.839   3.400
 1830TIP3    H2 5448   7.506   5.741   3.289
 1831TIP3   OH2 5449   0.081   5.093   5.539
 1831TIP3    H1 5450   0.063   5.059   5.451
 1831TIP3    H2 5451   0.031   5.036   5.597
 1832TIP3   OH2 5452   4.576   5.276   0.462
 1832TIP3    H1 5453   4.605   5.309   0.377
 1832TIP3    H2 5454   4.611   5.338   0.526
 1833TIP3   OH2 5455   0.863   6.930   3.920
 1833TIP3    H1 5456   0.828   6.880   3.847
 1833TIP3    H2 5457   0.865   7.020   3.889
 1834TIP3   OH2 5458   6.704   6.506   0.439
 1834TIP3    H1 5459   6.643   6.435   0.457
 1834TIP3    H2 5460   6.650   6.571   0.392
 1835TIP3   OH2 5461   2.226   2.320   4.534
 1835TIP3    H1 5462   2.149   2.322   4.477
 1835TIP3    H2 5463   2.285   2.257   4.493
 1836TIP3   OH2 5464   5.503   6.675   1.940
 1836TIP3    H1 5465   5.565   6.653   2.010
 1836TIP3    H2 5466   5.558   6.698   1.865
 1837TIP3   OH2 5467   4.928   5.185   1.853
 1837TIP3    H1 5468   4.894   5.101   1.824
 1837TIP3    H2 5469   4.960   5.169   1.942
 1838TIP3   OH2 5470   7.436   1.290   2.706
 1838TIP3    H1 5471   7.371   1.360   2.703
 1838TIP3    H2 5472   7.498   1.318   2.772
 1839TIP3   OH2 5473   5.276   6.368   2.649
 1839TIP3    H1 5474   5.190   6.400   2.624
 1839TIP3    H2 5475   5.283   6.388   2.742
 1840TIP3   OH2 5476   0.978   0.719   4.475
 1840TIP3    H1 5477   1.016   0.643   4.518
 1840TIP3    H2 5478   0.928   0.764   4.544
 1841TIP3   OH2 5479   3.325   1.181   1.172
 1841TIP3    H1 5480   3.262   1.133   1.118
 1841TIP3    H2 5481   3.357   1.116   1.234
 1842TIP3   OH2 5482   6.189   6.454   5.620
 1842TIP3    H1 5483   6.238   6.385   5.665
 1842TIP3    H2 5484   6.213   6.445   5.528
 1843TIP3   OH2 5485   4.499   5.865   1.626
 1843TIP3    H1 5486   4.513   5.959   1.633
 1843TIP3    H2 5487   4.490   5.835   1.716
 1844TIP3   OH2 5488   4.186   6.577   0.093
 1844TIP3    H1 5489   4.218   6.635   0.024
 1844TIP3    H2 5490   4.238   6.497   0.084
 1845TIP3   OH2 5491   0.580   7.000   0.364
 1845TIP3    H1 5492   0.668   6.969   0.386
 1845TIP3    H2 5493   0.569   7.079   0.415
 1846TIP3   OH2 5494   7.644   7.287   0.499
 1846TIP3    H1 5495   7.729   7.328   0.485
 1846TIP3    H2 5496   7.601   7.345   0.563
 1847TIP3   OH2 5497   7.961   5.969   4.635
 1847TIP3    H1 5498   7.977   6.053   4.591
 1847TIP3    H2 5499   8.029   5.964   4.702
 1848TIP3   OH2 5500   7.162   1.669   3.813
 1848TIP3    H1 5501   7.235   1.607   3.816
 1848TIP3    H2 5502   7.154   1.702   3.902
 1849TIP3   OH2 5503   1.960   2.438   1.765
 1849TIP3    H1 5504   2.027   2.505   1.748
 1849TIP3    H2 5505   1.993   2.359   1.723
 1850TIP3   OH2 5506   4.411   7.194   1.771
 1850TIP3    H1 5507   4.398   7.134   1.844
 1850TIP3    H2 5508   4.396   7.141   1.692
 1851TIP3   OH2 5509   7.377   5.572   5.492
 1851TIP3    H1 5510   7.434   5.634   5.538
 1851TIP3    H2 5511   7.402   5.582   5.400
 1852TIP3   OH2 5512   4.351   0.411   6.258
 1852TIP3    H1 5513   4.411   0.391   6.330
 1852TIP3    H2 5514   4.407   0.415   6.181
 1853TIP3   OH2 5515   5.859   7.102   4.127
 1853TIP3    H1 5516   5.833   7.044   4.199
 1853TIP3    H2 5517   5.911   7.170   4.169
 1854TIP3   OH2 5518   2.153   1.748   1.077
 1854TIP3    H1 5519   2.187   1.660   1.096
 1854TIP3    H2 5520   2.214   1.783   1.012
 1855TIP3   OH2 5521   3.087   0.459   4.651
 1855TIP3    H1 5522   3.070   0.550   4.626
 1855TIP3    H2 5523   3.003   0.427   4.683
 1856TIP3   OH2 5524   3.272   7.421   4.753
 1856TIP3    H1 5525   3.263   7.335   4.795
 1856TIP3    H2 5526   3.362   7.447   4.772
 1857TIP3   OH2 5527   4.036   5.597   0.434
 1857TIP3    H1 5528   4.083   5.639   0.506
 1857TIP3    H2 5529   3.945   5.623   0.446
 1858TIP3   OH2 5530   1.188   4.528   5.466
 1858TIP3    H1 5531   1.206   4.607   5.517
 1858TIP3    H2 5532   1.136   4.473   5.525
 1859TIP3   OH2 5533   0.974   1.059   2.148
 1859TIP3    H1 5534   0.957   1.040   2.241
 1859TIP3    H2 5535   1.038   1.130   2.150
 1860TIP3   OH2 5536   7.838   4.856   3.665
 1860TIP3    H1 5537   7.765   4.795   3.678
 1860TIP3    H2 5538   7.912   4.800   3.642
 1861TIP3   OH2 5539   5.212   7.276   0.337
 1861TIP3    H1 5540   5.148   7.226   0.387
 1861TIP3    H2 5541   5.286   7.287   0.397
 1862TIP3   OH2 5542   5.646   0.258   3.096
 1862TIP3    H1 5543   5.703   0.294   3.028
 1862TIP3    H2 5544   5.705   0.238   3.168
 1863TIP3   OH2 5545   4.684   5.278   2.966
 1863TIP3    H1 5546   4.590   5.294   2.978
 1863TIP3    H2 5547   4.727   5.340   3.025
 1864TIP3   OH2 5548   2.948   2.067   1.287
 1864TIP3    H1 5549   2.967   2.096   1.197
 1864TIP3    H2 5550   2.972   1.974   1.288
 1865TIP3   OH2 5551   1.375   4.685   3.337
 1865TIP3    H1 5552   1.298   4.639   3.303
 1865TIP3    H2 5553   1.375   4.769   3.290
 1866TIP3   OH2 5554   4.034   3.962   1.153
 1866TIP3    H1 5555   4.087   4.012   1.215
 1866TIP3    H2 5556   4.033   4.014   1.073
 1867TIP3   OH2 5557   5.234   3.403   2.994
 1867TIP3    H1 5558   5.215   3.495   2.976
 1867TIP3    H2 5559   5.235   3.361   2.908
 1868TIP3   OH2 5560   3.546   5.005   4.354
 1868TIP3    H1 5561   3.516   5.095   4.363
 1868TIP3    H2 5562   3.466   4.952   4.357
 1869TIP3   OH2 5563   2.720   6.710   5.989
 1869TIP3    H1 5564   2.660   6.751   5.926
 1869TIP3    H2 5565   2.801   6.760   5.979
 1870TIP3   OH2 5566   5.049   1.908   3.821
 1870TIP3    H1 5567   5.086   1.959   3.893
 1870TIP3    H2 5568   4.957   1.898   3.844
 1871TIP3   OH2 5569   3.560   6.267   2.202
 1871TIP3    H1 5570   3.607   6.285   2.120
 1871TIP3    H2 5571   3.617   6.206   2.249
 1872TIP3   OH2 5572   5.992   5.916   2.944
 1872TIP3    H1 5573   5.914   5.929   2.891
 1872TIP3    H2 5574   5.968   5.849   3.008
 1873TIP3   OH2 5575   6.389   2.411   1.711
 1873TIP3    H1 5576   6.407   2.494   1.755
 1873TIP3    H2 5577   6.311   2.377   1.755
 1874TIP3   OH2 5578   2.964   5.860   1.653
 1874TIP3    H1 5579   2.915   5.813   1.586
 1874TIP3    H2 5580   3.052   5.869   1.616
 1875TIP3   OH2 5581   1.301   0.358   0.179
 1875TIP3    H1 5582   1.380   0.371   0.126
 1875TIP3    H2 5583   1.298   0.264   0.194
 1876TIP3   OH2 5584   2.789   2.530   4.689
 1876TIP3    H1 5585   2.807   2.438   4.706
 1876TIP3    H2 5586   2.831   2.547   4.605
 1877TIP3   OH2 5587   5.866   4.914   4.343
 1877TIP3    H1 5588   5.891   4.824   4.364
 1877TIP3    H2 5589   5.875   4.961   4.426
 1878TIP3   OH2 5590   5.221   7.471   0.923
 1878TIP3    H1 5591   5.236   7.417   1.001
 1878TIP3    H2 5592   5.307   7.511   0.905
 1879TIP3   OH2 5593   4.845   5.298   6.724
 1879TIP3    H1 5594   4.753   5.297   6.698
 1879TIP3    H2 5595   4.861   5.387   6.756
 1880TIP3   OH2 5596   6.529   1.605   3.230
 1880TIP3    H1 5597   6.465   1.557   3.284
 1880TIP3    H2 5598   6.606   1.613   3.286
 1881TIP3   OH2 5599   4.799   2.807   2.118
 1881TIP3    H1 5600   4.724   2.790   2.174
 1881TIP3    H2 5601   4.867   2.839   2.178
 1882TIP3   OH2 5602   0.232   4.654   3.659
 1882TIP3    H1 5603   0.267   4.588   3.599
 1882TIP3    H2 5604   0.178   4.604   3.720
 1883TIP3   OH2 5605   3.443   1.641   2.588
 1883TIP3    H1 5606   3.519   1.668   2.536
 1883TIP3    H2 5607   3.369   1.650   2.528
 1884TIP3   OH2 5608   4.857   0.838   1.936
 1884TIP3    H1 5609   4.871   0.864   1.845
 1884TIP3    H2 5610   4.767   0.805   1.938
 1885TIP3   OH2 5611   0.756   0.308   1.201
 1885TIP3    H1 5612   0.772   0.366   1.126
 1885TIP3    H2 5613   0.730   0.225   1.161
 1886TIP3   OH2 5614   7.270   1.927   6.717
 1886TIP3    H1 5615   7.276   2.012   6.674
 1886TIP3    H2 5616   7.354   1.917   6.762
 1887TIP3   OH2 5617   2.207   2.633   6.601
 1887TIP3    H1 5618   2.151   2.705   6.574
 1887TIP3    H2 5619   2.159   2.589   6.671
 1888TIP3   OH2 5620   1.479   3.924   1.086
 1888TIP3    H1 5621   1.554   3.984   1.079
 1888TIP3    H2 5622   1.423   3.963   1.153
 1889TIP3   OH2 5623   1.823   4.449   3.599
 1889TIP3    H1 5624   1.883   4.523   3.606
 1889TIP3    H2 5625   1.773   4.466   3.519
 1890TIP3   OH2 5626   4.935   0.321   1.401
 1890TIP3    H1 5627   4.873   0.263   1.445
 1890TIP3    H2 5628   4.893   0.342   1.318
 1891TIP3   OH2 5629   2.660   1.183   6.085
 1891TIP3    H1 5630   2.747   1.158   6.054
 1891TIP3    H2 5631   2.649   1.136   6.167
 1892TIP3   OH2 5632   6.789   3.057   5.239
 1892TIP3    H1 5633   6.847   3.039   5.165
 1892TIP3    H2 5634   6.848   3.084   5.310
 1893TIP3   OH2 5635   6.996   2.484   6.615
 1893TIP3    H1 5636   6.957   2.400   6.590
 1893TIP3    H2 5637   7.032   2.519   6.533
 1894TIP3   OH2 5638   4.361   3.401   2.983
 1894TIP3    H1 5639   4.359   3.486   3.026
 1894TIP3    H2 5640   4.422   3.411   2.911
 1895TIP3   OH2 5641   6.651   5.175   1.665
 1895TIP3    H1 5642   6.558   5.163   1.646
 1895TIP3    H2 5643   6.661   5.269   1.680
 1896TIP3   OH2 5644   1.026   0.268   6.015
 1896TIP3    H1 5645   0.981   0.346   6.046
 1896TIP3    H2 5646   1.117   0.295   6.005
 1897TIP3   OH2 5647   1.374   6.130   1.827
 1897TIP3    H1 5648   1.438   6.059   1.829
 1897TIP3    H2 5649   1.356   6.149   1.919
 1898TIP3   OH2 5650   2.254   1.939   3.375
 1898TIP3    H1 5651   2.229   1.954   3.284
 1898TIP3    H2 5652   2.347   1.917   3.371
 1899TIP3   OH2 5653   1.331   2.226   6.601
 1899TIP3    H1 5654   1.367   2.289   6.539
 1899TIP3    H2 5655   1.404   2.167   6.620
 1900TIP3   OH2 5656   8.175   6.005   0.944
 1900TIP3    H1 5657   8.112   5.960   1.000
 1900TIP3    H2 5658   8.227   6.059   1.004
 1901TIP3   OH2 5659   5.374   1.841   2.862
 1901TIP3    H1 5660   5.321   1.918   2.885
 1901TIP3    H2 5661   5.459   1.877   2.839
 1902TIP3   OH2 5662   6.676   2.684   6.638
 1902TIP3    H1 5663   6.743   2.671   6.570
 1902TIP3    H2 5664   6.716   2.649   6.717
 1903TIP3   OH2 5665   1.897   6.179   3.167
 1903TIP3    H1 5666   1.914   6.269   3.139
 1903TIP3    H2 5667   1.802   6.176   3.179
 1904TIP3   OH2 5668   4.370   2.546   2.142
 1904TIP3    H1 5669   4.347   2.547   2.049
 1904TIP3    H2 5670   4.309   2.609   2.181
 1905TIP3   OH2 5671   2.083   6.771   2.534
 1905TIP3    H1 5672   2.086   6.733   2.447
 1905TIP3    H2 5673   1.992   6.762   2.561
 1906TIP3   OH2 5674   6.851   2.706   4.932
 1906TIP3    H1 5675   6.767   2.683   4.891
 1906TIP3    H2 5676   6.916   2.657   4.881
 1907TIP3   OH2 5677   8.209   7.252   3.392
 1907TIP3    H1 5678   8.213   7.214   3.304
 1907TIP3    H2 5679   8.187   7.179   3.449
 1908TIP3   OH2 5680   7.669   2.064   2.235
 1908TIP3    H1 5681   7.708   1.993   2.286
 1908TIP3    H2 5682   7.686   2.041   2.144
 1909TIP3   OH2 5683   5.444   6.881   2.838
 1909TIP3    H1 5684   5.470   6.791   2.853
 1909TIP3    H2 5685   5.511   6.916   2.779
 1910TIP3   OH2 5686   0.134   3.558   5.088
 1910TIP3    H1 5687   0.044   3.561   5.055
 1910TIP3    H2 5688   0.177   3.635   5.049
 1911TIP3   OH2 5689   2.948   1.772   3.382
 1911TIP3    H1 5690   2.856   1.757   3.402
 1911TIP3    H2 5691   2.992   1.768   3.467
 1912TIP3   OH2 5692   0.361   0.718   4.615
 1912TIP3    H1 5693   0.441   0.689   4.570
 1912TIP3    H2 5694   0.366   0.813   4.615
 1913TIP3   OH2 5695   1.363   2.299   3.170
 1913TIP3    H1 5696   1.430   2.292   3.102
 1913TIP3    H2 5697   1.286   2.331   3.124
 1914TIP3   OH2 5698   1.494   6.714   3.168
 1914TIP3    H1 5699   1.413   6.764   3.183
 1914TIP3    H2 5700   1.465   6.639   3.115
 1915TIP3   OH2 5701   3.558   0.755   4.247
 1915TIP3    H1 5702   3.551   0.690   4.317
 1915TIP3    H2 5703   3.473   0.751   4.203
 1916TIP3   OH2 5704   2.743   6.734   3.698
 1916TIP3    H1 5705   2.748   6.701   3.608
 1916TIP3    H2 5706   2.649   6.737   3.716
 1917TIP3   OH2 5707   2.045   2.543   4.127
 1917TIP3    H1 5708   1.992   2.593   4.065
 1917TIP3    H2 5709   1.991   2.537   4.206
 1918TIP3   OH2 5710   4.057   4.729   3.487
 1918TIP3    H1 5711   4.142   4.708   3.527
 1918TIP3    H2 5712   4.033   4.651   3.439
 1919TIP3   OH2 5713   2.251   0.822   0.854
 1919TIP3    H1 5714   2.167   0.814   0.808
 1919TIP3    H2 5715   2.235   0.781   0.940
 1920TIP3   OH2 5716   1.184   0.275   2.469
 1920TIP3    H1 5717   1.182   0.211   2.540
 1920TIP3    H2 5718   1.196   0.359   2.513
 1921TIP3   OH2 5719   6.106   6.731   5.386
 1921TIP3    H1 5720   6.122   6.811   5.336
 1921TIP3    H2 5721   6.075   6.667   5.321
 1922TIP3   OH2 5722   5.597   3.672   4.325
 1922TIP3    H1 5723   5.640   3.757   4.332
 1922TIP3    H2 5724   5.506   3.689   4.348
 1923TIP3   OH2 5725   3.256   7.396   1.570
 1923TIP3    H1 5726   3.341   7.364   1.539
 1923TIP3    H2 5727   3.276   7.478   1.614
 1924TIP3   OH2 5728   6.527   2.289   6.661
 1924TIP3    H1 5729   6.510   2.221   6.595
 1924TIP3    H2 5730   6.487   2.368   6.625
 1925TIP3   OH2 5731   0.976   4.270   1.520
 1925TIP3    H1 5732   1.006   4.256   1.610
 1925TIP3    H2 5733   0.967   4.181   1.484
 1926TIP3   OH2 5734   2.428   0.583   1.405
 1926TIP3    H1 5735   2.446   0.653   1.343
 1926TIP3    H2 5736   2.501   0.585   1.466
 1927TIP3   OH2 5737   6.193   5.547   5.089
 1927TIP3    H1 5738   6.229   5.624   5.133
 1927TIP3    H2 5739   6.098   5.558   5.094
 1928TIP3   OH2 5740   4.967   7.699   5.421
 1928TIP3    H1 5741   4.965   7.683   5.515
 1928TIP3    H2 5742   4.876   7.687   5.393
 1929TIP3   OH2 5743   4.795   2.476   2.685
 1929TIP3    H1 5744   4.851   2.553   2.684
 1929TIP3    H2 5745   4.754   2.474   2.598
 1930TIP3   OH2 5746   0.609   3.106   2.491
 1930TIP3    H1 5747   0.595   3.108   2.586
 1930TIP3    H2 5748   0.522   3.095   2.453
 1931TIP3   OH2 5749   6.299   1.991   1.599
 1931TIP3    H1 5750   6.383   1.950   1.577
 1931TIP3    H2 5751   6.271   2.031   1.517
 1932TIP3   OH2 5752   7.631   0.442   3.967
 1932TIP3    H1 5753   7.673   0.449   4.053
 1932TIP3    H2 5754   7.537   0.439   3.986
 1933TIP3   OH2 5755   6.619   1.773   6.096
 1933TIP3    H1 5756   6.568   1.709   6.047
 1933TIP3    H2 5757   6.708   1.739   6.096
 1934TIP3   OH2 5758   1.081   5.553   1.053
 1934TIP3    H1 5759   1.157   5.551   0.995
 1934TIP3    H2 5760   1.035   5.471   1.034
 1935TIP3   OH2 5761   3.194   5.975   3.824
 1935TIP3    H1 5762   3.174   5.948   3.735
 1935TIP3    H2 5763   3.290   5.975   3.829
 1936TIP3   OH2 5764   5.857   0.745   0.112
 1936TIP3    H1 5765   5.889   0.759   0.023
 1936TIP3    H2 5766   5.876   0.828   0.157
 1937TIP3   OH2 5767   7.465   2.231   1.838
 1937TIP3    H1 5768   7.431   2.185   1.761
 1937TIP3    H2 5769   7.552   2.261   1.811
 1938TIP3   OH2 5770   6.400   4.993   0.935
 1938TIP3    H1 5771   6.346   5.059   0.891
 1938TIP3    H2 5772   6.338   4.927   0.965
 1939TIP3   OH2 5773   3.957   7.154   6.419
 1939TIP3    H1 5774   4.040   7.188   6.386
 1939TIP3    H2 5775   3.909   7.129   6.341
 1940TIP3   OH2 5776   5.708   5.491   2.654
 1940TIP3    H1 5777   5.647   5.429   2.694
 1940TIP3    H2 5778   5.663   5.520   2.574
 1941TIP3   OH2 5779   3.551   7.499   2.126
 1941TIP3    H1 5780   3.483   7.557   2.160
 1941TIP3    H2 5781   3.593   7.464   2.204
 1942TIP3   OH2 5782   6.566   5.593   4.803
 1942TIP3    H1 5783   6.476   5.625   4.810
 1942TIP3    H2 5784   6.576   5.568   4.711
 1943TIP3   OH2 5785   6.643   7.009   6.492
 1943TIP3    H1 5786   6.722   6.957   6.481
 1943TIP3    H2 5787   6.670   7.081   6.549
 1944TIP3   OH2 5788   6.365   7.323   5.383
 1944TIP3    H1 5789   6.358   7.236   5.423
 1944TIP3    H2 5790   6.428   7.369   5.438
 1945TIP3   OH2 5791   2.958   5.245   0.859
 1945TIP3    H1 5792   3.026   5.198   0.811
 1945TIP3    H2 5793   2.906   5.176   0.901
 1946TIP3   OH2 5794   6.302   7.548   0.703
 1946TIP3    H1 5795   6.282   7.542   0.610
 1946TIP3    H2 5796   6.373   7.485   0.717
 1947TIP3   OH2 5797   0.557   4.543   2.982
 1947TIP3    H1 5798   0.571   4.449   2.996
 1947TIP3    H2 5799   0.463   4.556   2.995
 1948TIP3   OH2 5800   5.908   1.866   2.090
 1948TIP3    H1 5801   5.822   1.833   2.114
 1948TIP3    H2 5802   5.969   1.811   2.138
 1949TIP3   OH2 5803   0.822   1.047   3.040
 1949TIP3    H1 5804   0.788   0.990   2.972
 1949TIP3    H2 5805   0.754   1.047   3.108
 1950TIP3   OH2 5806   1.106   0.722   4.021
 1950TIP3    H1 5807   1.059   0.653   4.066
 1950TIP3    H2 5808   1.087   0.708   3.928
 1951TIP3   OH2 5809   3.641   0.079   4.683
 1951TIP3    H1 5810   3.605  -0.007   4.661
 1951TIP3    H2 5811   3.631   0.130   4.602
 1952TIP3   OH2 5812   5.977   1.203   5.260
 1952TIP3    H1 5813   5.944   1.212   5.171
 1952TIP3    H2 5814   5.952   1.284   5.304
 1953TIP3   OH2 5815   7.813   3.557   4.896
 1953TIP3    H1 5816   7.732   3.506   4.888
 1953TIP3    H2 5817   7.883   3.494   4.879
 1954TIP3   OH2 5818   6.983   2.201   3.513
 1954TIP3    H1 5819   7.048   2.167   3.575
 1954TIP3    H2 5820   7.034   2.221   3.435
 1955TIP3   OH2 5821   7.994   0.276   0.241
 1955TIP3    H1 5822   8.060   0.344   0.241
 1955TIP3    H2 5823   7.912   0.321   0.263
 1956TIP3   OH2 5824   0.176   1.090   0.649
 1956TIP3    H1 5825   0.211   1.091   0.560
 1956TIP3    H2 5826   0.127   1.172   0.657
 1957TIP3   OH2 5827   0.526   6.626   4.089
 1957TIP3    H1 5828   0.592   6.559   4.109
 1957TIP3    H2 5829   0.450   6.576   4.061
 1958TIP3   OH2 5830   7.584   6.298   2.891
 1958TIP3    H1 5831   7.595   6.317   2.985
 1958TIP3    H2 5832   7.493   6.320   2.873
 1959TIP3   OH2 5833   0.722   3.682   4.842
 1959TIP3    H1 5834   0.809   3.721   4.836
 1959TIP3    H2 5835   0.739   3.588   4.846
 1960TIP3   OH2 5836   4.455   5.937   0.183
 1960TIP3    H1 5837   4.420   5.851   0.203
 1960TIP3    H2 5838   4.467   5.979   0.269
 1961TIP3   OH2 5839   3.485   3.101   4.767
 1961TIP3    H1 5840   3.549   3.062   4.706
 1961TIP3    H2 5841   3.517   3.190   4.781
 1962TIP3   OH2 5842   2.594   4.618   1.137
 1962TIP3    H1 5843   2.612   4.633   1.230
 1962TIP3    H2 5844   2.589   4.523   1.128
 1963TIP3   OH2 5845   6.268   0.475   4.348
 1963TIP3    H1 5846   6.332   0.519   4.292
 1963TIP3    H2 5847   6.305   0.479   4.436
 1964TIP3   OH2 5848   2.715   7.034   6.131
 1964TIP3    H1 5849   2.771   7.109   6.109
 1964TIP3    H2 5850   2.771   6.975   6.180
 1965TIP3   OH2 5851   6.252   4.294   2.712
 1965TIP3    H1 5852   6.204   4.314   2.632
 1965TIP3    H2 5853   6.327   4.242   2.682
 1966TIP3   OH2 5854   3.079   1.890   2.166
 1966TIP3    H1 5855   3.130   1.934   2.098
 1966TIP3    H2 5856   3.097   1.939   2.246
 1967TIP3   OH2 5857   8.151   2.631   6.483
 1967TIP3    H1 5858   8.166   2.618   6.390
 1967TIP3    H2 5859   8.093   2.707   6.487
 1968TIP3   OH2 5860   5.823   1.512   2.568
 1968TIP3    H1 5861   5.776   1.479   2.491
 1968TIP3    H2 5862   5.755   1.528   2.633
 1969TIP3   OH2 5863   2.965   2.652   2.315
 1969TIP3    H1 5864   2.936   2.686   2.401
 1969TIP3    H2 5865   3.060   2.647   2.322
 1970TIP3   OH2 5866   4.973   2.288   0.361
 1970TIP3    H1 5867   4.977   2.211   0.418
 1970TIP3    H2 5868   4.887   2.285   0.321
 1971TIP3   OH2 5869   3.416   1.876   2.189
 1971TIP3    H1 5870   3.381   1.804   2.137
 1971TIP3    H2 5871   3.474   1.834   2.253
 1972TIP3   OH2 5872   3.086   0.962   4.684
 1972TIP3    H1 5873   3.020   0.914   4.634
 1972TIP3    H2 5874   3.066   0.943   4.775
 1973TIP3   OH2 5875   4.121   4.042   0.594
 1973TIP3    H1 5876   4.202   4.087   0.571
 1973TIP3    H2 5877   4.057   4.112   0.608
 1974TIP3   OH2 5878   0.746   5.298   6.137
 1974TIP3    H1 5879   0.817   5.240   6.167
 1974TIP3    H2 5880   0.786   5.385   6.133
 1975TIP3   OH2 5881   0.100   0.949   0.064
 1975TIP3    H1 5882   0.194   0.954   0.046
 1975TIP3    H2 5883   0.070   1.040   0.063
 1976TIP3   OH2 5884   1.096   5.895   2.141
 1976TIP3    H1 5885   1.059   5.977   2.111
 1976TIP3    H2 5886   1.055   5.828   2.087
 1977TIP3   OH2 5887   6.820   3.414   5.757
 1977TIP3    H1 5888   6.787   3.385   5.843
 1977TIP3    H2 5889   6.768   3.492   5.738
 1978TIP3   OH2 5890   3.595   7.742   5.200
 1978TIP3    H1 5891   3.616   7.828   5.235
 1978TIP3    H2 5892   3.505   7.725   5.227
 1979TIP3   OH2 5893   0.685   5.403   1.542
 1979TIP3    H1 5894   0.651   5.316   1.523
 1979TIP3    H2 5895   0.680   5.410   1.637
 1980TIP3   OH2 5896   0.667   3.763   2.176
 1980TIP3    H1 5897   0.710   3.727   2.099
 1980TIP3    H2 5898   0.629   3.845   2.147
 1981TIP3   OH2 5899   1.215   2.854   3.266
 1981TIP3    H1 5900   1.252   2.941   3.255
 1981TIP3    H2 5901   1.218   2.815   3.179
 1982TIP3   OH2 5902   0.321   0.071   2.105
 1982TIP3    H1 5903   0.303   0.012   2.178
 1982TIP3    H2 5904   0.360   0.148   2.146
 1983TIP3   OH2 5905   6.044   6.988   2.682
 1983TIP3    H1 5906   6.061   7.024   2.594
 1983TIP3    H2 5907   6.035   6.894   2.667
 1984TIP3   OH2 5908   7.121   0.234   3.844
 1984TIP3    H1 5909   7.053   0.295   3.814
 1984TIP3    H2 5910   7.203   0.274   3.815
 1985TIP3   OH2 5911   2.887   0.075   3.977
 1985TIP3    H1 5912   2.895   0.171   3.977
 1985TIP3    H2 5913   2.866   0.053   4.067
 1986TIP3   OH2 5914   4.796   5.143   1.179
 1986TIP3    H1 5915   4.855   5.180   1.245
 1986TIP3    H2 5916   4.720   5.200   1.179
 1987TIP3   OH2 5917   5.329   4.269   2.544
 1987TIP3    H1 5918   5.402   4.308   2.592
 1987TIP3    H2 5919   5.255   4.275   2.604
 1988TIP3   OH2 5920   1.310   2.792   4.725
 1988TIP3    H1 5921   1.235   2.839   4.762
 1988TIP3    H2 5922   1.343   2.850   4.657
 1989TIP3   OH2 5923   4.052   4.444   6.258
 1989TIP3    H1 5924   4.115   4.405   6.319
 1989TIP3    H2 5925   4.070   4.401   6.175
 1990TIP3   OH2 5926   7.672   1.681   3.226
 1990TIP3    H1 5927   7.579   1.666   3.207
 1990TIP3    H2 5928   7.678   1.776   3.240
 1991TIP3   OH2 5929   3.497   0.554   4.753
 1991TIP3    H1 5930   3.577   0.526   4.796
 1991TIP3    H2 5931   3.493   0.648   4.767
 1992TIP3   OH2 5932   1.689   0.913   4.957
 1992TIP3    H1 5933   1.699   0.980   5.024
 1992TIP3    H2 5934   1.739   0.945   4.883
 1993TIP3   OH2 5935   4.571   6.059   2.977
 1993TIP3    H1 5936   4.557   6.139   2.926
 1993TIP3    H2 5937   4.620   6.002   2.918
 1994TIP3   OH2 5938   6.307   0.705   2.538
 1994TIP3    H1 5939   6.218   0.671   2.531
 1994TIP3    H2 5940   6.297   0.795   2.570
 1995TIP3   OH2 5941   4.911   4.012   0.219
 1995TIP3    H1 5942   4.916   4.017   0.123
 1995TIP3    H2 5943   5.000   3.989   0.246
 1996TIP3   OH2 5944   3.190   0.240   5.298
 1996TIP3    H1 5945   3.274   0.282   5.279
 1996TIP3    H2 5946   3.164   0.276   5.383
 1997TIP3   OH2 5947   0.836   3.491   2.876
 1997TIP3    H1 5948   0.801   3.580   2.881
 1997TIP3    H2 5949   0.931   3.502   2.879
 1998TIP3   OH2 5950   3.507   5.292   3.342
 1998TIP3    H1 5951   3.427   5.341   3.363
 1998TIP3    H2 5952   3.520   5.306   3.248
 1999TIP3   OH2 5953   1.891   6.962   5.997
 1999TIP3    H1 5954   1.807   6.934   5.958
 1999TIP3    H2 5955   1.900   6.907   6.075
 2000TIP3   OH2 5956   1.021   4.615   0.238
 2000TIP3    H1 5957   1.034   4.595   0.330
 2000TIP3    H2 5958   0.927   4.631   0.230
 2001TIP3   OH2 5959   7.228   5.174   4.574
 2001TIP3    H1 5960   7.307   5.136   4.535
 2001TIP3    H2 5961   7.217   5.258   4.529
 2002TIP3   OH2 5962   1.652   7.315   5.010
 2002TIP3    H1 5963   1.631   7.377   5.080
 2002TIP3    H2 5964   1.587   7.245   5.019
 2003TIP3   OH2 5965   2.289   1.550   0.133
 2003TIP3    H1 5966   2.328   1.463   0.144
 2003TIP3    H2 5967   2.198   1.539   0.160
 2004TIP3   OH2 5968   6.024   1.998   2.478
 2004TIP3    H1 5969   5.974   1.917   2.488
 2004TIP3    H2 5970   6.089   1.979   2.411
 2005TIP3   OH2 5971   5.320   7.711   0.534
 2005TIP3    H1 5972   5.233   7.726   0.571
 2005TIP3    H2 5973   5.309   7.729   0.440
 2006TIP3   OH2 5974   7.163   7.657   2.744
 2006TIP3    H1 5975   7.108   7.660   2.822
 2006TIP3    H2 5976   7.234   7.718   2.762
 2007TIP3   OH2 5977   8.247   3.909   1.038
 2007TIP3    H1 5978   8.171   3.947   0.994
 2007TIP3    H2 5979   8.317   3.913   0.974
 2008TIP3   OH2 5980   5.230   0.199   1.612
 2008TIP3    H1 5981   5.206   0.149   1.534
 2008TIP3    H2 5982   5.326   0.193   1.616
 2009TIP3   OH2 5983   1.098   3.332   0.617
 2009TIP3    H1 5984   1.130   3.269   0.554
 2009TIP3    H2 5985   1.088   3.283   0.698
 2010TIP3   OH2 5986   3.028   7.605   4.031
 2010TIP3    H1 5987   3.104   7.564   4.074
 2010TIP3    H2 5988   2.963   7.535   4.026
 2011TIP3   OH2 5989   7.637   6.362   3.158
 2011TIP3    H1 5990   7.602   6.368   3.247
 2011TIP3    H2 5991   7.706   6.297   3.163
 2012TIP3   OH2 5992   4.139   1.900   3.963
 2012TIP3    H1 5993   4.045   1.895   3.981
 2012TIP3    H2 5994   4.145   1.915   3.869
 2013TIP3   OH2 5995   3.551   3.717   4.750
 2013TIP3    H1 5996   3.603   3.639   4.771
 2013TIP3    H2 5997   3.500   3.691   4.674
 2014TIP3   OH2 5998   7.176   2.494   3.489
 2014TIP3    H1 5999   7.165   2.401   3.469
 2014TIP3    H2 6000   7.271   2.505   3.502
 2015TIP3   OH2 6001   5.921   5.326   0.665
 2015TIP3    H1 6002   5.986   5.388   0.632
 2015TIP3    H2 6003   5.932   5.249   0.609
 2016TIP3   OH2 6004   5.159   4.940   5.541
 2016TIP3    H1 6005   5.072   4.903   5.555
 2016TIP3    H2 6006   5.176   4.992   5.620
 2017TIP3   OH2 6007   2.644   2.709   0.628
 2017TIP3    H1 6008   2.572   2.768   0.608
 2017TIP3    H2 6009   2.722   2.754   0.594
 2018TIP3   OH2 6010   6.075   4.782   2.965
 2018TIP3    H1 6011   6.033   4.841   2.901
 2018TIP3    H2 6012   6.148   4.743   2.917
 2019TIP3   OH2 6013   0.281   5.675   4.833
 2019TIP3    H1 6014   0.274   5.726   4.914
 2019TIP3    H2 6015   0.355   5.617   4.848
 2020TIP3   OH2 6016   5.634   2.745   1.696
 2020TIP3    H1 6017   5.600   2.810   1.635
 2020TIP3    H2 6018   5.595   2.769   1.780
 2021TIP3   OH2 6019   0.669   4.302   2.414
 2021TIP3    H1 6020   0.585   4.258   2.425
 2021TIP3    H2 6021   0.725   4.237   2.373
 2022TIP3   OH2 6022   3.696   1.777   5.196
 2022TIP3    H1 6023   3.708   1.861   5.241
 2022TIP3    H2 6024   3.615   1.742   5.233
 2023TIP3   OH2 6025   4.965   0.103   2.068
 2023TIP3    H1 6026   4.912   0.147   2.002
 2023TIP3    H2 6027   4.946   0.149   2.150
 2024TIP3   OH2 6028   4.915   3.715   5.801
 2024TIP3    H1 6029   4.932   3.745   5.890
 2024TIP3    H2 6030   4.953   3.783   5.745
 2025TIP3   OH2 6031   0.792   5.511   2.594
 2025TIP3    H1 6032   0.849   5.588   2.587
 2025TIP3    H2 6033   0.721   5.529   2.532
 2026TIP3   OH2 6034   6.372   5.683   4.406
 2026TIP3    H1 6035   6.361   5.627   4.483
 2026TIP3    H2 6036   6.466   5.684   4.389
 2027TIP3   OH2 6037   7.636   1.742   0.082
 2027TIP3    H1 6038   7.610   1.832   0.063
 2027TIP3    H2 6039   7.599   1.725   0.169
 2028TIP3   OH2 6040   2.672   0.829   5.778
 2028TIP3    H1 6041   2.740   0.777   5.736
 2028TIP3    H2 6042   2.654   0.901   5.716
 2029TIP3   OH2 6043   3.109   1.887   2.519
 2029TIP3    H1 6044   3.088   1.807   2.567
 2029TIP3    H2 6045   3.026   1.916   2.481
 2030TIP3   OH2 6046   6.125   5.652   2.905
 2030TIP3    H1 6047   6.129   5.745   2.884
 2030TIP3    H2 6048   6.043   5.642   2.954
 2031TIP3   OH2 6049   5.165   6.001   5.041
 2031TIP3    H1 6050   5.227   6.067   5.011
 2031TIP3    H2 6051   5.144   6.028   5.131
 2032TIP3   OH2 6052   0.118   1.429   1.998
 2032TIP3    H1 6053   0.136   1.500   1.936
 2032TIP3    H2 6054   0.081   1.359   1.944
 2033TIP3   OH2 6055   5.127   0.270   4.261
 2033TIP3    H1 6056   5.113   0.180   4.290
 2033TIP3    H2 6057   5.109   0.269   4.167
 2034TIP3   OH2 6058   0.904   6.211   1.088
 2034TIP3    H1 6059   0.956   6.155   1.030
 2034TIP3    H2 6060   0.930   6.300   1.066
 2035TIP3   OH2 6061   3.202   7.430   0.930
 2035TIP3    H1 6062   3.108   7.432   0.948
 2035TIP3    H2 6063   3.220   7.340   0.905
 2036TIP3   OH2 6064   4.062   6.840   3.611
 2036TIP3    H1 6065   4.130   6.777   3.636
 2036TIP3    H2 6066   4.098   6.885   3.535
 2037TIP3   OH2 6067   7.507   3.054   6.096
 2037TIP3    H1 6068   7.578   3.105   6.057
 2037TIP3    H2 6069   7.536   3.038   6.186
 2038TIP3   OH2 6070   7.593   2.223   3.210
 2038TIP3    H1 6071   7.648   2.148   3.232
 2038TIP3    H2 6072   7.546   2.243   3.291
 2039TIP3   OH2 6073   0.905   6.886   1.837
 2039TIP3    H1 6074   0.969   6.889   1.908
 2039TIP3    H2 6075   0.913   6.972   1.794
 2040TIP3   OH2 6076   0.537   2.878   2.999
 2040TIP3    H1 6077   0.487   2.960   3.004
 2040TIP3    H2 6078   0.475   2.816   2.961
 2041TIP3   OH2 6079   8.241   7.106   0.618
 2041TIP3    H1 6080   8.236   7.016   0.585
 2041TIP3    H2 6081   8.332   7.131   0.606
 2042TIP3   OH2 6082   5.459   0.625   2.664
 2042TIP3    H1 6083   5.453   0.704   2.610
 2042TIP3    H2 6084   5.537   0.579   2.633
 2043TIP3   OH2 6085   4.075   2.787   6.472
 2043TIP3    H1 6086   4.003   2.821   6.525
 2043TIP3    H2 6087   4.154   2.814   6.519
 2044TIP3   OH2 6088   4.906   4.265   4.159
 2044TIP3    H1 6089   4.874   4.351   4.131
 2044TIP3    H2 6090   4.945   4.280   4.244
 2045TIP3   OH2 6091   0.300   0.749   1.304
 2045TIP3    H1 6092   0.350   0.825   1.333
 2045TIP3    H2 6093   0.225   0.785   1.258
 2046TIP3   OH2 6094   7.644   2.251   5.917
 2046TIP3    H1 6095   7.736   2.250   5.944
 2046TIP3    H2 6096   7.647   2.239   5.822
 2047TIP3   OH2 6097   1.054   4.378   1.239
 2047TIP3    H1 6098   0.985   4.370   1.305
 2047TIP3    H2 6099   1.062   4.291   1.202
 2048TIP3   OH2 6100   7.135   6.188   3.404
 2048TIP3    H1 6101   7.117   6.210   3.495
 2048TIP3    H2 6102   7.062   6.132   3.377
 2049TIP3   OH2 6103   5.738   1.585   3.035
 2049TIP3    H1 6104   5.681   1.641   2.983
 2049TIP3    H2 6105   5.815   1.639   3.054
 2050TIP3   OH2 6106   1.895   7.279   0.117
 2050TIP3    H1 6107   1.902   7.296   0.023
 2050TIP3    H2 6108   1.985   7.264   0.146
 2051TIP3   OH2 6109   0.940   0.632   1.138
 2051TIP3    H1 6110   0.875   0.631   1.209
 2051TIP3    H2 6111   1.010   0.689   1.170
 2052TIP3   OH2 6112   7.463   6.596   5.182
 2052TIP3    H1 6113   7.409   6.670   5.153
 2052TIP3    H2 6114   7.399   6.528   5.205
 2053TIP3   OH2 6115   5.339   3.232   0.854
 2053TIP3    H1 6116   5.364   3.323   0.867
 2053TIP3    H2 6117   5.266   3.218   0.915
 2054TIP3   OH2 6118   0.521   1.553   4.799
 2054TIP3    H1 6119   0.477   1.492   4.859
 2054TIP3    H2 6120   0.538   1.631   4.851
 2055TIP3   OH2 6121   4.604   0.753   1.935
 2055TIP3    H1 6122   4.627   0.671   1.891
 2055TIP3    H2 6123   4.559   0.725   2.015
 2056TIP3   OH2 6124   0.869   1.566   4.015
 2056TIP3    H1 6125   0.830   1.525   4.091
 2056TIP3    H2 6126   0.847   1.659   4.023
 2057TIP3   OH2 6127   7.603   0.339   1.353
 2057TIP3    H1 6128   7.663   0.273   1.388
 2057TIP3    H2 6129   7.516   0.299   1.363
 2058TIP3   OH2 6130   2.294   0.341   5.372
 2058TIP3    H1 6131   2.215   0.394   5.381
 2058TIP3    H2 6132   2.276   0.283   5.297
 2059TIP3   OH2 6133   3.005   3.989   1.938
 2059TIP3    H1 6134   2.996   3.899   1.970
 2059TIP3    H2 6135   3.075   4.027   1.993
 2060TIP3   OH2 6136   6.017   6.364   2.275
 2060TIP3    H1 6137   6.107   6.343   2.301
 2060TIP3    H2 6138   6.026   6.437   2.213
 2061TIP3   OH2 6139   0.720   6.818   6.731
 2061TIP3    H1 6140   0.690   6.728   6.719
 2061TIP3    H2 6141   0.716   6.833   6.825
 2062TIP3   OH2 6142   8.127   5.416   0.043
 2062TIP3    H1 6143   8.071   5.469   0.099
 2062TIP3    H2 6144   8.068   5.352   0.003
 2063TIP3   OH2 6145   3.646   5.843   2.095
 2063TIP3    H1 6146   3.667   5.768   2.039
 2063TIP3    H2 6147   3.566   5.818   2.141
 2064TIP3   OH2 6148   1.663   2.794   6.203
 2064TIP3    H1 6149   1.716   2.874   6.198
 2064TIP3    H2 6150   1.696   2.748   6.280
 2065TIP3   OH2 6151   4.324   4.773   0.838
 2065TIP3    H1 6152   4.409   4.734   0.819
 2065TIP3    H2 6153   4.339   4.828   0.915
 2066TIP3   OH2 6154   2.699   7.351   6.534
 2066TIP3    H1 6155   2.617   7.305   6.515
 2066TIP3    H2 6156   2.683   7.396   6.616
 2067TIP3   OH2 6157   3.565   3.073   3.675
 2067TIP3    H1 6158   3.647   3.025   3.668
 2067TIP3    H2 6159   3.571   3.141   3.608
 2068TIP3   OH2 6160   7.850   2.182   3.326
 2068TIP3    H1 6161   7.899   2.178   3.244
 2068TIP3    H2 6162   7.808   2.268   3.324
 2069TIP3   OH2 6163   4.261   2.680   4.359
 2069TIP3    H1 6164   4.303   2.639   4.434
 2069TIP3    H2 6165   4.333   2.717   4.308
 2070TIP3   OH2 6166   7.354   7.345   4.780
 2070TIP3    H1 6167   7.262   7.362   4.801
 2070TIP3    H2 6168   7.389   7.431   4.755
 2071TIP3   OH2 6169   0.049   1.505   2.555
 2071TIP3    H1 6170   0.092   1.462   2.482
 2071TIP3    H2 6171  -0.027   1.549   2.515
 2072TIP3   OH2 6172   1.249   7.272   4.301
 2072TIP3    H1 6173   1.304   7.341   4.265
 2072TIP3    H2 6174   1.165   7.282   4.258
 2073TIP3   OH2 6175   0.080   6.179   6.088
 2073TIP3    H1 6176   0.081   6.158   6.182
 2073TIP3    H2 6177  -0.013   6.187   6.066
 2074TIP3   OH2 6178   3.571   4.316   5.475
 2074TIP3    H1 6179   3.499   4.350   5.528
 2074TIP3    H2 6180   3.597   4.235   5.518
 2075TIP3   OH2 6181   6.856   7.281   6.281
 2075TIP3    H1 6182   6.846   7.337   6.205
 2075TIP3    H2 6183   6.794   7.315   6.346
 2076TIP3   OH2 6184   2.285   7.120   3.109
 2076TIP3    H1 6185   2.194   7.104   3.085
 2076TIP3    H2 6186   2.304   7.207   3.075
 2077TIP3   OH2 6187   3.499   0.721   1.359
 2077TIP3    H1 6188   3.409   0.691   1.348
 2077TIP3    H2 6189   3.547   0.681   1.286
 2078TIP3   OH2 6190   2.489   2.158   6.292
 2078TIP3    H1 6191   2.575   2.180   6.330
 2078TIP3    H2 6192   2.505   2.077   6.243
 2079TIP3   OH2 6193   5.880   3.913   5.995
 2079TIP3    H1 6194   5.894   3.892   5.902
 2079TIP3    H2 6195   5.958   3.879   6.039
 2080TIP3   OH2 6196   4.940   3.019   5.032
 2080TIP3    H1 6197   4.888   3.017   4.951
 2080TIP3    H2 6198   4.879   2.990   5.099
 2081TIP3   OH2 6199   3.924   6.859   4.644
 2081TIP3    H1 6200   3.857   6.793   4.664
 2081TIP3    H2 6201   3.998   6.835   4.701
 2082TIP3   OH2 6202   2.904   2.380   0.741
 2082TIP3    H1 6203   2.844   2.309   0.765
 2082TIP3    H2 6204   2.910   2.374   0.646
 2083TIP3   OH2 6205   1.879   0.392   5.606
 2083TIP3    H1 6206   1.843   0.327   5.666
 2083TIP3    H2 6207   1.805   0.422   5.555
 2084TIP3   OH2 6208   7.260   2.530   2.509
 2084TIP3    H1 6209   7.223   2.481   2.582
 2084TIP3    H2 6210   7.336   2.575   2.546
 2085TIP3   OH2 6211   6.223   0.571   3.017
 2085TIP3    H1 6212   6.238   0.503   2.952
 2085TIP3    H2 6213   6.305   0.620   3.021
 2086TIP3   OH2 6214   5.713   3.164   1.683
 2086TIP3    H1 6215   5.628   3.151   1.641
 2086TIP3    H2 6216   5.694   3.162   1.776
 2087TIP3   OH2 6217   4.779   5.785   0.989
 2087TIP3    H1 6218   4.790   5.858   0.929
 2087TIP3    H2 6219   4.684   5.775   0.998
 2088TIP3   OH2 6220   6.295   7.225   5.137
 2088TIP3    H1 6221   6.376   7.211   5.089
 2088TIP3    H2 6222   6.321   7.276   5.214
 2089TIP3   OH2 6223   1.092   4.045   6.170
 2089TIP3    H1 6224   1.054   4.105   6.106
 2089TIP3    H2 6225   1.109   4.099   6.247
 2090TIP3   OH2 6226   3.010   0.428   5.424
 2090TIP3    H1 6227   2.992   0.521   5.415
 2090TIP3    H2 6228   3.008   0.393   5.335
 2091TIP3   OH2 6229   3.965   1.640   0.065
 2091TIP3    H1 6230   3.976   1.682   0.150
 2091TIP3    H2 6231   3.954   1.547   0.085
 2092TIP3   OH2 6232   5.624   3.934   2.815
 2092TIP3    H1 6233   5.550   3.876   2.832
 2092TIP3    H2 6234   5.666   3.945   2.900
 2093TIP3   OH2 6235   4.458   4.745   5.882
 2093TIP3    H1 6236   4.475   4.652   5.894
 2093TIP3    H2 6237   4.430   4.776   5.968
 2094TIP3   OH2 6238   3.408   1.140   2.517
 2094TIP3    H1 6239   3.408   1.217   2.574
 2094TIP3    H2 6240   3.499   1.132   2.488
 2095TIP3   OH2 6241   3.598   2.400   5.359
 2095TIP3    H1 6242   3.525   2.350   5.323
 2095TIP3    H2 6243   3.564   2.438   5.440
 2096TIP3   OH2 6244   2.455   7.213   1.504
 2096TIP3    H1 6245   2.535   7.207   1.453
 2096TIP3    H2 6246   2.484   7.226   1.595
 2097TIP3   OH2 6247   2.179   3.279   0.929
 2097TIP3    H1 6248   2.246   3.302   0.866
 2097TIP3    H2 6249   2.204   3.191   0.960
 2098TIP3   OH2 6250   6.589   2.662   0.414
 2098TIP3    H1 6251   6.525   2.673   0.344
 2098TIP3    H2 6252   6.549   2.599   0.474
 2099TIP3   OH2 6253   4.597   6.408   3.556
 2099TIP3    H1 6254   4.596   6.317   3.584
 2099TIP3    H2 6255   4.534   6.411   3.484
 2100TIP3   OH2 6256   0.109   7.571   5.233
 2100TIP3    H1 6257   0.199   7.552   5.207
 2100TIP3    H2 6258   0.076   7.628   5.163
 2101TIP3   OH2 6259   1.806   3.990   6.217
 2101TIP3    H1 6260   1.717   3.963   6.239
 2101TIP3    H2 6261   1.862   3.922   6.253
 2102TIP3   OH2 6262   7.350   2.728   0.831
 2102TIP3    H1 6263   7.371   2.752   0.921
 2102TIP3    H2 6264   7.259   2.755   0.819
 2103TIP3   OH2 6265  -0.009   4.228   3.607
 2103TIP3    H1 6266   0.074   4.199   3.645
 2103TIP3    H2 6267  -0.059   4.147   3.595
 2104TIP3   OH2 6268   2.741   3.587   4.310
 2104TIP3    H1 6269   2.806   3.528   4.349
 2104TIP3    H2 6270   2.657   3.554   4.341
 2105TIP3   OH2 6271   0.186   2.077   6.700
 2105TIP3    H1 6272   0.236   2.153   6.671
 2105TIP3    H2 6273   0.123   2.112   6.763
 2106TIP3   OH2 6274   1.516   5.677   1.108
 2106TIP3    H1 6275   1.589   5.658   1.048
 2106TIP3    H2 6276   1.441   5.691   1.050
 2107TIP3   OH2 6277   4.212   7.017   0.853
 2107TIP3    H1 6278   4.170   7.018   0.767
 2107TIP3    H2 6279   4.181   6.937   0.894
 2108TIP3   OH2 6280   2.561   7.187   3.322
 2108TIP3    H1 6281   2.607   7.108   3.352
 2108TIP3    H2 6282   2.472   7.177   3.357
 2109TIP3   OH2 6283   0.990   4.772   5.336
 2109TIP3    H1 6284   0.911   4.813   5.371
 2109TIP3    H2 6285   1.010   4.822   5.256
 2110TIP3   OH2 6286   5.714   2.772   4.640
 2110TIP3    H1 6287   5.798   2.730   4.659
 2110TIP3    H2 6288   5.648   2.714   4.679
 2111TIP3   OH2 6289   5.104   2.216   2.555
 2111TIP3    H1 6290   5.031   2.156   2.541
 2111TIP3    H2 6291   5.116   2.217   2.650
 2112TIP3   OH2 6292   7.978   0.619   4.084
 2112TIP3    H1 6293   7.943   0.639   3.997
 2112TIP3    H2 6294   8.017   0.532   4.074
 2113TIP3   OH2 6295   7.401   7.517   1.417
 2113TIP3    H1 6296   7.490   7.552   1.415
 2113TIP3    H2 6297   7.360   7.560   1.492
 2114TIP3   OH2 6298   8.275   6.187   1.227
 2114TIP3    H1 6299   8.229   6.140   1.297
 2114TIP3    H2 6300   8.362   6.148   1.225
 2115TIP3   OH2 6301   5.926   2.663   4.769
 2115TIP3    H1 6302   5.955   2.678   4.860
 2115TIP3    H2 6303   5.999   2.694   4.716
 2116TIP3   OH2 6304   4.426   0.613   4.011
 2116TIP3    H1 6305   4.438   0.518   4.009
 2116TIP3    H2 6306   4.410   0.633   4.103
 2117TIP3   OH2 6307   4.670   1.583   1.012
 2117TIP3    H1 6308   4.662   1.592   1.107
 2117TIP3    H2 6309   4.605   1.516   0.989
 2118TIP3   OH2 6310   2.668   6.665   2.500
 2118TIP3    H1 6311   2.588   6.616   2.483
 2118TIP3    H2 6312   2.693   6.700   2.414
 2119TIP3   OH2 6313   8.211   2.712   5.380
 2119TIP3    H1 6314   8.117   2.722   5.398
 2119TIP3    H2 6315   8.218   2.723   5.285
 2120TIP3   OH2 6316   1.660   7.725   1.485
 2120TIP3    H1 6317   1.726   7.677   1.535
 2120TIP3    H2 6318   1.622   7.786   1.547
 2121TIP3   OH2 6319   2.550   5.160   2.400
 2121TIP3    H1 6320   2.542   5.110   2.319
 2121TIP3    H2 6321   2.645   5.164   2.416
 2122TIP3   OH2 6322   7.506   5.426   0.284
 2122TIP3    H1 6323   7.568   5.354   0.288
 2122TIP3    H2 6324   7.454   5.418   0.365
 2123TIP3   OH2 6325   2.683   5.606   6.792
 2123TIP3    H1 6326   2.662   5.531   6.736
 2123TIP3    H2 6327   2.733   5.665   6.736
 2124TIP3   OH2 6328   2.399   4.007   1.149
 2124TIP3    H1 6329   2.335   4.050   1.205
 2124TIP3    H2 6330   2.483   4.026   1.191
 2125TIP3   OH2 6331   6.175   1.124   2.994
 2125TIP3    H1 6332   6.112   1.177   3.043
 2125TIP3    H2 6333   6.220   1.186   2.937
 2126TIP3   OH2 6334   3.150   0.585   2.923
 2126TIP3    H1 6335   3.128   0.555   2.835
 2126TIP3    H2 6336   3.172   0.505   2.971
 2127TIP3   OH2 6337   1.578   3.082   3.424
 2127TIP3    H1 6338   1.657   3.117   3.383
 2127TIP3    H2 6339   1.607   3.051   3.510
 2128TIP3   OH2 6340   3.720   0.506   3.684
 2128TIP3    H1 6341   3.810   0.511   3.716
 2128TIP3    H2 6342   3.729   0.478   3.592
 2129TIP3   OH2 6343   6.980   3.492   3.127
 2129TIP3    H1 6344   7.040   3.464   3.058
 2129TIP3    H2 6345   6.897   3.508   3.081
 2130TIP3   OH2 6346   3.753   4.015   6.051
 2130TIP3    H1 6347   3.782   4.025   6.142
 2130TIP3    H2 6348   3.834   4.020   6.000
 2131TIP3   OH2 6349   1.630   4.325   5.917
 2131TIP3    H1 6350   1.618   4.308   6.010
 2131TIP3    H2 6351   1.584   4.253   5.873
 2132TIP3   OH2 6352   1.339   4.175   1.736
 2132TIP3    H1 6353   1.245   4.188   1.742
 2132TIP3    H2 6354   1.359   4.183   1.643
 2133TIP3   OH2 6355   6.766   2.692   0.057
 2133TIP3    H1 6356   6.730   2.707  -0.031
 2133TIP3    H2 6357   6.716   2.618   0.091
 2134TIP3   OH2 6358   0.469   4.253   5.189
 2134TIP3    H1 6359   0.454   4.344   5.216
 2134TIP3    H2 6360   0.565   4.247   5.183
 2135TIP3   OH2 6361   3.090   0.995   6.337
 2135TIP3    H1 6362   3.154   0.947   6.388
 2135TIP3    H2 6363   3.132   1.010   6.253
 2136TIP3   OH2 6364   4.455   0.074   5.288
 2136TIP3    H1 6365   4.480   0.084   5.380
 2136TIP3    H2 6366   4.373   0.122   5.280
 2137TIP3   OH2 6367   6.948   5.368   1.801
 2137TIP3    H1 6368   6.964   5.449   1.850
 2137TIP3    H2 6369   6.908   5.397   1.719
 2138TIP3   OH2 6370   1.949   0.628   3.186
 2138TIP3    H1 6371   1.952   0.623   3.281
 2138TIP3    H2 6372   1.872   0.577   3.161
 2139TIP3   OH2 6373   5.032   4.394   1.734
 2139TIP3    H1 6374   4.992   4.409   1.820
 2139TIP3    H2 6375   5.092   4.321   1.747
 2140TIP3   OH2 6376   3.077   4.532   3.737
 2140TIP3    H1 6377   3.080   4.514   3.643
 2140TIP3    H2 6378   3.011   4.601   3.746
 2141TIP3   OH2 6379   4.930   7.808   4.338
 2141TIP3    H1 6380   4.995   7.839   4.401
 2141TIP3    H2 6381   4.946   7.860   4.259
 2142TIP3   OH2 6382   2.248   1.281   6.770
 2142TIP3    H1 6383   2.292   1.296   6.687
 2142TIP3    H2 6384   2.307   1.222   6.818
 2143TIP3   OH2 6385   3.447   3.246   0.180
 2143TIP3    H1 6386   3.488   3.330   0.159
 2143TIP3    H2 6387   3.486   3.184   0.118
 2144TIP3   OH2 6388   8.204   3.298   0.853
 2144TIP3    H1 6389   8.128   3.273   0.906
 2144TIP3    H2 6390   8.234   3.216   0.815
 2145TIP3   OH2 6391   7.038   2.621   0.559
 2145TIP3    H1 6392   7.048   2.716   0.552
 2145TIP3    H2 6393   6.980   2.597   0.486
 2146TIP3   OH2 6394   2.369   1.459   4.653
 2146TIP3    H1 6395   2.350   1.549   4.626
 2146TIP3    H2 6396   2.459   1.463   4.686
 2147TIP3   OH2 6397   6.168   5.680   5.818
 2147TIP3    H1 6398   6.163   5.711   5.908
 2147TIP3    H2 6399   6.155   5.759   5.765
 2148TIP3   OH2 6400   1.507   7.082   4.424
 2148TIP3    H1 6401   1.597   7.112   4.437
 2148TIP3    H2 6402   1.514   6.988   4.408
 2149TIP3   OH2 6403   3.290   4.157   3.289
 2149TIP3    H1 6404   3.333   4.072   3.279
 2149TIP3    H2 6405   3.198   4.137   3.304
 2150TIP3   OH2 6406   3.570   4.216   6.137
 2150TIP3    H1 6407   3.624   4.150   6.095
 2150TIP3    H2 6408   3.609   4.228   6.223
 2151TIP3   OH2 6409   3.739   4.880   0.369
 2151TIP3    H1 6410   3.789   4.811   0.326
 2151TIP3    H2 6411   3.668   4.900   0.308
 2152TIP3   OH2 6412   3.000   2.425   6.234
 2152TIP3    H1 6413   3.013   2.386   6.320
 2152TIP3    H2 6414   3.080   2.406   6.186
 2153TIP3   OH2 6415   6.042   6.202   2.963
 2153TIP3    H1 6416   6.123   6.245   2.993
 2153TIP3    H2 6417   6.063   6.109   2.965
 2154TIP3   OH2 6418   6.767   2.924   2.055
 2154TIP3    H1 6419   6.825   2.856   2.091
 2154TIP3    H2 6420   6.794   3.004   2.099
 2155TIP3   OH2 6421   0.933   2.198   0.697
 2155TIP3    H1 6422   0.844   2.164   0.711
 2155TIP3    H2 6423   0.985   2.121   0.673
 2156TIP3   OH2 6424   2.060   7.198   4.285
 2156TIP3    H1 6425   2.043   7.284   4.246
 2156TIP3    H2 6426   2.018   7.136   4.225
 2157TIP3   OH2 6427   6.587   4.661   1.943
 2157TIP3    H1 6428   6.505   4.688   1.903
 2157TIP3    H2 6429   6.563   4.590   2.003
 2158TIP3   OH2 6430   1.651   1.345   4.522
 2158TIP3    H1 6431   1.731   1.363   4.572
 2158TIP3    H2 6432   1.672   1.267   4.470
 2159TIP3   OH2 6433   6.776   7.634   2.207
 2159TIP3    H1 6434   6.789   7.548   2.247
 2159TIP3    H2 6435   6.829   7.633   2.128
 2160TIP3   OH2 6436   2.395   3.011   0.366
 2160TIP3    H1 6437   2.418   2.991   0.457
 2160TIP3    H2 6438   2.303   2.985   0.359
 2161TIP3   OH2 6439   6.970  -0.027   4.839
 2161TIP3    H1 6440   6.939   0.046   4.894
 2161TIP3    H2 6441   7.060  -0.005   4.819
 2162TIP3   OH2 6442   2.020   1.012   3.847
 2162TIP3    H1 6443   2.100   1.006   3.899
 2162TIP3    H2 6444   1.951   1.028   3.911
 2163TIP3   OH2 6445   2.632   5.067   1.400
 2163TIP3    H1 6446   2.629   5.040   1.492
 2163TIP3    H2 6447   2.543   5.095   1.380
 2164TIP3   OH2 6448   7.068   7.566   4.322
 2164TIP3    H1 6449   7.032   7.494   4.374
 2164TIP3    H2 6450   7.110   7.524   4.247
 2165TIP3   OH2 6451   1.397   4.525   2.890
 2165TIP3    H1 6452   1.344   4.487   2.959
 2165TIP3    H2 6453   1.352   4.503   2.809
 2166TIP3   OH2 6454   6.167   1.917   6.369
 2166TIP3    H1 6455   6.125   1.888   6.288
 2166TIP3    H2 6456   6.258   1.889   6.361
 2167TIP3   OH2 6457   0.945   3.425   1.150
 2167TIP3    H1 6458   0.910   3.336   1.144
 2167TIP3    H2 6459   0.951   3.455   1.059
 2168TIP3   OH2 6460   1.310   0.199   4.261
 2168TIP3    H1 6461   1.269   0.174   4.344
 2168TIP3    H2 6462   1.272   0.140   4.197
 2169TIP3   OH2 6463   2.730   1.025   5.610
 2169TIP3    H1 6464   2.764   1.059   5.527
 2169TIP3    H2 6465   2.749   1.095   5.673
 2170TIP3   OH2 6466   2.863   0.072   2.782
 2170TIP3    H1 6467   2.791   0.110   2.730
 2170TIP3    H2 6468   2.819   0.028   2.855
 2171TIP3   OH2 6469   0.413   3.492   4.873
 2171TIP3    H1 6470   0.410   3.572   4.821
 2171TIP3    H2 6471   0.334   3.444   4.848
 2172TIP3   OH2 6472   2.713   0.498   6.672
 2172TIP3    H1 6473   2.770   0.553   6.726
 2172TIP3    H2 6474   2.713   0.540   6.587
 2173TIP3   OH2 6475   6.487   4.440   2.531
 2173TIP3    H1 6476   6.415   4.484   2.485
 2173TIP3    H2 6477   6.562   4.449   2.471
 2174TIP3   OH2 6478   6.360   1.126   1.425
 2174TIP3    H1 6479   6.358   1.212   1.381
 2174TIP3    H2 6480   6.371   1.147   1.518
 2175TIP3   OH2 6481   7.322   4.948   1.114
 2175TIP3    H1 6482   7.360   4.943   1.026
 2175TIP3    H2 6483   7.319   4.858   1.144
 2176TIP3   OH2 6484   7.362   6.290   6.477
 2176TIP3    H1 6485   7.330   6.204   6.504
 2176TIP3    H2 6486   7.343   6.347   6.551
 2177TIP3   OH2 6487   3.113   6.978   1.247
 2177TIP3    H1 6488   3.155   6.911   1.193
 2177TIP3    H2 6489   3.024   6.945   1.260
 2178TIP3   OH2 6490   1.955   3.688   4.832
 2178TIP3    H1 6491   1.974   3.594   4.822
 2178TIP3    H2 6492   1.994   3.711   4.916
 2179TIP3   OH2 6493   7.909   5.831   3.792
 2179TIP3    H1 6494   7.869   5.793   3.713
 2179TIP3    H2 6495   7.839   5.884   3.830
 2180TIP3   OH2 6496   0.189   2.319   5.164
 2180TIP3    H1 6497   0.260   2.377   5.191
 2180TIP3    H2 6498   0.216   2.232   5.196
 2181TIP3   OH2 6499   0.842   4.833   6.176
 2181TIP3    H1 6500   0.902   4.774   6.130
 2181TIP3    H2 6501   0.843   4.802   6.267
 2182TIP3   OH2 6502   1.058   3.748   0.456
 2182TIP3    H1 6503   1.085   3.840   0.459
 2182TIP3    H2 6504   0.977   3.749   0.404
 2183TIP3   OH2 6505   0.521   4.952   3.255
 2183TIP3    H1 6506   0.446   4.984   3.207
 2183TIP3    H2 6507   0.485   4.923   3.339
 2184TIP3   OH2 6508   2.615   6.991   6.592
 2184TIP3    H1 6509   2.616   6.915   6.534
 2184TIP3    H2 6510   2.707   7.016   6.599
 2185TIP3   OH2 6511   5.831   0.934   5.067
 2185TIP3    H1 6512   5.861   0.869   5.003
 2185TIP3    H2 6513   5.866   1.017   5.036
 2186TIP3   OH2 6514   0.821   1.138   4.148
 2186TIP3    H1 6515   0.861   1.055   4.124
 2186TIP3    H2 6516   0.892   1.189   4.187
 2187TIP3   OH2 6517   4.464   1.351   6.524
 2187TIP3    H1 6518   4.530   1.386   6.583
 2187TIP3    H2 6519   4.441   1.424   6.467
 2188TIP3   OH2 6520   2.652   6.606   5.133
 2188TIP3    H1 6521   2.645   6.669   5.205
 2188TIP3    H2 6522   2.744   6.610   5.106
 2189TIP3   OH2 6523   3.999   6.218   1.103
 2189TIP3    H1 6524   4.022   6.147   1.043
 2189TIP3    H2 6525   3.918   6.255   1.067
 2190TIP3   OH2 6526   7.755   5.321   2.646
 2190TIP3    H1 6527   7.836   5.269   2.650
 2190TIP3    H2 6528   7.746   5.344   2.553
 2191TIP3   OH2 6529   5.332   7.067   6.643
 2191TIP3    H1 6530   5.391   7.104   6.709
 2191TIP3    H2 6531   5.313   7.141   6.584
 2192TIP3   OH2 6532   1.362   2.342   3.571
 2192TIP3    H1 6533   1.333   2.356   3.661
 2192TIP3    H2 6534   1.446   2.387   3.566
 2193TIP3   OH2 6535   6.288   1.765   4.101
 2193TIP3    H1 6536   6.201   1.729   4.086
 2193TIP3    H2 6537   6.336   1.696   4.146
 2194TIP3   OH2 6538   2.637   7.057   5.382
 2194TIP3    H1 6539   2.586   7.126   5.339
 2194TIP3    H2 6540   2.726   7.093   5.386
 2195TIP3   OH2 6541   2.550   7.582   4.398
 2195TIP3    H1 6542   2.469   7.596   4.447
 2195TIP3    H2 6543   2.575   7.492   4.420
 2196TIP3   OH2 6544   3.006   0.531   3.893
 2196TIP3    H1 6545   3.100   0.512   3.898
 2196TIP3    H2 6546   2.988   0.538   3.799
 2197TIP3   OH2 6547   7.384   5.952   4.957
 2197TIP3    H1 6548   7.384   6.040   4.994
 2197TIP3    H2 6549   7.477   5.930   4.946
 2198TIP3   OH2 6550   2.598   2.983   2.631
 2198TIP3    H1 6551   2.684   2.944   2.644
 2198TIP3    H2 6552   2.598   3.011   2.540
 2199TIP3   OH2 6553   7.342   6.420   5.955
 2199TIP3    H1 6554   7.276   6.352   5.965
 2199TIP3    H2 6555   7.374   6.435   6.044
 2200TIP3   OH2 6556   6.583   1.156   6.594
 2200TIP3    H1 6557   6.513   1.213   6.562
 2200TIP3    H2 6558   6.571   1.074   6.546
 2201TIP3   OH2 6559   5.701   2.666   5.982
 2201TIP3    H1 6560   5.656   2.672   6.066
 2201TIP3    H2 6561   5.794   2.675   6.004
 2202TIP3   OH2 6562   3.363   2.646   3.190
 2202TIP3    H1 6563   3.406   2.568   3.224
 2202TIP3    H2 6564   3.349   2.627   3.097
 2203TIP3   OH2 6565   1.027   2.960   1.637
 2203TIP3    H1 6566   0.941   2.974   1.599
 2203TIP3    H2 6567   1.089   2.995   1.572
 2204TIP3   OH2 6568   0.850   4.515   1.615
 2204TIP3    H1 6569   0.892   4.436   1.579
 2204TIP3    H2 6570   0.920   4.560   1.663
 2205TIP3   OH2 6571   1.627   2.938   3.986
 2205TIP3    H1 6572   1.650   2.854   4.026
 2205TIP3    H2 6573   1.708   2.988   3.986
 2206TIP3   OH2 6574   6.097   4.646   6.704
 2206TIP3    H1 6575   6.143   4.729   6.691
 2206TIP3    H2 6576   6.151   4.598   6.766
 2207TIP3   OH2 6577   7.809   1.892   2.446
 2207TIP3    H1 6578   7.810   1.797   2.450
 2207TIP3    H2 6579   7.774   1.919   2.530
 2208TIP3   OH2 6580   0.364   2.319   2.151
 2208TIP3    H1 6581   0.332   2.376   2.081
 2208TIP3    H2 6582   0.431   2.371   2.195
 2209TIP3   OH2 6583   5.398   3.028   0.137
 2209TIP3    H1 6584   5.318   2.984   0.109
 2209TIP3    H2 6585   5.369   3.094   0.200
 2210TIP3   OH2 6586   1.326   2.395   4.893
 2210TIP3    H1 6587   1.242   2.366   4.857
 2210TIP3    H2 6588   1.352   2.467   4.836
 2211TIP3   OH2 6589   2.766   6.083   6.588
 2211TIP3    H1 6590   2.831   6.053   6.652
 2211TIP3    H2 6591   2.788   6.035   6.508
 2212TIP3   OH2 6592   0.756   4.869   1.481
 2212TIP3    H1 6593   0.847   4.846   1.496
 2212TIP3    H2 6594   0.757   4.964   1.468
 2213TIP3   OH2 6595   5.452   0.273   3.576
 2213TIP3    H1 6596   5.405   0.327   3.512
 2213TIP3    H2 6597   5.384   0.237   3.632
 2214TIP3   OH2 6598   3.148   1.799   3.156
 2214TIP3    H1 6599   3.204   1.801   3.233
 2214TIP3    H2 6600   3.060   1.814   3.190
 2215TIP3   OH2 6601   0.557   3.640   0.248
 2215TIP3    H1 6602   0.600   3.575   0.304
 2215TIP3    H2 6603   0.481   3.668   0.300
 2216TIP3   OH2 6604   5.560   7.424   5.292
 2216TIP3    H1 6605   5.599   7.489   5.234
 2216TIP3    H2 6606   5.553   7.469   5.377
 2217TIP3   OH2 6607   5.296   2.285   4.102
 2217TIP3    H1 6608   5.368   2.318   4.155
 2217TIP3    H2 6609   5.217   2.316   4.145
 2218TIP3   OH2 6610   0.141   3.947   5.478
 2218TIP3    H1 6611   0.184   4.031   5.473
 2218TIP3    H2 6612   0.196   3.888   5.427
 2219TIP3   OH2 6613   7.261   0.594   1.642
 2219TIP3    H1 6614   7.232   0.640   1.563
 2219TIP3    H2 6615   7.318   0.657   1.687
 2220TIP3   OH2 6616   5.899   2.070   6.348
 2220TIP3    H1 6617   5.808   2.042   6.342
 2220TIP3    H2 6618   5.944   2.020   6.280
 2221TIP3   OH2 6619   0.335   6.336   0.779
 2221TIP3    H1 6620   0.371   6.329   0.867
 2221TIP3    H2 6621   0.292   6.251   0.764
 2222TIP3   OH2 6622   6.399   3.095   4.877
 2222TIP3    H1 6623   6.412   3.057   4.790
 2222TIP3    H2 6624   6.465   3.053   4.931
 2223TIP3   OH2 6625   7.424   3.719   1.434
 2223TIP3    H1 6626   7.367   3.795   1.449
 2223TIP3    H2 6627   7.477   3.711   1.513
 2224TIP3   OH2 6628   0.551   5.660   3.022
 2224TIP3    H1 6629   0.571   5.698   2.936
 2224TIP3    H2 6630   0.505   5.578   3.001
 2225TIP3   OH2 6631   1.215   1.207   2.654
 2225TIP3    H1 6632   1.303   1.245   2.654
 2225TIP3    H2 6633   1.161   1.272   2.609
 2226TIP3   OH2 6634   6.058   2.509   1.091
 2226TIP3    H1 6635   6.033   2.555   1.171
 2226TIP3    H2 6636   5.990   2.443   1.078
 2227TIP3   OH2 6637   5.823   2.046   1.001
 2227TIP3    H1 6638   5.742   2.010   1.038
 2227TIP3    H2 6639   5.853   1.979   0.940
 2228TIP3   OH2 6640   4.369   0.433   3.372
 2228TIP3    H1 6641   4.461   0.444   3.395
 2228TIP3    H2 6642   4.354   0.494   3.300
 2229TIP3   OH2 6643   6.600   1.457   5.557
 2229TIP3    H1 6644   6.649   1.410   5.490
 2229TIP3    H2 6645   6.662   1.523   5.590
 2230TIP3   OH2 6646   0.886   0.739   1.570
 2230TIP3    H1 6647   0.870   0.679   1.643
 2230TIP3    H2 6648   0.964   0.789   1.597
 2231TIP3   OH2 6649   5.474   5.078   5.999
 2231TIP3    H1 6650   5.474   5.131   5.919
 2231TIP3    H2 6651   5.453   4.990   5.969
 2232TIP3   OH2 6652   1.701   0.726   4.691
 2232TIP3    H1 6653   1.664   0.683   4.768
 2232TIP3    H2 6654   1.737   0.655   4.639
 2233TIP3   OH2 6655   0.412   0.217   4.199
 2233TIP3    H1 6656   0.404   0.132   4.156
 2233TIP3    H2 6657   0.353   0.212   4.274
 2234TIP3   OH2 6658   1.053   1.217   2.946
 2234TIP3    H1 6659   1.026   1.126   2.940
 2234TIP3    H2 6660   1.054   1.237   3.039
 2235TIP3   OH2 6661   6.385   7.346   5.950
 2235TIP3    H1 6662   6.479   7.360   5.935
 2235TIP3    H2 6663   6.360   7.282   5.884
 2236TIP3   OH2 6664   1.659   5.400   0.560
 2236TIP3    H1 6665   1.733   5.447   0.598
 2236TIP3    H2 6666   1.620   5.461   0.498
 2237TIP3   OH2 6667   8.222   0.967   3.042
 2237TIP3    H1 6668   8.131   0.941   3.029
 2237TIP3    H2 6669   8.217   1.050   3.088
 2238TIP3   OH2 6670   6.892   7.234   2.581
 2238TIP3    H1 6671   6.829   7.242   2.653
 2238TIP3    H2 6672   6.975   7.261   2.619
 2239TIP3   OH2 6673   3.582   5.805   1.589
 2239TIP3    H1 6674   3.627   5.889   1.581
 2239TIP3    H2 6675   3.557   5.783   1.499
 2240TIP3   OH2 6676   2.929   6.459   3.870
 2240TIP3    H1 6677   2.996   6.398   3.839
 2240TIP3    H2 6678   2.898   6.502   3.790
 2241TIP3   OH2 6679   0.581   0.423   0.804
 2241TIP3    H1 6680   0.660   0.388   0.845
 2241TIP3    H2 6681   0.574   0.513   0.837
 2242TIP3   OH2 6682   6.444   2.757   4.942
 2242TIP3    H1 6683   6.414   2.832   4.993
 2242TIP3    H2 6684   6.505   2.712   5.000
 2243TIP3   OH2 6685   7.062   6.378   2.388
 2243TIP3    H1 6686   7.128   6.337   2.444
 2243TIP3    H2 6687   7.095   6.466   2.373
 2244TIP3   OH2 6688   1.959   2.503   2.929
 2244TIP3    H1 6689   2.019   2.540   2.864
 2244TIP3    H2 6690   1.912   2.434   2.883
 2245TIP3   OH2 6691   5.580   2.719   4.025
 2245TIP3    H1 6692   5.572   2.661   3.949
 2245TIP3    H2 6693   5.498   2.769   4.025
 2246TIP3   OH2 6694   3.568   4.143   0.197
 2246TIP3    H1 6695   3.619   4.085   0.253
 2246TIP3    H2 6696   3.518   4.085   0.141
 2247TIP3   OH2 6697   4.308   0.719   0.612
 2247TIP3    H1 6698   4.332   0.808   0.588
 2247TIP3    H2 6699   4.391   0.676   0.632
 2248TIP3   OH2 6700   1.909   4.349   2.481
 2248TIP3    H1 6701   1.883   4.391   2.564
 2248TIP3    H2 6702   1.939   4.262   2.507
 2249TIP3   OH2 6703   3.638   6.672   6.711
 2249TIP3    H1 6704   3.685   6.715   6.640
 2249TIP3    H2 6705   3.604   6.592   6.673
 2250TIP3   OH2 6706   2.538   4.863   6.689
 2250TIP3    H1 6707   2.552   4.773   6.717
 2250TIP3    H2 6708   2.497   4.906   6.764
 2251TIP3   OH2 6709   7.769   4.318   3.823
 2251TIP3    H1 6710   7.855   4.308   3.781
 2251TIP3    H2 6711   7.787   4.364   3.905
 2252TIP3   OH2 6712   7.110   4.235   2.615
 2252TIP3    H1 6713   7.133   4.232   2.708
 2252TIP3    H2 6714   7.128   4.146   2.583
 2253TIP3   OH2 6715   6.736   0.118   6.193
 2253TIP3    H1 6716   6.757   0.159   6.109
 2253TIP3    H2 6717   6.655   0.160   6.221
 2254TIP3   OH2 6718   5.134   3.279   5.827
 2254TIP3    H1 6719   5.052   3.250   5.868
 2254TIP3    H2 6720   5.107   3.342   5.760
 2255TIP3   OH2 6721   5.913   2.458   2.132
 2255TIP3    H1 6722   6.003   2.483   2.111
 2255TIP3    H2 6723   5.913   2.363   2.129
 2256TIP3   OH2 6724   7.860   0.545   5.959
 2256TIP3    H1 6725   7.939   0.502   5.927
 2256TIP3    H2 6726   7.827   0.487   6.028
 2257TIP3   OH2 6727   0.631   1.891   0.216
 2257TIP3    H1 6728   0.619   1.820   0.280
 2257TIP3    H2 6729   0.560   1.877   0.152
 2258TIP3   OH2 6730   8.245   5.506   1.502
 2258TIP3    H1 6731   8.321   5.509   1.559
 2258TIP3    H2 6732   8.174   5.544   1.554
 2259TIP3   OH2 6733   5.521   4.442   6.136
 2259TIP3    H1 6734   5.583   4.370   6.145
 2259TIP3    H2 6735   5.576   4.520   6.125
 2260TIP3   OH2 6736   6.931   2.098   0.098
 2260TIP3    H1 6737   6.924   2.185   0.057
 2260TIP3    H2 6738   6.908   2.114   0.190
 2261TIP3   OH2 6739   1.431   1.932   3.163
 2261TIP3    H1 6740   1.424   1.859   3.100
 2261TIP3    H2 6741   1.380   2.002   3.123
 2262TIP3   OH2 6742   5.397   7.662   1.183
 2262TIP3    H1 6743   5.341   7.702   1.250
 2262TIP3    H2 6744   5.406   7.571   1.210
 2263TIP3   OH2 6745   5.533   5.258   5.792
 2263TIP3    H1 6746   5.600   5.190   5.788
 2263TIP3    H2 6747   5.561   5.324   5.729
 2264TIP3   OH2 6748   4.859   6.558   2.815
 2264TIP3    H1 6749   4.845   6.647   2.783
 2264TIP3    H2 6750   4.772   6.526   2.837
 2265TIP3   OH2 6751   6.818   6.341   3.118
 2265TIP3    H1 6752   6.866   6.408   3.167
 2265TIP3    H2 6753   6.875   6.319   3.045
 2266TIP3   OH2 6754   8.221   4.269   3.121
 2266TIP3    H1 6755   8.162   4.312   3.059
 2266TIP3    H2 6756   8.164   4.243   3.194
 2267TIP3   OH2 6757   5.524   3.453   6.227
 2267TIP3    H1 6758   5.512   3.539   6.187
 2267TIP3    H2 6759   5.446   3.441   6.281
 2268TIP3   OH2 6760   1.410   0.249   3.318
 2268TIP3    H1 6761   1.344   0.309   3.353
 2268TIP3    H2 6762   1.493   0.287   3.347
 2269TIP3   OH2 6763   3.806   0.150   2.769
 2269TIP3    H1 6764   3.751   0.133   2.692
 2269TIP3    H2 6765   3.829   0.063   2.802
 2270TIP3   OH2 6766   7.948   3.328   4.043
 2270TIP3    H1 6767   7.968   3.316   3.950
 2270TIP3    H2 6768   7.895   3.251   4.066
 2271TIP3   OH2 6769   1.276   1.466   3.181
 2271TIP3    H1 6770   1.329   1.481   3.260
 2271TIP3    H2 6771   1.210   1.535   3.183
 2272TIP3   OH2 6772   4.879   7.520   2.317
 2272TIP3    H1 6773   4.819   7.587   2.285
 2272TIP3    H2 6774   4.863   7.516   2.411
 2273TIP3   OH2 6775   2.444   7.539   2.306
 2273TIP3    H1 6776   2.396   7.465   2.268
 2273TIP3    H2 6777   2.434   7.609   2.241
 2274TIP3   OH2 6778   3.215   5.916   5.661
 2274TIP3    H1 6779   3.174   5.944   5.743
 2274TIP3    H2 6780   3.265   5.837   5.685
 2275TIP3   OH2 6781   3.876   0.627   3.117
 2275TIP3    H1 6782   3.872   0.699   3.055
 2275TIP3    H2 6783   3.786   0.616   3.148
 2276TIP3   OH2 6784   2.930   1.825   1.008
 2276TIP3    H1 6785   2.945   1.905   0.959
 2276TIP3    H2 6786   3.016   1.798   1.039
 2277TIP3   OH2 6787   0.358   6.296   1.809
 2277TIP3    H1 6788   0.434   6.288   1.866
 2277TIP3    H2 6789   0.378   6.368   1.751
 2278TIP3   OH2 6790   3.254   2.044   1.378
 2278TIP3    H1 6791   3.254   1.968   1.436
 2278TIP3    H2 6792   3.170   2.039   1.332
 2279TIP3   OH2 6793   0.410   5.398   5.665
 2279TIP3    H1 6794   0.368   5.325   5.619
 2279TIP3    H2 6795   0.342   5.430   5.725
 2280TIP3   OH2 6796   1.802   4.336   5.333
 2280TIP3    H1 6797   1.880   4.387   5.314
 2280TIP3    H2 6798   1.774   4.367   5.419
 2281TIP3   OH2 6799   5.507   6.953   5.662
 2281TIP3    H1 6800   5.570   6.931   5.594
 2281TIP3    H2 6801   5.434   6.994   5.615
 2282TIP3   OH2 6802   3.346   5.868   2.992
 2282TIP3    H1 6803   3.396   5.809   3.048
 2282TIP3    H2 6804   3.356   5.833   2.904
 2283TIP3   OH2 6805   7.294   2.462   0.599
 2283TIP3    H1 6806   7.351   2.501   0.665
 2283TIP3    H2 6807   7.214   2.515   0.602
 2284TIP3   OH2 6808   8.056   6.979   4.424
 2284TIP3    H1 6809   8.073   6.977   4.518
 2284TIP3    H2 6810   8.076   6.890   4.394
 2285TIP3   OH2 6811   6.880   3.707   4.060
 2285TIP3    H1 6812   6.797   3.676   4.097
 2285TIP3    H2 6813   6.917   3.631   4.016
 2286TIP3   OH2 6814   3.893   2.305   4.708
 2286TIP3    H1 6815   3.977   2.328   4.748
 2286TIP3    H2 6816   3.849   2.389   4.695
 2287TIP3   OH2 6817   1.338   1.244   5.656
 2287TIP3    H1 6818   1.304   1.273   5.741
 2287TIP3    H2 6819   1.432   1.238   5.669
 2288TIP3   OH2 6820   6.132   1.485   1.868
 2288TIP3    H1 6821   6.196   1.556   1.874
 2288TIP3    H2 6822   6.048   1.526   1.892
 2289TIP3   OH2 6823   0.891   1.909   6.124
 2289TIP3    H1 6824   0.872   2.002   6.133
 2289TIP3    H2 6825   0.818   1.874   6.074
 2290TIP3   OH2 6826   1.507   6.252   0.798
 2290TIP3    H1 6827   1.476   6.174   0.751
 2290TIP3    H2 6828   1.429   6.291   0.835
 2291TIP3   OH2 6829   5.977   3.279   1.865
 2291TIP3    H1 6830   5.899   3.223   1.873
 2291TIP3    H2 6831   6.050   3.217   1.860
 2292TIP3   OH2 6832   7.696   0.432   1.104
 2292TIP3    H1 6833   7.647   0.384   1.037
 2292TIP3    H2 6834   7.668   0.393   1.187
 2293TIP3   OH2 6835   1.220   6.869   2.910
 2293TIP3    H1 6836   1.156   6.933   2.879
 2293TIP3    H2 6837   1.182   6.784   2.889
 2294TIP3   OH2 6838   4.235   0.124   2.575
 2294TIP3    H1 6839   4.178   0.192   2.611
 2294TIP3    H2 6840   4.254   0.155   2.486
 2295TIP3   OH2 6841   8.052   7.676   4.957
 2295TIP3    H1 6842   7.998   7.605   4.993
 2295TIP3    H2 6843   8.088   7.640   4.876
 2296TIP3   OH2 6844   5.515   1.460   6.463
 2296TIP3    H1 6845   5.542   1.522   6.531
 2296TIP3    H2 6846   5.565   1.381   6.480
 2297TIP3   OH2 6847   2.917   6.770   4.243
 2297TIP3    H1 6848   2.920   6.684   4.203
 2297TIP3    H2 6849   2.825   6.783   4.266
 2298TIP3   OH2 6850   3.959   2.608   5.832
 2298TIP3    H1 6851   3.944   2.692   5.790
 2298TIP3    H2 6852   4.044   2.580   5.798
 2299TIP3   OH2 6853   7.206   7.216   0.451
 2299TIP3    H1 6854   7.158   7.228   0.368
 2299TIP3    H2 6855   7.169   7.282   0.509
 2300TIP3   OH2 6856   7.629   6.393   1.796
 2300TIP3    H1 6857   7.552   6.440   1.828
 2300TIP3    H2 6858   7.681   6.376   1.874
 2301TIP3   OH2 6859   6.489   7.828   0.367
 2301TIP3    H1 6860   6.544   7.904   0.382
 2301TIP3    H2 6861   6.548   7.761   0.334
 2302TIP3   OH2 6862   3.621   1.901   3.335
 2302TIP3    H1 6863   3.651   1.852   3.259
 2302TIP3    H2 6864   3.527   1.882   3.341
 2303TIP3   OH2 6865   3.296   5.249   4.089
 2303TIP3    H1 6866   3.270   5.186   4.156
 2303TIP3    H2 6867   3.285   5.335   4.130
 2304TIP3   OH2 6868   4.598   2.216   3.980
 2304TIP3    H1 6869   4.544   2.245   4.054
 2304TIP3    H2 6870   4.630   2.296   3.940
 2305TIP3   OH2 6871   0.901   3.711   5.694
 2305TIP3    H1 6872   0.981   3.661   5.685
 2305TIP3    H2 6873   0.894   3.729   5.788
 2306TIP3   OH2 6874   3.654   4.605   6.155
 2306TIP3    H1 6875   3.606   4.580   6.076
 2306TIP3    H2 6876   3.710   4.677   6.127
 2307TIP3   OH2 6877   6.887   1.992   2.538
 2307TIP3    H1 6878   6.794   1.981   2.517
 2307TIP3    H2 6879   6.887   2.042   2.620
 2308TIP3   OH2 6880   7.633   2.905   4.085
 2308TIP3    H1 6881   7.654   2.815   4.111
 2308TIP3    H2 6882   7.542   2.917   4.114
 2309TIP3   OH2 6883   1.375   2.126   5.045
 2309TIP3    H1 6884   1.280   2.129   5.052
 2309TIP3    H2 6885   1.392   2.139   4.952
 2310TIP3   OH2 6886   2.602   3.674   0.367
 2310TIP3    H1 6887   2.645   3.746   0.320
 2310TIP3    H2 6888   2.526   3.652   0.314
 2311TIP3   OH2 6889   7.257   1.430   5.976
 2311TIP3    H1 6890   7.335   1.379   5.997
 2311TIP3    H2 6891   7.268   1.455   5.884
 2312TIP3   OH2 6892   2.141   4.382   1.077
 2312TIP3    H1 6893   2.188   4.371   1.160
 2312TIP3    H2 6894   2.094   4.300   1.065
 2313TIP3   OH2 6895   6.979   3.241   6.151
 2313TIP3    H1 6896   6.884   3.233   6.151
 2313TIP3    H2 6897   6.999   3.299   6.225
 2314TIP3   OH2 6898   4.325   7.823   0.094
 2314TIP3    H1 6899   4.393   7.860   0.150
 2314TIP3    H2 6900   4.354   7.733   0.077
 2315TIP3   OH2 6901   4.838   7.824   1.743
 2315TIP3    H1 6902   4.819   7.743   1.790
 2315TIP3    H2 6903   4.812   7.894   1.803
 2316TIP3   OH2 6904   7.545   5.657   6.561
 2316TIP3    H1 6905   7.535   5.581   6.504
 2316TIP3    H2 6906   7.467   5.658   6.616
 2317TIP3   OH2 6907   2.960   5.790   5.979
 2317TIP3    H1 6908   2.980   5.883   5.967
 2317TIP3    H2 6909   2.865   5.785   5.968
 2318TIP3   OH2 6910   1.184   0.010   6.071
 2318TIP3    H1 6911   1.130   0.084   6.098
 2318TIP3    H2 6912   1.130  -0.038   6.008
 2319TIP3   OH2 6913   7.085   0.948   1.726
 2319TIP3    H1 6914   6.996   0.983   1.717
 2319TIP3    H2 6915   7.080   0.888   1.800
 2320TIP3   OH2 6916   1.889   2.650   6.694
 2320TIP3    H1 6917   1.845   2.618   6.772
 2320TIP3    H2 6918   1.966   2.696   6.726
 2321TIP3   OH2 6919   5.949   6.755   1.047
 2321TIP3    H1 6920   5.885   6.824   1.034
 2321TIP3    H2 6921   5.947   6.737   1.141
 2322TIP3   OH2 6922   5.813   2.301   1.574
 2322TIP3    H1 6923   5.886   2.318   1.634
 2322TIP3    H2 6924   5.736   2.334   1.620
 2323TIP3   OH2 6925   3.810   6.201   3.953
 2323TIP3    H1 6926   3.831   6.287   3.915
 2323TIP3    H2 6927   3.730   6.216   4.003
 2324TIP3   OH2 6928   5.875   1.007   0.645
 2324TIP3    H1 6929   5.782   1.028   0.653
 2324TIP3    H2 6930   5.912   1.080   0.596
 2325TIP3   OH2 6931   2.514   3.056   4.852
 2325TIP3    H1 6932   2.536   3.094   4.937
 2325TIP3    H2 6933   2.496   3.132   4.796
 2326TIP3   OH2 6934   3.820   3.514   6.811
 2326TIP3    H1 6935   3.735   3.495   6.771
 2326TIP3    H2 6936   3.884   3.493   6.742
 2327TIP3   OH2 6937   2.486   0.532   2.422
 2327TIP3    H1 6938   2.517   0.454   2.376
 2327TIP3    H2 6939   2.400   0.507   2.456
 2328TIP3   OH2 6940   0.885   2.593   6.015
 2328TIP3    H1 6941   0.826   2.523   6.042
 2328TIP3    H2 6942   0.949   2.549   5.957
 2329TIP3   OH2 6943   7.596   7.727   0.749
 2329TIP3    H1 6944   7.623   7.653   0.804
 2329TIP3    H2 6945   7.646   7.717   0.668
 2330TIP3   OH2 6946   0.278   2.119   3.232
 2330TIP3    H1 6947   0.292   2.168   3.151
 2330TIP3    H2 6948   0.320   2.034   3.217
 2331TIP3   OH2 6949   6.868   3.804   2.620
 2331TIP3    H1 6950   6.894   3.881   2.569
 2331TIP3    H2 6951   6.914   3.731   2.579
 2332TIP3   OH2 6952   2.575   5.595   0.649
 2332TIP3    H1 6953   2.603   5.510   0.684
 2332TIP3    H2 6954   2.493   5.613   0.694
 2333TIP3   OH2 6955   6.507   4.763   5.153
 2333TIP3    H1 6956   6.452   4.838   5.177
 2333TIP3    H2 6957   6.591   4.780   5.194
 2334TIP3   OH2 6958   4.341   1.567   2.155
 2334TIP3    H1 6959   4.421   1.618   2.168
 2334TIP3    H2 6960   4.366   1.499   2.092
 2335TIP3   OH2 6961   0.439   4.110   2.418
 2335TIP3    H1 6962   0.450   4.032   2.473
 2335TIP3    H2 6963   0.381   4.082   2.347
 2336TIP3   OH2 6964   5.229   0.246   5.144
 2336TIP3    H1 6965   5.309   0.295   5.124
 2336TIP3    H2 6966   5.161   0.290   5.094
 2337TIP3   OH2 6967   1.961   5.741   1.634
 2337TIP3    H1 6968   1.881   5.702   1.670
 2337TIP3    H2 6969   1.981   5.813   1.694
 2338TIP3   OH2 6970   3.551   7.021   6.218
 2338TIP3    H1 6971   3.485   7.017   6.149
 2338TIP3    H2 6972   3.625   7.066   6.177
 2339TIP3   OH2 6973   4.960   6.598   1.926
 2339TIP3    H1 6974   4.927   6.688   1.925
 2339TIP3    H2 6975   4.882   6.543   1.922
 2340TIP3   OH2 6976   6.244   4.885   6.106
 2340TIP3    H1 6977   6.196   4.802   6.099
 2340TIP3    H2 6978   6.215   4.936   6.030
 2341TIP3   OH2 6979   0.906   0.402   2.194
 2341TIP3    H1 6980   0.926   0.459   2.268
 2341TIP3    H2 6981   0.850   0.333   2.230
 2342TIP3   OH2 6982   3.059   2.762   6.330
 2342TIP3    H1 6983   2.996   2.824   6.367
 2342TIP3    H2 6984   3.031   2.749   6.240
 2343TIP3   OH2 6985   6.155   6.220   3.532
 2343TIP3    H1 6986   6.101   6.209   3.454
 2343TIP3    H2 6987   6.234   6.263   3.501
 2344TIP3   OH2 6988   7.541   5.238   3.878
 2344TIP3    H1 6989   7.591   5.158   3.897
 2344TIP3    H2 6990   7.604   5.309   3.892
 2345TIP3   OH2 6991   4.382   3.158   5.005
 2345TIP3    H1 6992   4.324   3.115   5.068
 2345TIP3    H2 6993   4.341   3.242   4.987
 2346TIP3   OH2 6994   7.277   6.017   4.323
 2346TIP3    H1 6995   7.267   5.971   4.240
 2346TIP3    H2 6996   7.366   6.052   4.320
 2347TIP3   OH2 6997   0.831   0.439   0.969
 2347TIP3    H1 6998   0.900   0.373   0.956
 2347TIP3    H2 6999   0.875   0.508   1.018
 2348TIP3   OH2 7000   1.555   0.458   2.569
 2348TIP3    H1 7001   1.510   0.424   2.647
 2348TIP3    H2 7002   1.492   0.517   2.529
 2349TIP3   OH2 7003   2.469   4.465   1.772
 2349TIP3    H1 7004   2.398   4.487   1.832
 2349TIP3    H2 7005   2.475   4.370   1.775
 2350TIP3   OH2 7006   6.219   1.734   3.151
 2350TIP3    H1 7007   6.250   1.682   3.226
 2350TIP3    H2 7008   6.218   1.824   3.184
 2351TIP3   OH2 7009   2.445   6.647   2.252
 2351TIP3    H1 7010   2.470   6.557   2.235
 2351TIP3    H2 7011   2.521   6.699   2.225
 2352TIP3   OH2 7012   3.428   0.667   4.504
 2352TIP3    H1 7013   3.402   0.747   4.550
 2352TIP3    H2 7014   3.462   0.610   4.574
 2353TIP3   OH2 7015   5.114   3.658   2.932
 2353TIP3    H1 7016   5.034   3.614   2.959
 2353TIP3    H2 7017   5.085   3.741   2.895
 2354TIP3   OH2 7018   6.545   3.301   4.547
 2354TIP3    H1 7019   6.454   3.272   4.556
 2354TIP3    H2 7020   6.565   3.344   4.630
 2355TIP3   OH2 7021   3.561   7.359   1.029
 2355TIP3    H1 7022   3.501   7.424   1.065
 2355TIP3    H2 7023   3.635   7.359   1.090
 2356TIP3   OH2 7024   6.682   4.341   3.973
 2356TIP3    H1 7025   6.775   4.361   3.979
 2356TIP3    H2 7026   6.676   4.247   3.993
 2357TIP3   OH2 7027   4.632   7.479   5.130
 2357TIP3    H1 7028   4.656   7.479   5.037
 2357TIP3    H2 7029   4.663   7.564   5.162
 2358TIP3   OH2 7030   1.289   2.019   2.569
 2358TIP3    H1 7031   1.208   1.979   2.538
 2358TIP3    H2 7032   1.295   2.102   2.522
 2359TIP3   OH2 7033   2.862   3.928   1.522
 2359TIP3    H1 7034   2.802   3.885   1.460
 2359TIP3    H2 7035   2.928   3.861   1.541
 2360TIP3   OH2 7036   0.198   5.501   4.385
 2360TIP3    H1 7037   0.169   5.412   4.363
 2360TIP3    H2 7038   0.122   5.556   4.364
 2361TIP3   OH2 7039   3.803   4.879   0.662
 2361TIP3    H1 7040   3.845   4.963   0.677
 2361TIP3    H2 7041   3.729   4.898   0.604
 2362TIP3   OH2 7042   1.627   3.898   4.524
 2362TIP3    H1 7043   1.570   3.920   4.449
 2362TIP3    H2 7044   1.588   3.944   4.598
 2363TIP3   OH2 7045   4.000   0.324   6.439
 2363TIP3    H1 7046   3.948   0.277   6.374
 2363TIP3    H2 7047   4.023   0.406   6.396
 2364TIP3   OH2 7048   2.098   5.208   6.783
 2364TIP3    H1 7049   2.132   5.158   6.709
 2364TIP3    H2 7050   2.004   5.214   6.767
 2365TIP3   OH2 7051   7.795   5.823   1.666
 2365TIP3    H1 7052   7.717   5.878   1.660
 2365TIP3    H2 7053   7.791   5.786   1.755
 2366TIP3   OH2 7054   7.061   0.399   2.229
 2366TIP3    H1 7055   7.009   0.343   2.172
 2366TIP3    H2 7056   6.999   0.435   2.292
 2367TIP3   OH2 7057   2.863   4.670   2.973
 2367TIP3    H1 7058   2.888   4.691   2.883
 2367TIP3    H2 7059   2.771   4.646   2.967
 2368TIP3   OH2 7060   2.100   3.553   0.232
 2368TIP3    H1 7061   2.076   3.617   0.300
 2368TIP3    H2 7062   2.066   3.590   0.151
 2369TIP3   OH2 7063   0.474   3.476   6.375
 2369TIP3    H1 7064   0.402   3.537   6.386
 2369TIP3    H2 7065   0.525   3.484   6.456
 2370TIP3   OH2 7066   6.590   0.560   4.759
 2370TIP3    H1 7067   6.619   0.519   4.840
 2370TIP3    H2 7068   6.538   0.636   4.787
 2371TIP3   OH2 7069   0.212   6.262   0.478
 2371TIP3    H1 7070   0.271   6.321   0.432
 2371TIP3    H2 7071   0.158   6.223   0.408
 2372TIP3   OH2 7072   5.115   2.836   5.174
 2372TIP3    H1 7073   5.144   2.926   5.163
 2372TIP3    H2 7074   5.111   2.800   5.085
 2373TIP3   OH2 7075   5.632   0.177   4.499
 2373TIP3    H1 7076   5.658   0.090   4.530
 2373TIP3    H2 7077   5.549   0.162   4.453
 2374TIP3   OH2 7078   1.204   1.034   5.935
 2374TIP3    H1 7079   1.121   1.034   5.984
 2374TIP3    H2 7080   1.232   1.126   5.937
 2375TIP3   OH2 7081   4.525   5.412   3.791
 2375TIP3    H1 7082   4.534   5.322   3.757
 2375TIP3    H2 7083   4.594   5.419   3.858
 2376TIP3   OH2 7084   0.284   2.294   1.216
 2376TIP3    H1 7085   0.206   2.335   1.253
 2376TIP3    H2 7086   0.314   2.355   1.149
 2377TIP3   OH2 7087   4.410   3.213   0.593
 2377TIP3    H1 7088   4.423   3.254   0.679
 2377TIP3    H2 7089   4.329   3.253   0.560
 2378TIP3   OH2 7090   7.331   2.671   5.380
 2378TIP3    H1 7091   7.317   2.577   5.389
 2378TIP3    H2 7092   7.264   2.711   5.435
 2379TIP3   OH2 7093   7.657   7.570   1.405
 2379TIP3    H1 7094   7.713   7.643   1.432
 2379TIP3    H2 7095   7.680   7.555   1.313
 2380TIP3   OH2 7096   1.930   7.723   2.427
 2380TIP3    H1 7097   2.022   7.701   2.434
 2380TIP3    H2 7098   1.884   7.650   2.468
 2381TIP3   OH2 7099   5.081   2.613   0.718
 2381TIP3    H1 7100   5.165   2.601   0.674
 2381TIP3    H2 7101   5.101   2.604   0.811
 2382TIP3   OH2 7102   7.519   2.634   2.331
 2382TIP3    H1 7103   7.512   2.640   2.426
 2382TIP3    H2 7104   7.436   2.596   2.303
 2383TIP3   OH2 7105   4.940   0.315   5.965
 2383TIP3    H1 7106   5.002   0.339   6.033
 2383TIP3    H2 7107   4.902   0.398   5.937
 2384TIP3   OH2 7108   0.906   4.335   0.180
 2384TIP3    H1 7109   0.947   4.394   0.243
 2384TIP3    H2 7110   0.977   4.312   0.120
 2385TIP3   OH2 7111   6.656   2.995   1.792
 2385TIP3    H1 7112   6.626   2.921   1.739
 2385TIP3    H2 7113   6.669   2.959   1.879
 2386TIP3   OH2 7114   5.011   7.597   2.008
 2386TIP3    H1 7115   5.058   7.542   1.945
 2386TIP3    H2 7116   4.921   7.598   1.975
 2387TIP3   OH2 7117   6.562   1.461   2.929
 2387TIP3    H1 7118   6.589   1.397   2.863
 2387TIP3    H2 7119   6.635   1.463   2.991
 2388TIP3   OH2 7120   7.879   4.716   4.280
 2388TIP3    H1 7121   7.880   4.734   4.186
 2388TIP3    H2 7122   7.794   4.675   4.295
 2389TIP3   OH2 7123   1.084  -0.012   3.777
 2389TIP3    H1 7124   1.022   0.059   3.758
 2389TIP3    H2 7125   1.096  -0.056   3.693
 2390TIP3   OH2 7126   7.890   1.040   0.971
 2390TIP3    H1 7127   7.822   1.053   1.036
 2390TIP3    H2 7128   7.858   0.969   0.916
 2391TIP3   OH2 7129   4.419   5.144   5.518
 2391TIP3    H1 7130   4.416   5.081   5.590
 2391TIP3    H2 7131   4.365   5.217   5.547
 2392TIP3   OH2 7132   5.226   0.549   4.814
 2392TIP3    H1 7133   5.220   0.457   4.789
 2392TIP3    H2 7134   5.309   0.557   4.860
 2393TIP3   OH2 7135   5.147   4.376   0.352
 2393TIP3    H1 7136   5.120   4.457   0.309
 2393TIP3    H2 7137   5.186   4.405   0.435
 2394TIP3   OH2 7138   3.450   6.012   0.643
 2394TIP3    H1 7139   3.395   6.055   0.578
 2394TIP3    H2 7140   3.391   5.955   0.691
 2395TIP3   OH2 7141   3.183   3.417   0.215
 2395TIP3    H1 7142   3.166   3.409   0.309
 2395TIP3    H2 7143   3.255   3.356   0.199
 2396TIP3   OH2 7144   6.165   4.167   0.094
 2396TIP3    H1 7145   6.248   4.203   0.063
 2396TIP3    H2 7146   6.150   4.210   0.178
 2397TIP3   OH2 7147   1.806   0.835   5.903
 2397TIP3    H1 7148   1.710   0.834   5.900
 2397TIP3    H2 7149   1.832   0.770   5.837
 2398TIP3   OH2 7150   4.744   4.949   5.566
 2398TIP3    H1 7151   4.725   4.912   5.652
 2398TIP3    H2 7152   4.781   5.035   5.585
 2399TIP3   OH2 7153   5.283   1.900   3.433
 2399TIP3    H1 7154   5.366   1.872   3.395
 2399TIP3    H2 7155   5.217   1.881   3.366
 2400TIP3   OH2 7156   2.507   6.071   1.765
 2400TIP3    H1 7157   2.568   6.113   1.826
 2400TIP3    H2 7158   2.559   6.005   1.721
 2401TIP3   OH2 7159   5.836   6.202   6.290
 2401TIP3    H1 7160   5.896   6.243   6.353
 2401TIP3    H2 7161   5.890   6.139   6.243
 2402TIP3   OH2 7162   6.012   6.046   3.975
 2402TIP3    H1 7163   6.068   6.062   4.051
 2402TIP3    H2 7164   6.065   6.073   3.900
 2403TIP3   OH2 7165   1.033   5.160   2.684
 2403TIP3    H1 7166   1.083   5.234   2.718
 2403TIP3    H2 7167   1.058   5.087   2.740
 2404TIP3   OH2 7168   3.048   3.653   6.705
 2404TIP3    H1 7169   3.092   3.669   6.788
 2404TIP3    H2 7170   3.096   3.581   6.666
 2405TIP3   OH2 7171   0.868   3.175   1.068
 2405TIP3    H1 7172   0.815   3.171   0.989
 2405TIP3    H2 7173   0.926   3.099   1.061
 2406TIP3   OH2 7174   7.143   4.968   0.093
 2406TIP3    H1 7175   7.146   4.872   0.101
 2406TIP3    H2 7176   7.103   4.984   0.007
 2407TIP3   OH2 7177   7.929   2.690   5.526
 2407TIP3    H1 7178   7.837   2.707   5.546
 2407TIP3    H2 7179   7.959   2.631   5.595
 2408TIP3   OH2 7180   2.856   3.083   6.794
 2408TIP3    H1 7181   2.905   3.051   6.719
 2408TIP3    H2 7182   2.768   3.099   6.761
 2409TIP3   OH2 7183   6.938   0.716   5.723
 2409TIP3    H1 7184   6.879   0.686   5.792
 2409TIP3    H2 7185   7.026   0.693   5.754
 2410TIP3   OH2 7186   0.289   4.404   3.531
 2410TIP3    H1 7187   0.297   4.340   3.601
 2410TIP3    H2 7188   0.228   4.364   3.468
 2411TIP3   OH2 7189   0.922   3.845  -0.038
 2411TIP3    H1 7190   1.013   3.842  -0.008
 2411TIP3    H2 7191   0.887   3.925   0.001
 2412TIP3   OH2 7192   0.950   1.136   4.925
 2412TIP3    H1 7193   0.927   1.044   4.908
 2412TIP3    H2 7194   0.912   1.184   4.852
 2413TIP3   OH2 7195   6.061   5.507   6.073
 2413TIP3    H1 7196   5.974   5.472   6.092
 2413TIP3    H2 7197   6.066   5.510   5.978
 2414TIP3   OH2 7198   7.818   6.057   2.157
 2414TIP3    H1 7199   7.740   6.056   2.213
 2414TIP3    H2 7200   7.799   6.124   2.092
 2415TIP3   OH2 7201   4.619   6.427   5.624
 2415TIP3    H1 7202   4.567   6.365   5.573
 2415TIP3    H2 7203   4.561   6.456   5.694
 2416TIP3   OH2 7204   3.442   0.344   5.283
 2416TIP3    H1 7205   3.509   0.398   5.243
 2416TIP3    H2 7206   3.485   0.260   5.299
 2417TIP3   OH2 7207   3.345   0.332   3.574
 2417TIP3    H1 7208   3.284   0.330   3.500
 2417TIP3    H2 7209   3.421   0.380   3.541
 2418TIP3   OH2 7210   7.222   6.522   1.013
 2418TIP3    H1 7211   7.169   6.491   1.087
 2418TIP3    H2 7212   7.264   6.602   1.045
 2419TIP3   OH2 7213   2.592   5.077   4.422
 2419TIP3    H1 7214   2.574   5.103   4.512
 2419TIP3    H2 7215   2.602   4.982   4.425
 2420TIP3   OH2 7216   7.803   1.893   5.870
 2420TIP3    H1 7217   7.725   1.947   5.882
 2420TIP3    H2 7218   7.816   1.889   5.776
 2421TIP3   OH2 7219   4.891   0.035   5.905
 2421TIP3    H1 7220   4.926   0.118   5.937
 2421TIP3    H2 7221   4.810   0.059   5.861
 2422TIP3   OH2 7222   1.933   6.191   6.053
 2422TIP3    H1 7223   1.892   6.105   6.055
 2422TIP3    H2 7224   1.866   6.250   6.086
 2423TIP3   OH2 7225   4.165   6.597   0.359
 2423TIP3    H1 7226   4.167   6.504   0.382
 2423TIP3    H2 7227   4.182   6.599   0.265
 2424TIP3   OH2 7228   5.304   0.263   2.769
 2424TIP3    H1 7229   5.346   0.214   2.839
 2424TIP3    H2 7230   5.243   0.322   2.814
 2425TIP3   OH2 7231   2.833   2.847   2.174
 2425TIP3    H1 7232   2.899   2.786   2.207
 2425TIP3    H2 7233   2.750   2.812   2.205
 2426TIP3   OH2 7234   4.405   1.504   1.140
 2426TIP3    H1 7235   4.430   1.452   1.217
 2426TIP3    H2 7236   4.377   1.588   1.176
 2427TIP3   OH2 7237   6.171   3.103   3.954
 2427TIP3    H1 7238   6.093   3.160   3.955
 2427TIP3    H2 7239   6.233   3.150   3.899
 2428TIP3   OH2 7240   1.260   4.760   4.763
 2428TIP3    H1 7241   1.195   4.690   4.768
 2428TIP3    H2 7242   1.216   4.837   4.799
 2429TIP3   OH2 7243   5.432   1.581   5.522
 2429TIP3    H1 7244   5.406   1.489   5.525
 2429TIP3    H2 7245   5.404   1.617   5.606
 2430TIP3   OH2 7246   2.492   2.833   1.651
 2430TIP3    H1 7247   2.495   2.787   1.734
 2430TIP3    H2 7248   2.570   2.803   1.604
 2431TIP3   OH2 7249   2.332   7.572   4.611
 2431TIP3    H1 7250   2.336   7.618   4.694
 2431TIP3    H2 7251   2.366   7.484   4.631
 2432TIP3   OH2 7252   7.438   2.351   6.390
 2432TIP3    H1 7253   7.477   2.275   6.347
 2432TIP3    H2 7254   7.401   2.403   6.319
 2433TIP3   OH2 7255   3.083   0.305   5.670
 2433TIP3    H1 7256   3.040   0.337   5.590
 2433TIP3    H2 7257   3.017   0.250   5.712
 2434TIP3   OH2 7258   5.309   5.502   2.280
 2434TIP3    H1 7259   5.294   5.408   2.289
 2434TIP3    H2 7260   5.354   5.511   2.196
 2435TIP3   OH2 7261   7.719   1.620   3.503
 2435TIP3    H1 7262   7.717   1.619   3.407
 2435TIP3    H2 7263   7.777   1.692   3.525
 2436TIP3   OH2 7264   2.335   4.448   2.382
 2436TIP3    H1 7265   2.308   4.387   2.450
 2436TIP3    H2 7266   2.254   4.484   2.347
 2437TIP3   OH2 7267   3.641   5.488   1.636
 2437TIP3    H1 7268   3.661   5.580   1.616
 2437TIP3    H2 7269   3.727   5.448   1.653
 2438TIP3   OH2 7270   0.644   5.047   4.579
 2438TIP3    H1 7271   0.591   5.089   4.510
 2438TIP3    H2 7272   0.734   5.062   4.551
 2439TIP3   OH2 7273   4.742   3.104   2.075
 2439TIP3    H1 7274   4.770   3.091   1.984
 2439TIP3    H2 7275   4.766   3.022   2.119
 2440TIP3   OH2 7276   0.734   1.601   6.700
 2440TIP3    H1 7277   0.684   1.683   6.705
 2440TIP3    H2 7278   0.773   1.593   6.787
 2441TIP3   OH2 7279   8.013   3.109   0.581
 2441TIP3    H1 7280   7.933   3.056   0.587
 2441TIP3    H2 7281   7.991   3.179   0.520
 2442TIP3   OH2 7282   0.593   7.483   5.564
 2442TIP3    H1 7283   0.502   7.511   5.573
 2442TIP3    H2 7284   0.645   7.554   5.601
 2443TIP3   OH2 7285   7.812   6.452   0.297
 2443TIP3    H1 7286   7.717   6.455   0.303
 2443TIP3    H2 7287   7.831   6.371   0.249
 2444TIP3   OH2 7288   2.132   5.364   6.396
 2444TIP3    H1 7289   2.065   5.396   6.457
 2444TIP3    H2 7290   2.181   5.443   6.372
 2445TIP3   OH2 7291   4.867   5.120   0.433
 2445TIP3    H1 7292   4.946   5.114   0.379
 2445TIP3    H2 7293   4.796   5.095   0.374
 2446TIP3   OH2 7294   1.257   4.550   1.088
 2446TIP3    H1 7295   1.224   4.502   1.012
 2446TIP3    H2 7296   1.241   4.491   1.162
 2447TIP3   OH2 7297   4.261   4.905   6.254
 2447TIP3    H1 7298   4.255   4.999   6.240
 2447TIP3    H2 7299   4.355   4.887   6.261
 2448TIP3   OH2 7300   5.044   6.354   0.461
 2448TIP3    H1 7301   5.124   6.329   0.414
 2448TIP3    H2 7302   5.074   6.380   0.548
 2449TIP3   OH2 7303   0.750   6.971   6.514
 2449TIP3    H1 7304   0.744   6.905   6.583
 2449TIP3    H2 7305   0.828   6.945   6.464
 2450TIP3   OH2 7306   6.867   1.506   2.316
 2450TIP3    H1 7307   6.863   1.599   2.336
 2450TIP3    H2 7308   6.960   1.482   2.327
 2451TIP3   OH2 7309   0.286   0.267   5.661
 2451TIP3    H1 7310   0.255   0.346   5.705
 2451TIP3    H2 7311   0.249   0.195   5.713
 2452TIP3   OH2 7312   8.167   4.269   5.422
 2452TIP3    H1 7313   8.203   4.192   5.377
 2452TIP3    H2 7314   8.094   4.235   5.473
 2453TIP3   OH2 7315   5.635   4.069   4.679
 2453TIP3    H1 7316   5.640   4.014   4.757
 2453TIP3    H2 7317   5.726   4.088   4.658
 2454TIP3   OH2 7318   2.125   7.334   5.877
 2454TIP3    H1 7319   2.061   7.351   5.808
 2454TIP3    H2 7320   2.203   7.381   5.850
 2455TIP3   OH2 7321   0.970   0.963   1.812
 2455TIP3    H1 7322   1.014   1.041   1.780
 2455TIP3    H2 7323   1.029   0.927   1.878
 2456TIP3   OH2 7324   2.882   1.982   5.525
 2456TIP3    H1 7325   2.792   1.976   5.494
 2456TIP3    H2 7326   2.905   1.893   5.550
 2457TIP3   OH2 7327   4.471   1.145   2.796
 2457TIP3    H1 7328   4.382   1.111   2.786
 2457TIP3    H2 7329   4.462   1.240   2.791
 2458TIP3   OH2 7330   7.696   0.823   2.481
 2458TIP3    H1 7331   7.677   0.811   2.574
 2458TIP3    H2 7332   7.743   0.744   2.455
 2459TIP3   OH2 7333   4.321   4.646   0.530
 2459TIP3    H1 7334   4.376   4.700   0.474
 2459TIP3    H2 7335   4.268   4.708   0.580
 2460TIP3   OH2 7336   0.017   2.962   3.711
 2460TIP3    H1 7337   0.021   2.900   3.638
 2460TIP3    H2 7338   0.109   2.973   3.737
 2461TIP3   OH2 7339   7.132   0.629   3.691
 2461TIP3    H1 7340   7.075   0.698   3.726
 2461TIP3    H2 7341   7.077   0.551   3.690
 2462TIP3   OH2 7342   4.637   1.382   2.783
 2462TIP3    H1 7343   4.613   1.470   2.811
 2462TIP3    H2 7344   4.696   1.351   2.852
 2463TIP3   OH2 7345   6.973   2.113   4.776
 2463TIP3    H1 7346   7.008   2.059   4.847
 2463TIP3    H2 7347   7.039   2.181   4.765
 2464TIP3   OH2 7348   4.592   7.249   3.478
 2464TIP3    H1 7349   4.576   7.224   3.569
 2464TIP3    H2 7350   4.613   7.167   3.433
 2465TIP3   OH2 7351   4.696   1.477   0.737
 2465TIP3    H1 7352   4.743   1.393   0.734
 2465TIP3    H2 7353   4.604   1.453   0.726
 2466TIP3   OH2 7354   3.863   0.800   5.526
 2466TIP3    H1 7355   3.958   0.787   5.519
 2466TIP3    H2 7356   3.849   0.890   5.498
 2467TIP3   OH2 7357   3.816   0.059   4.905
 2467TIP3    H1 7358   3.776   0.044   4.819
 2467TIP3    H2 7359   3.760   0.012   4.966
 2468TIP3   OH2 7360   3.413   5.015   0.734
 2468TIP3    H1 7361   3.440   5.097   0.776
 2468TIP3    H2 7362   3.447   4.946   0.790
 2469TIP3   OH2 7363   7.847   5.583   5.870
 2469TIP3    H1 7364   7.780   5.652   5.865
 2469TIP3    H2 7365   7.916   5.613   5.812
 2470TIP3   OH2 7366   2.345   1.505   1.771
 2470TIP3    H1 7367   2.262   1.490   1.724
 2470TIP3    H2 7368   2.342   1.443   1.844
 2471TIP3   OH2 7369   6.502   7.734   0.777
 2471TIP3    H1 7370   6.474   7.675   0.707
 2471TIP3    H2 7371   6.428   7.794   0.789
 2472TIP3   OH2 7372   5.596   1.868   1.901
 2472TIP3    H1 7373   5.518   1.922   1.889
 2472TIP3    H2 7374   5.665   1.915   1.854
 2473TIP3   OH2 7375   7.476   5.531   2.433
 2473TIP3    H1 7376   7.518   5.589   2.370
 2473TIP3    H2 7377   7.547   5.504   2.492
 2474TIP3   OH2 7378   0.724   3.007   0.223
 2474TIP3    H1 7379   0.783   3.066   0.175
 2474TIP3    H2 7380   0.737   3.031   0.315
 2475TIP3   OH2 7381   4.158   1.731   6.583
 2475TIP3    H1 7382   4.215   1.775   6.646
 2475TIP3    H2 7383   4.104   1.800   6.546
 2476TIP3   OH2 7384   3.468   6.626   3.477
 2476TIP3    H1 7385   3.520   6.651   3.554
 2476TIP3    H2 7386   3.526   6.571   3.425
 2477TIP3   OH2 7387   4.312   5.082   0.899
 2477TIP3    H1 7388   4.406   5.077   0.886
 2477TIP3    H2 7389   4.275   5.016   0.840
 2478TIP3   OH2 7390   8.084   0.846   1.110
 2478TIP3    H1 7391   8.021   0.891   1.166
 2478TIP3    H2 7392   8.074   0.754   1.131
 2479TIP3   OH2 7393   3.210   7.580   6.158
 2479TIP3    H1 7394   3.157   7.571   6.237
 2479TIP3    H2 7395   3.167   7.651   6.109
 2480TIP3   OH2 7396   8.318   0.265   2.913
 2480TIP3    H1 7397   8.341   0.323   2.985
 2480TIP3    H2 7398   8.226   0.242   2.929
 2481TIP3   OH2 7399   1.708   5.421   6.243
 2481TIP3    H1 7400   1.770   5.491   6.221
 2481TIP3    H2 7401   1.735   5.392   6.330
 2482TIP3   OH2 7402   3.031   7.238   4.988
 2482TIP3    H1 7403   2.962   7.202   5.045
 2482TIP3    H2 7404   2.985   7.264   4.908
 2483TIP3   OH2 7405   6.152   6.130   2.482
 2483TIP3    H1 7406   6.067   6.174   2.491
 2483TIP3    H2 7407   6.165   6.122   2.387
 2484TIP3   OH2 7408   3.064   5.445   4.382
 2484TIP3    H1 7409   2.982   5.484   4.411
 2484TIP3    H2 7410   3.046   5.351   4.378
 2485TIP3   OH2 7411   0.370   7.522   0.696
 2485TIP3    H1 7412   0.346   7.459   0.628
 2485TIP3    H2 7413   0.465   7.519   0.698
 2486TIP3   OH2 7414   6.799   3.594   1.218
 2486TIP3    H1 7415   6.863   3.620   1.284
 2486TIP3    H2 7416   6.756   3.517   1.254
 2487TIP3   OH2 7417   6.757   1.599   5.694
 2487TIP3    H1 7418   6.774   1.692   5.682
 2487TIP3    H2 7419   6.831   1.568   5.747
 2488TIP3   OH2 7420   5.362   3.113   6.659
 2488TIP3    H1 7421   5.389   3.121   6.568
 2488TIP3    H2 7422   5.302   3.038   6.660
 2489TIP3   OH2 7423   5.137   0.843   1.966
 2489TIP3    H1 7424   5.143   0.801   2.052
 2489TIP3    H2 7425   5.047   0.829   1.938
 2490TIP3   OH2 7426   5.316   2.074   0.902
 2490TIP3    H1 7427   5.353   2.159   0.928
 2490TIP3    H2 7428   5.391   2.024   0.871
 2491TIP3   OH2 7429   3.787   7.416   2.834
 2491TIP3    H1 7430   3.781   7.335   2.885
 2491TIP3    H2 7431   3.814   7.482   2.897
 2492TIP3   OH2 7432   1.867   0.269   0.680
 2492TIP3    H1 7433   1.944   0.288   0.626
 2492TIP3    H2 7434   1.888   0.185   0.722
 2493TIP3   OH2 7435   3.353   7.766   3.571
 2493TIP3    H1 7436   3.296   7.825   3.620
 2493TIP3    H2 7437   3.383   7.702   3.636
 2494TIP3   OH2 7438   3.135   5.057   0.767
 2494TIP3    H1 7439   3.226   5.055   0.738
 2494TIP3    H2 7440   3.101   4.970   0.747
 2495TIP3   OH2 7441   4.054   7.062   3.038
 2495TIP3    H1 7442   4.027   6.997   3.102
 2495TIP3    H2 7443   4.091   7.011   2.966
 2496TIP3   OH2 7444   1.571   4.418   1.340
 2496TIP3    H1 7445   1.655   4.434   1.297
 2496TIP3    H2 7446   1.532   4.505   1.350
 2497TIP3   OH2 7447   3.160   4.208   4.693
 2497TIP3    H1 7448   3.218   4.138   4.724
 2497TIP3    H2 7449   3.150   4.265   4.769
 2498TIP3   OH2 7450   3.639   4.206   2.633
 2498TIP3    H1 7451   3.650   4.153   2.712
 2498TIP3    H2 7452   3.544   4.206   2.618
 2499TIP3   OH2 7453   1.153   6.365   2.293
 2499TIP3    H1 7454   1.232   6.344   2.342
 2499TIP3    H2 7455   1.099   6.286   2.301
 2500TIP3   OH2 7456   3.335   2.720   4.139
 2500TIP3    H1 7457   3.380   2.785   4.194
 2500TIP3    H2 7458   3.373   2.731   4.052
 2501TIP3   OH2 7459   6.117   4.273   0.346
 2501TIP3    H1 7460   6.034   4.245   0.385
 2501TIP3    H2 7461   6.181   4.207   0.376
 2502TIP3   OH2 7462   6.205   4.062   2.026
 2502TIP3    H1 7463   6.116   4.057   2.061
 2502TIP3    H2 7464   6.207   4.143   1.975
 2503TIP3   OH2 7465   3.327   6.895   4.960
 2503TIP3    H1 7466   3.288   6.807   4.954
 2503TIP3    H2 7467   3.389   6.889   5.033
 2504TIP3   OH2 7468   6.403   6.046   5.953
 2504TIP3    H1 7469   6.331   6.097   5.991
 2504TIP3    H2 7470   6.458   6.110   5.910
 2505TIP3   OH2 7471   7.234   5.160   1.837
 2505TIP3    H1 7472   7.221   5.148   1.743
 2505TIP3    H2 7473   7.146   5.151   1.875
 2506TIP3   OH2 7474   6.834   5.790   1.024
 2506TIP3    H1 7475   6.838   5.709   0.974
 2506TIP3    H2 7476   6.896   5.777   1.096
 2507TIP3   OH2 7477   7.138   7.405   0.648
 2507TIP3    H1 7478   7.204   7.473   0.635
 2507TIP3    H2 7479   7.054   7.450   0.637
 2508TIP3   OH2 7480   7.287   3.134   4.629
 2508TIP3    H1 7481   7.216   3.189   4.595
 2508TIP3    H2 7482   7.312   3.175   4.712
 2509TIP3   OH2 7483   6.078   1.266   2.011
 2509TIP3    H1 7484   6.024   1.310   2.078
 2509TIP3    H2 7485   6.104   1.337   1.952
 2510TIP3   OH2 7486   3.196   6.029   5.927
 2510TIP3    H1 7487   3.267   6.012   5.989
 2510TIP3    H2 7488   3.119   6.043   5.982
 2511TIP3   OH2 7489   2.048   7.127   0.342
 2511TIP3    H1 7490   2.026   7.044   0.301
 2511TIP3    H2 7491   2.117   7.164   0.287
 2512TIP3   OH2 7492   8.085   2.347   4.236
 2512TIP3    H1 7493   8.165   2.398   4.252
 2512TIP3    H2 7494   8.106   2.295   4.158
 2513TIP3   OH2 7495   0.373   7.433   5.819
 2513TIP3    H1 7496   0.360   7.501   5.754
 2513TIP3    H2 7497   0.350   7.475   5.902
 2514TIP3   OH2 7498   1.627   0.362   4.540
 2514TIP3    H1 7499   1.590   0.312   4.467
 2514TIP3    H2 7500   1.691   0.302   4.580
 2515TIP3   OH2 7501   2.844   0.325   3.372
 2515TIP3    H1 7502   2.783   0.255   3.398
 2515TIP3    H2 7503   2.891   0.347   3.452
 2516TIP3   OH2 7504   4.853  -0.001   1.000
 2516TIP3    H1 7505   4.833   0.047   0.920
 2516TIP3    H2 7506   4.798  -0.079   0.996
 2517TIP3   OH2 7507   2.888   4.908   3.097
 2517TIP3    H1 7508   2.870   4.819   3.068
 2517TIP3    H2 7509   2.805   4.940   3.132
 2518TIP3   OH2 7510   7.484   3.738   0.420
 2518TIP3    H1 7511   7.452   3.824   0.448
 2518TIP3    H2 7512   7.574   3.734   0.453
 2519TIP3   OH2 7513   0.396   6.656   0.070
 2519TIP3    H1 7514   0.482   6.636   0.106
 2519TIP3    H2 7515   0.383   6.590   0.002
 2520TIP3   OH2 7516  -0.027   2.179   1.106
 2520TIP3    H1 7517   0.005   2.094   1.135
 2520TIP3    H2 7518  -0.064   2.219   1.185
 2521TIP3   OH2 7519   0.794   1.410   5.340
 2521TIP3    H1 7520   0.813   1.322   5.308
 2521TIP3    H2 7521   0.825   1.469   5.271
 2522TIP3   OH2 7522   2.953   2.452   4.156
 2522TIP3    H1 7523   2.892   2.487   4.091
 2522TIP3    H2 7524   2.988   2.374   4.115
 2523TIP3   OH2 7525   4.626   2.228   3.538
 2523TIP3    H1 7526   4.695   2.181   3.585
 2523TIP3    H2 7527   4.549   2.170   3.545
 2524TIP3   OH2 7528   4.332   0.980   0.553
 2524TIP3    H1 7529   4.370   0.968   0.466
 2524TIP3    H2 7530   4.240   1.001   0.536
 2525TIP3   OH2 7531   4.703   3.542   6.062
 2525TIP3    H1 7532   4.637   3.492   6.013
 2525TIP3    H2 7533   4.710   3.625   6.015
 2526TIP3   OH2 7534   0.457   1.769   4.949
 2526TIP3    H1 7535   0.433   1.764   5.042
 2526TIP3    H2 7536   0.531   1.829   4.946
 2527TIP3   OH2 7537   7.631   6.362   6.091
 2527TIP3    H1 7538   7.604   6.338   6.179
 2527TIP3    H2 7539   7.597   6.291   6.035
 2528TIP3   OH2 7540   7.457   1.267   6.128
 2528TIP3    H1 7541   7.473   1.319   6.207
 2528TIP3    H2 7542   7.512   1.190   6.139
 2529TIP3   OH2 7543   5.352   0.524   4.037
 2529TIP3    H1 7544   5.354   0.542   4.131
 2529TIP3    H2 7545   5.422   0.460   4.023
 2530TIP3   OH2 7546   0.556   3.720   3.529
 2530TIP3    H1 7547   0.551   3.730   3.434
 2530TIP3    H2 7548   0.465   3.726   3.559
 2531TIP3   OH2 7549   7.954   2.113   2.811
 2531TIP3    H1 7550   7.913   2.167   2.744
 2531TIP3    H2 7551   7.881   2.072   2.857
 2532TIP3   OH2 7552   1.146   0.463   3.098
 2532TIP3    H1 7553   1.127   0.491   3.188
 2532TIP3    H2 7554   1.206   0.529   3.064
 2533TIP3   OH2 7555   1.785   2.866   4.446
 2533TIP3    H1 7556   1.763   2.927   4.517
 2533TIP3    H2 7557   1.706   2.813   4.434
 2534TIP3   OH2 7558   6.684   3.970   0.329
 2534TIP3    H1 7559   6.723   3.998   0.246
 2534TIP3    H2 7560   6.742   3.901   0.361
 2535TIP3   OH2 7561   6.974   7.238   2.167
 2535TIP3    H1 7562   7.025   7.194   2.236
 2535TIP3    H2 7563   6.928   7.308   2.213
 2536TIP3   OH2 7564   3.265   7.681   1.040
 2536TIP3    H1 7565   3.218   7.600   1.021
 2536TIP3    H2 7566   3.197   7.744   1.062
 2537TIP3   OH2 7567   3.292   7.558   2.488
 2537TIP3    H1 7568   3.308   7.621   2.418
 2537TIP3    H2 7569   3.374   7.556   2.538
 2538TIP3   OH2 7570   1.260   3.113   1.984
 2538TIP3    H1 7571   1.313   3.153   1.914
 2538TIP3    H2 7572   1.322   3.058   2.032
 2539TIP3   OH2 7573   3.276   3.441   5.961
 2539TIP3    H1 7574   3.257   3.390   5.882
 2539TIP3    H2 7575   3.372   3.448   5.963
 2540TIP3   OH2 7576   5.253   6.801   6.564
 2540TIP3    H1 7577   5.302   6.883   6.570
 2540TIP3    H2 7578   5.290   6.757   6.487
 2541TIP3   OH2 7579   0.343   0.210   5.401
 2541TIP3    H1 7580   0.337   0.228   5.495
 2541TIP3    H2 7581   0.424   0.254   5.373
 2542TIP3   OH2 7582   1.536   1.724   1.429
 2542TIP3    H1 7583   1.520   1.795   1.367
 2542TIP3    H2 7584   1.459   1.723   1.486
 2543TIP3   OH2 7585   3.200   4.729   5.468
 2543TIP3    H1 7586   3.215   4.817   5.433
 2543TIP3    H2 7587   3.117   4.736   5.514
 2544TIP3   OH2 7588   4.648   3.095   0.648
 2544TIP3    H1 7589   4.622   3.023   0.705
 2544TIP3    H2 7590   4.566   3.128   0.612
 2545TIP3   OH2 7591   6.987   1.330   1.598
 2545TIP3    H1 7592   6.934   1.371   1.529
 2545TIP3    H2 7593   7.002   1.401   1.661
 2546TIP3   OH2 7594   2.758   5.432   4.141
 2546TIP3    H1 7595   2.772   5.386   4.224
 2546TIP3    H2 7596   2.666   5.417   4.121
 2547TIP3   OH2 7597   6.708   5.982   2.525
 2547TIP3    H1 7598   6.632   5.960   2.579
 2547TIP3    H2 7599   6.734   6.069   2.555
 2548TIP3   OH2 7600   1.957   3.633   1.307
 2548TIP3    H1 7601   1.972   3.610   1.399
 2548TIP3    H2 7602   2.032   3.597   1.260
 2549TIP3   OH2 7603   7.808   3.715   4.668
 2549TIP3    H1 7604   7.792   3.663   4.746
 2549TIP3    H2 7605   7.821   3.804   4.700
 2550TIP3   OH2 7606   5.846   2.531   4.054
 2550TIP3    H1 7607   5.861   2.565   4.142
 2550TIP3    H2 7608   5.752   2.515   4.050
 2551TIP3   OH2 7609   6.629   7.045   1.329
 2551TIP3    H1 7610   6.686   7.053   1.253
 2551TIP3    H2 7611   6.608   7.136   1.353
 2552TIP3   OH2 7612   0.756   2.874   2.157
 2552TIP3    H1 7613   0.797   2.830   2.232
 2552TIP3    H2 7614   0.784   2.822   2.082
 2553TIP3   OH2 7615   5.825   1.532   0.377
 2553TIP3    H1 7616   5.744   1.573   0.408
 2553TIP3    H2 7617   5.873   1.510   0.457
 2554TIP3   OH2 7618   8.245   5.710   2.857
 2554TIP3    H1 7619   8.154   5.684   2.872
 2554TIP3    H2 7620   8.240   5.802   2.832
 2555TIP3   OH2 7621   6.728   1.528   2.681
 2555TIP3    H1 7622   6.670   1.604   2.687
 2555TIP3    H2 7623   6.811   1.558   2.719
 2556TIP3   OH2 7624   8.138   4.489   4.649
 2556TIP3    H1 7625   8.169   4.545   4.578
 2556TIP3    H2 7626   8.123   4.404   4.609
 2557TIP3   OH2 7627   6.003   5.231   4.850
 2557TIP3    H1 7628   6.025   5.138   4.857
 2557TIP3    H2 7629   5.911   5.236   4.878
 2558TIP3   OH2 7630   2.546   1.875   0.852
 2558TIP3    H1 7631   2.598   1.811   0.901
 2558TIP3    H2 7632   2.465   1.828   0.831
 2559TIP3   OH2 7633   2.595   3.917   3.937
 2559TIP3    H1 7634   2.645   3.980   3.990
 2559TIP3    H2 7635   2.553   3.860   4.001
 2560TIP3   OH2 7636   6.912   3.290   5.036
 2560TIP3    H1 7637   6.874   3.375   5.015
 2560TIP3    H2 7638   6.853   3.226   4.995
 2561TIP3   OH2 7639   0.035   4.108   5.832
 2561TIP3    H1 7640   0.107   4.145   5.883
 2561TIP3    H2 7641   0.052   4.138   5.742
 2562TIP3   OH2 7642   8.184   5.382   1.251
 2562TIP3    H1 7643   8.199   5.431   1.332
 2562TIP3    H2 7644   8.090   5.387   1.237
 2563TIP3   OH2 7645   4.427   7.695   5.552
 2563TIP3    H1 7646   4.342   7.694   5.509
 2563TIP3    H2 7647   4.416   7.640   5.629
 2564TIP3   OH2 7648   7.618   1.681   3.975
 2564TIP3    H1 7649   7.666   1.710   4.052
 2564TIP3    H2 7650   7.569   1.758   3.946
 2565TIP3   OH2 7651   5.206   5.212   4.983
 2565TIP3    H1 7652   5.296   5.234   4.962
 2565TIP3    H2 7653   5.208   5.118   5.004
 2566TIP3   OH2 7654  -0.004   5.892   6.771
 2566TIP3    H1 7655  -0.006   5.801   6.742
 2566TIP3    H2 7656  -0.094   5.923   6.760
 2567TIP3   OH2 7657   3.446   0.506   6.644
 2567TIP3    H1 7658   3.502   0.580   6.666
 2567TIP3    H2 7659   3.506   0.438   6.614
 2568TIP3   OH2 7660   6.371   4.355   4.185
 2568TIP3    H1 7661   6.276   4.361   4.197
 2568TIP3    H2 7662   6.401   4.446   4.185
 2569TIP3   OH2 7663   7.243   0.955  -0.009
 2569TIP3    H1 7664   7.274   0.954   0.082
 2569TIP3    H2 7665   7.306   0.902  -0.057
 2570TIP3   OH2 7666   7.931   1.888   1.223
 2570TIP3    H1 7667   7.909   1.919   1.135
 2570TIP3    H2 7668   7.988   1.813   1.209
 2571TIP3   OH2 7669   2.085   7.690   5.016
 2571TIP3    H1 7670   2.037   7.711   5.096
 2571TIP3    H2 7671   2.031   7.727   4.945
 2572TIP3   OH2 7672   7.845   2.174   1.261
 2572TIP3    H1 7673   7.760   2.196   1.224
 2572TIP3    H2 7674   7.868   2.090   1.222
 2573TIP3   OH2 7675   7.528   2.262   2.154
 2573TIP3    H1 7676   7.578   2.193   2.197
 2573TIP3    H2 7677   7.591   2.307   2.098
 2574TIP3   OH2 7678   1.772   4.006   0.953
 2574TIP3    H1 7679   1.784   4.019   0.859
 2574TIP3    H2 7680   1.802   3.917   0.969
 2575TIP3   OH2 7681   3.482   1.851   2.794
 2575TIP3    H1 7682   3.491   1.771   2.743
 2575TIP3    H2 7683   3.506   1.826   2.883
 2576TIP3   OH2 7684   0.917   5.484   0.304
 2576TIP3    H1 7685   0.848   5.544   0.333
 2576TIP3    H2 7686   0.987   5.540   0.272
 2577TIP3   OH2 7687   3.860   6.637   0.916
 2577TIP3    H1 7688   3.884   6.711   0.860
 2577TIP3    H2 7689   3.800   6.675   0.981
 2578TIP3   OH2 7690   4.017   5.286   6.455
 2578TIP3    H1 7691   3.973   5.369   6.435
 2578TIP3    H2 7692   4.104   5.312   6.485
 2579TIP3   OH2 7693   1.875   1.864   5.698
 2579TIP3    H1 7694   1.830   1.946   5.680
 2579TIP3    H2 7695   1.956   1.870   5.647
 2580TIP3   OH2 7696   7.218   4.563   4.239
 2580TIP3    H1 7697   7.195   4.616   4.315
 2580TIP3    H2 7698   7.254   4.482   4.277
 2581TIP3   OH2 7699   0.635   5.430   3.268
 2581TIP3    H1 7700   0.689   5.485   3.211
 2581TIP3    H2 7701   0.664   5.341   3.249
 2582TIP3   OH2 7702   6.277   6.428   5.110
 2582TIP3    H1 7703   6.290   6.397   5.199
 2582TIP3    H2 7704   6.254   6.350   5.060
 2583TIP3   OH2 7705   7.612   2.585   6.183
 2583TIP3    H1 7706   7.543   2.637   6.223
 2583TIP3    H2 7707   7.573   2.551   6.102
 2584TIP3   OH2 7708   4.893   0.695   0.626
 2584TIP3    H1 7709   4.983   0.709   0.597
 2584TIP3    H2 7710   4.857   0.632   0.563
 2585TIP3   OH2 7711   5.812   3.916   0.075
 2585TIP3    H1 7712   5.827   3.823   0.094
 2585TIP3    H2 7713   5.891   3.959   0.107
 2586TIP3   OH2 7714   6.715   4.976   5.392
 2586TIP3    H1 7715   6.757   4.894   5.365
 2586TIP3    H2 7716   6.645   4.990   5.328
 2587TIP3   OH2 7717   0.092   2.885   0.314
 2587TIP3    H1 7718   0.045   2.951   0.366
 2587TIP3    H2 7719   0.054   2.802   0.342
 2588TIP3   OH2 7720   2.244   7.481   5.095
 2588TIP3    H1 7721   2.182   7.533   5.043
 2588TIP3    H2 7722   2.286   7.545   5.153
 2589TIP3   OH2 7723   6.421   6.296   3.637
 2589TIP3    H1 7724   6.462   6.328   3.556
 2589TIP3    H2 7725   6.439   6.202   3.637
 2590TIP3   OH2 7726   5.436   3.792   3.659
 2590TIP3    H1 7727   5.527   3.765   3.671
 2590TIP3    H2 7728   5.406   3.744   3.582
 2591TIP3   OH2 7729   2.333   0.536   0.219
 2591TIP3    H1 7730   2.280   0.527   0.298
 2591TIP3    H2 7731   2.273   0.515   0.147
 2592TIP3   OH2 7732   2.096   7.537   6.414
 2592TIP3    H1 7733   2.102   7.525   6.319
 2592TIP3    H2 7734   2.003   7.530   6.434
 2593TIP3   OH2 7735   1.221   2.564   4.603
 2593TIP3    H1 7736   1.157   2.608   4.548
 2593TIP3    H2 7737   1.269   2.635   4.646
 2594TIP3   OH2 7738   7.892   1.613   5.914
 2594TIP3    H1 7739   7.806   1.577   5.936
 2594TIP3    H2 7740   7.876   1.705   5.896
 2595TIP3   OH2 7741   3.744   5.392   4.069
 2595TIP3    H1 7742   3.666   5.369   4.020
 2595TIP3    H2 7743   3.816   5.351   4.020
 2596TIP3   OH2 7744   6.193   6.649   4.917
 2596TIP3    H1 7745   6.107   6.608   4.906
 2596TIP3    H2 7746   6.246   6.582   4.961
 2597TIP3   OH2 7747   6.103   2.855   1.528
 2597TIP3    H1 7748   6.039   2.906   1.577
 2597TIP3    H2 7749   6.188   2.883   1.564
 2598TIP3   OH2 7750   3.334   2.334   2.957
 2598TIP3    H1 7751   3.362   2.359   3.046
 2598TIP3    H2 7752   3.395   2.265   2.932
 2599TIP3   OH2 7753   5.655   0.564   1.008
 2599TIP3    H1 7754   5.588   0.620   1.048
 2599TIP3    H2 7755   5.611   0.523   0.933
 2600TIP3   OH2 7756   0.561   2.071   0.556
 2600TIP3    H1 7757   0.495   2.017   0.601
 2600TIP3    H2 7758   0.616   2.105   0.627
 2601TIP3   OH2 7759   6.999   1.409   6.272
 2601TIP3    H1 7760   7.095   1.403   6.277
 2601TIP3    H2 7761   6.974   1.451   6.354
 2602TIP3   OH2 7762   6.047   5.771   4.597
 2602TIP3    H1 7763   6.046   5.676   4.609
 2602TIP3    H2 7764   6.050   5.807   4.686
 2603TIP3   OH2 7765   6.026   3.756   1.549
 2603TIP3    H1 7766   6.017   3.685   1.612
 2603TIP3    H2 7767   6.080   3.821   1.594
 2604TIP3   OH2 7768   1.625   5.438   5.915
 2604TIP3    H1 7769   1.619   5.516   5.860
 2604TIP3    H2 7770   1.601   5.468   6.002
 2605TIP3   OH2 7771   0.133   2.082   0.851
 2605TIP3    H1 7772   0.123   2.074   0.946
 2605TIP3    H2 7773   0.187   2.160   0.840
 2606TIP3   OH2 7774   5.019   2.308   2.818
 2606TIP3    H1 7775   4.953   2.335   2.754
 2606TIP3    H2 7776   4.970   2.300   2.900
 2607TIP3   OH2 7777   3.099   3.553   2.198
 2607TIP3    H1 7778   3.101   3.629   2.256
 2607TIP3    H2 7779   3.158   3.490   2.240
 2608TIP3   OH2 7780   1.780   3.029   6.169
 2608TIP3    H1 7781   1.716   3.101   6.164
 2608TIP3    H2 7782   1.846   3.052   6.103
 2609TIP3   OH2 7783   7.162   2.783   3.168
 2609TIP3    H1 7784   7.203   2.868   3.151
 2609TIP3    H2 7785   7.228   2.719   3.141
 2610TIP3   OH2 7786   5.775   4.286   6.068
 2610TIP3    H1 7787   5.786   4.371   6.026
 2610TIP3    H2 7788   5.841   4.230   6.027
 2611TIP3   OH2 7789   3.087   4.019   1.672
 2611TIP3    H1 7790   3.052   3.993   1.757
 2611TIP3    H2 7791   3.016   4.002   1.610
 2612TIP3   OH2 7792   8.051   5.825  -0.017
 2612TIP3    H1 7793   8.133   5.780   0.004
 2612TIP3    H2 7794   8.014   5.847   0.069
 2613TIP3   OH2 7795   7.744   2.946   1.406
 2613TIP3    H1 7796   7.675   2.879   1.404
 2613TIP3    H2 7797   7.766   2.954   1.499
 2614TIP3   OH2 7798   1.065   3.236   1.475
 2614TIP3    H1 7799   1.105   3.316   1.443
 2614TIP3    H2 7800   1.128   3.200   1.537
 2615TIP3   OH2 7801   5.631   2.946   5.404
 2615TIP3    H1 7802   5.724   2.961   5.388
 2615TIP3    H2 7803   5.625   2.931   5.499
 2616TIP3   OH2 7804   1.100   2.771   1.362
 2616TIP3    H1 7805   1.155   2.839   1.402
 2616TIP3    H2 7806   1.029   2.819   1.320
 2617TIP3   OH2 7807   4.567   1.348   3.676
 2617TIP3    H1 7808   4.610   1.353   3.591
 2617TIP3    H2 7809   4.557   1.254   3.693
 2618TIP3   OH2 7810   7.572   4.106   1.924
 2618TIP3    H1 7811   7.589   4.029   1.870
 2618TIP3    H2 7812   7.599   4.180   1.869
 2619TIP3   OH2 7813   3.568   2.313   2.662
 2619TIP3    H1 7814   3.603   2.289   2.577
 2619TIP3    H2 7815   3.515   2.391   2.645
 2620TIP3   OH2 7816   3.212   7.660   0.697
 2620TIP3    H1 7817   3.257   7.576   0.706
 2620TIP3    H2 7818   3.119   7.638   0.699
 2621TIP3   OH2 7819   1.490   7.603   5.388
 2621TIP3    H1 7820   1.405   7.633   5.419
 2621TIP3    H2 7821   1.554   7.642   5.447
 2622TIP3   OH2 7822   0.222   0.904   4.468
 2622TIP3    H1 7823   0.249   0.995   4.472
 2622TIP3    H2 7824   0.219   0.883   4.374
 2623TIP3   OH2 7825   1.971   6.800   6.398
 2623TIP3    H1 7826   2.018   6.871   6.353
 2623TIP3    H2 7827   1.928   6.752   6.327
 2624TIP3   OH2 7828   0.996   2.535   5.380
 2624TIP3    H1 7829   0.909   2.495   5.385
 2624TIP3    H2 7830   1.037   2.496   5.303
 2625TIP3   OH2 7831   6.407   2.999   4.618
 2625TIP3    H1 7832   6.357   2.939   4.563
 2625TIP3    H2 7833   6.357   3.081   4.615
 2626TIP3   OH2 7834   6.587   7.709   4.536
 2626TIP3    H1 7835   6.629   7.728   4.620
 2626TIP3    H2 7836   6.660   7.699   4.475
 2627TIP3   OH2 7837   4.189   3.254   0.287
 2627TIP3    H1 7838   4.193   3.205   0.205
 2627TIP3    H2 7839   4.165   3.343   0.262
 2628TIP3   OH2 7840   2.079   5.257   4.709
 2628TIP3    H1 7841   2.051   5.167   4.723
 2628TIP3    H2 7842   2.118   5.257   4.621
 2629TIP3   OH2 7843   7.555   4.246   2.266
 2629TIP3    H1 7844   7.500   4.278   2.195
 2629TIP3    H2 7845   7.525   4.156   2.281
 2630TIP3   OH2 7846   1.186   0.623   6.241
 2630TIP3    H1 7847   1.148   0.587   6.161
 2630TIP3    H2 7848   1.268   0.664   6.213
 2631TIP3   OH2 7849   4.195   3.535   3.369
 2631TIP3    H1 7850   4.271   3.589   3.347
 2631TIP3    H2 7851   4.120   3.593   3.354
 2632TIP3   OH2 7852   1.402   5.590   5.367
 2632TIP3    H1 7853   1.323   5.641   5.387
 2632TIP3    H2 7854   1.399   5.516   5.428
 2633TIP3   OH2 7855   1.417   1.941   4.211
 2633TIP3    H1 7856   1.401   2.027   4.172
 2633TIP3    H2 7857   1.489   1.905   4.160
 2634TIP3   OH2 7858   0.812   5.623   6.210
 2634TIP3    H1 7859   0.725   5.610   6.172
 2634TIP3    H2 7860   0.818   5.560   6.281
 2635TIP3   OH2 7861   1.900   4.960   1.677
 2635TIP3    H1 7862   1.896   4.994   1.767
 2635TIP3    H2 7863   1.965   4.891   1.680
 2636TIP3   OH2 7864   3.090   7.424   5.181
 2636TIP3    H1 7865   3.092   7.348   5.122
 2636TIP3    H2 7866   3.112   7.388   5.267
 2637TIP3   OH2 7867   0.518   7.313   4.250
 2637TIP3    H1 7868   0.428   7.340   4.230
 2637TIP3    H2 7869   0.510   7.220   4.271
 2638TIP3   OH2 7870   0.252   5.227   4.123
 2638TIP3    H1 7871   0.193   5.297   4.096
 2638TIP3    H2 7872   0.200   5.174   4.184
 2639TIP3   OH2 7873   0.226   3.936   4.800
 2639TIP3    H1 7874   0.284   4.011   4.783
 2639TIP3    H2 7875   0.139   3.968   4.775
 2640TIP3   OH2 7876   2.607   7.243   0.972
 2640TIP3    H1 7877   2.547   7.182   1.015
 2640TIP3    H2 7878   2.641   7.298   1.042
 2641TIP3   OH2 7879   1.016   7.745   5.148
 2641TIP3    H1 7880   1.020   7.664   5.200
 2641TIP3    H2 7881   0.990   7.812   5.211
 2642TIP3   OH2 7882   3.330   6.646   0.899
 2642TIP3    H1 7883   3.325   6.553   0.921
 2642TIP3    H2 7884   3.416   6.657   0.860
 2643TIP3   OH2 7885   7.716   0.772   4.941
 2643TIP3    H1 7886   7.773   0.742   5.012
 2643TIP3    H2 7887   7.756   0.853   4.911
 2644TIP3   OH2 7888   3.265   6.772   1.143
 2644TIP3    H1 7889   3.303   6.737   1.063
 2644TIP3    H2 7890   3.334   6.761   1.209
 2645TIP3   OH2 7891   7.448   5.687   4.294
 2645TIP3    H1 7892   7.359   5.661   4.270
 2645TIP3    H2 7893   7.504   5.625   4.249
 2646TIP3   OH2 7894   2.728   3.260   1.369
 2646TIP3    H1 7895   2.661   3.317   1.406
 2646TIP3    H2 7896   2.714   3.175   1.411
 2647TIP3   OH2 7897   1.732   0.562   5.415
 2647TIP3    H1 7898   1.773   0.644   5.387
 2647TIP3    H2 7899   1.644   0.588   5.443
 2648TIP3   OH2 7900   6.594   1.086   0.140
 2648TIP3    H1 7901   6.662   1.053   0.082
 2648TIP3    H2 7902   6.532   1.131   0.083
 2649TIP3   OH2 7903   3.457   6.685   5.816
 2649TIP3    H1 7904   3.517   6.648   5.880
 2649TIP3    H2 7905   3.502   6.762   5.783
 2650TIP3   OH2 7906   4.234   2.029   5.614
 2650TIP3    H1 7907   4.232   2.120   5.584
 2650TIP3    H2 7908   4.238   1.977   5.533
 2651TIP3   OH2 7909   6.412   3.003   6.212
 2651TIP3    H1 7910   6.362   3.085   6.204
 2651TIP3    H2 7911   6.484   3.013   6.149
 2652TIP3   OH2 7912   2.141   5.121   2.753
 2652TIP3    H1 7913   2.176   5.207   2.728
 2652TIP3    H2 7914   2.113   5.133   2.844
 2653TIP3   OH2 7915   4.049   3.735   0.367
 2653TIP3    H1 7916   4.102   3.696   0.436
 2653TIP3    H2 7917   4.111   3.754   0.297
 2654TIP3   OH2 7918   3.916   3.318   2.165
 2654TIP3    H1 7919   3.989   3.375   2.137
 2654TIP3    H2 7920   3.839   3.375   2.160
 2655TIP3   OH2 7921   7.881   6.324   0.768
 2655TIP3    H1 7922   7.950   6.277   0.722
 2655TIP3    H2 7923   7.889   6.415   0.739
 2656TIP3   OH2 7924   5.920   2.190   3.386
 2656TIP3    H1 7925   5.925   2.094   3.383
 2656TIP3    H2 7926   5.977   2.215   3.459
 2657TIP3   OH2 7927   3.669   6.633   4.049
 2657TIP3    H1 7928   3.576   6.609   4.042
 2657TIP3    H2 7929   3.676   6.714   3.997
 2658TIP3   OH2 7930   5.795   6.437   3.932
 2658TIP3    H1 7931   5.861   6.389   3.982
 2658TIP3    H2 7932   5.715   6.385   3.943
 2659TIP3   OH2 7933   3.013   7.482   3.366
 2659TIP3    H1 7934   3.018   7.412   3.302
 2659TIP3    H2 7935   3.050   7.558   3.322
 2660TIP3   OH2 7936   4.170   5.229   4.992
 2660TIP3    H1 7937   4.226   5.215   5.068
 2660TIP3    H2 7938   4.117   5.149   4.986
 2661TIP3   OH2 7939   0.749   4.118   4.039
 2661TIP3    H1 7940   0.784   4.126   4.128
 2661TIP3    H2 7941   0.670   4.064   4.049
 2662TIP3   OH2 7942   0.071   6.724   0.678
 2662TIP3    H1 7943  -0.007   6.773   0.651
 2662TIP3    H2 7944   0.069   6.645   0.625
 2663TIP3   OH2 7945   0.162   4.650   5.503
 2663TIP3    H1 7946   0.132   4.567   5.467
 2663TIP3    H2 7947   0.155   4.712   5.430
 2664TIP3   OH2 7948   7.915   0.294   2.712
 2664TIP3    H1 7949   8.005   0.322   2.696
 2664TIP3    H2 7950   7.917   0.256   2.800
 2665TIP3   OH2 7951   7.667   5.895   4.889
 2665TIP3    H1 7952   7.757   5.887   4.921
 2665TIP3    H2 7953   7.671   5.962   4.820
 2666TIP3   OH2 7954   1.476   4.971   1.120
 2666TIP3    H1 7955   1.475   4.900   1.184
 2666TIP3    H2 7956   1.488   5.050   1.172
 2667TIP3   OH2 7957   7.102   7.760   4.693
 2667TIP3    H1 7958   7.163   7.824   4.656
 2667TIP3    H2 7959   7.122   7.678   4.647
 2668TIP3   OH2 7960   2.493   3.489   6.433
 2668TIP3    H1 7961   2.425   3.494   6.365
 2668TIP3    H2 7962   2.448   3.515   6.513
 2669TIP3   OH2 7963   1.651   7.305   3.929
 2669TIP3    H1 7964   1.645   7.216   3.897
 2669TIP3    H2 7965   1.681   7.296   4.020
 2670TIP3   OH2 7966   0.846   5.883   4.202
 2670TIP3    H1 7967   0.921   5.913   4.254
 2670TIP3    H2 7968   0.806   5.814   4.255
 2671TIP3   OH2 7969   0.294   4.717   2.115
 2671TIP3    H1 7970   0.356   4.761   2.057
 2671TIP3    H2 7971   0.341   4.638   2.144
 2672TIP3   OH2 7972   1.359   5.165   4.851
 2672TIP3    H1 7973   1.452   5.172   4.833
 2672TIP3    H2 7974   1.319   5.145   4.766
 2673TIP3   OH2 7975   3.027   5.790   1.251
 2673TIP3    H1 7976   3.035   5.878   1.214
 2673TIP3    H2 7977   3.111   5.748   1.231
 2674TIP3   OH2 7978   2.168   4.728   2.400
 2674TIP3    H1 7979   2.141   4.794   2.465
 2674TIP3    H2 7980   2.147   4.767   2.316
 2675TIP3   OH2 7981   6.593   3.944   6.048
 2675TIP3    H1 7982   6.630   3.893   6.120
 2675TIP3    H2 7983   6.662   4.006   6.025
 2676TIP3   OH2 7984   4.239   4.905   4.882
 2676TIP3    H1 7985   4.287   4.882   4.962
 2676TIP3    H2 7986   4.148   4.887   4.904
 2677TIP3   OH2 7987   6.782   0.615   4.242
 2677TIP3    H1 7988   6.798   0.708   4.255
 2677TIP3    H2 7989   6.846   0.589   4.175
 2678TIP3   OH2 7990   5.856   7.615   0.721
 2678TIP3    H1 7991   5.790   7.580   0.661
 2678TIP3    H2 7992   5.853   7.709   0.708
 2679TIP3   OH2 7993   6.212   5.203   2.302
 2679TIP3    H1 7994   6.168   5.206   2.387
 2679TIP3    H2 7995   6.297   5.163   2.321
 2680TIP3   OH2 7996   7.181   4.321   0.530
 2680TIP3    H1 7997   7.275   4.322   0.510
 2680TIP3    H2 7998   7.176   4.347   0.622
 2681TIP3   OH2 7999   2.649   4.619   2.648
 2681TIP3    H1 8000   2.669   4.559   2.576
 2681TIP3    H2 8001   2.652   4.706   2.609
 2682TIP3   OH2 8002   2.115   7.466   3.879
 2682TIP3    H1 8003   2.063   7.483   3.800
 2682TIP3    H2 8004   2.104   7.372   3.895
 2683TIP3   OH2 8005   4.111   6.944   4.272
 2683TIP3    H1 8006   4.112   7.027   4.319
 2683TIP3    H2 8007   4.152   6.882   4.332
 2684TIP3   OH2 8008   6.506   0.417   5.316
 2684TIP3    H1 8009   6.507   0.411   5.412
 2684TIP3    H2 8010   6.567   0.487   5.295
 2685TIP3   OH2 8011   3.532   2.391   3.253
 2685TIP3    H1 8012   3.574   2.441   3.324
 2685TIP3    H2 8013   3.569   2.303   3.261
 2686TIP3   OH2 8014   3.735   5.319   3.557
 2686TIP3    H1 8015   3.688   5.282   3.482
 2686TIP3    H2 8016   3.739   5.248   3.621
 2687TIP3   OH2 8017   3.281   3.964   2.970
 2687TIP3    H1 8018   3.245   3.958   3.059
 2687TIP3    H2 8019   3.220   3.913   2.916
 2688TIP3   OH2 8020   7.856   3.608   3.270
 2688TIP3    H1 8021   7.764   3.626   3.249
 2688TIP3    H2 8022   7.887   3.687   3.313
 2689TIP3   OH2 8023   5.126   6.635   0.558
 2689TIP3    H1 8024   5.169   6.685   0.628
 2689TIP3    H2 8025   5.192   6.632   0.488
 2690TIP3   OH2 8026   5.791   3.751   0.745
 2690TIP3    H1 8027   5.709   3.715   0.711
 2690TIP3    H2 8028   5.772   3.771   0.837
 2691TIP3   OH2 8029   0.809   6.091   3.898
 2691TIP3    H1 8030   0.740   6.030   3.926
 2691TIP3    H2 8031   0.890   6.052   3.931
 2692TIP3   OH2 8032   5.523   6.295   2.537
 2692TIP3    H1 8033   5.439   6.332   2.564
 2692TIP3    H2 8034   5.520   6.295   2.442
 2693TIP3   OH2 8035   5.733   5.071   5.773
 2693TIP3    H1 8036   5.765   4.992   5.818
 2693TIP3    H2 8037   5.670   5.038   5.709
 2694TIP3   OH2 8038   6.918   1.569   4.479
 2694TIP3    H1 8039   6.958   1.580   4.565
 2694TIP3    H2 8040   6.896   1.476   4.475
 2695TIP3   OH2 8041   2.267   7.864   3.866
 2695TIP3    H1 8042   2.190   7.807   3.864
 2695TIP3    H2 8043   2.313   7.845   3.784
 2696TIP3   OH2 8044   3.187   6.709   3.701
 2696TIP3    H1 8045   3.153   6.636   3.648
 2696TIP3    H2 8046   3.162   6.686   3.791
 2697TIP3   OH2 8047   6.065   5.135   6.336
 2697TIP3    H1 8048   6.091   5.049   6.370
 2697TIP3    H2 8049   6.127   5.153   6.266
 2698TIP3   OH2 8050   2.943   3.058   2.574
 2698TIP3    H1 8051   3.036   3.043   2.556
 2698TIP3    H2 8052   2.942   3.132   2.635
 2699TIP3   OH2 8053   2.514   1.181   5.106
 2699TIP3    H1 8054   2.424   1.149   5.100
 2699TIP3    H2 8055   2.509   1.258   5.162
 2700TIP3   OH2 8056   5.939   6.265   5.886
 2700TIP3    H1 8057   5.906   6.355   5.888
 2700TIP3    H2 8058   5.861   6.211   5.878
 2701TIP3   OH2 8059   3.708   6.101   0.517
 2701TIP3    H1 8060   3.705   6.179   0.571
 2701TIP3    H2 8061   3.655   6.037   0.564
 2702TIP3   OH2 8062   7.425   6.655   2.875
 2702TIP3    H1 8063   7.405   6.565   2.850
 2702TIP3    H2 8064   7.406   6.706   2.796
 2703TIP3   OH2 8065   4.057   2.524   2.259
 2703TIP3    H1 8066   4.003   2.603   2.265
 2703TIP3    H2 8067   4.115   2.529   2.335
 2704TIP3   OH2 8068   6.858   0.131   0.587
 2704TIP3    H1 8069   6.920   0.112   0.657
 2704TIP3    H2 8070   6.820   0.216   0.611
 2705TIP3   OH2 8071   6.397   2.293   2.003
 2705TIP3    H1 8072   6.416   2.200   1.991
 2705TIP3    H2 8073   6.458   2.322   2.070
 2706TIP3   OH2 8074   0.382   1.801   0.100
 2706TIP3    H1 8075   0.363   1.714   0.063
 2706TIP3    H2 8076   0.313   1.857   0.065
 2707TIP3   OH2 8077   8.048   3.291   0.071
 2707TIP3    H1 8078   8.122   3.233   0.058
 2707TIP3    H2 8079   8.084   3.366   0.118
 2708TIP3   OH2 8080   3.080   0.905   6.006
 2708TIP3    H1 8081   3.089   0.812   5.983
 2708TIP3    H2 8082   3.165   0.943   5.984
 2709TIP3   OH2 8083   4.170   3.750   2.930
 2709TIP3    H1 8084   4.214   3.746   3.015
 2709TIP3    H2 8085   4.223   3.696   2.872
 2710TIP3   OH2 8086   0.629   7.549   0.600
 2710TIP3    H1 8087   0.642   7.496   0.521
 2710TIP3    H2 8088   0.717   7.569   0.630
 2711TIP3   OH2 8089   2.152   5.657   3.792
 2711TIP3    H1 8090   2.059   5.639   3.802
 2711TIP3    H2 8091   2.161   5.691   3.703
 2712TIP3   OH2 8092   0.354   1.124   5.614
 2712TIP3    H1 8093   0.357   1.162   5.526
 2712TIP3    H2 8094   0.336   1.198   5.672
 2713TIP3   OH2 8095   4.373   5.709   0.926
 2713TIP3    H1 8096   4.345   5.706   1.018
 2713TIP3    H2 8097   4.358   5.619   0.895
 2714TIP3   OH2 8098   3.906   7.345   2.586
 2714TIP3    H1 8099   3.885   7.382   2.672
 2714TIP3    H2 8100   3.930   7.254   2.605
 2715TIP3   OH2 8101   5.253   4.867   3.415
 2715TIP3    H1 8102   5.242   4.956   3.381
 2715TIP3    H2 8103   5.341   4.842   3.389
 2716TIP3   OH2 8104   2.103   4.806   0.180
 2716TIP3    H1 8105   2.026   4.779   0.230
 2716TIP3    H2 8106   2.152   4.862   0.240
 2717TIP3   OH2 8107   3.161   4.221   5.905
 2717TIP3    H1 8108   3.194   4.179   5.826
 2717TIP3    H2 8109   3.239   4.257   5.948
 2718TIP3   OH2 8110   3.162   1.268   6.398
 2718TIP3    H1 8111   3.135   1.183   6.433
 2718TIP3    H2 8112   3.252   1.253   6.367
 2719TIP3   OH2 8113   0.506   1.455   3.344
 2719TIP3    H1 8114   0.453   1.526   3.379
 2719TIP3    H2 8115   0.596   1.488   3.347
 2720TIP3   OH2 8116   1.844   2.922   5.549
 2720TIP3    H1 8117   1.761   2.936   5.504
 2720TIP3    H2 8118   1.855   3.000   5.604
 2721TIP3   OH2 8119   1.699   6.286   6.154
 2721TIP3    H1 8120   1.629   6.227   6.181
 2721TIP3    H2 8121   1.728   6.328   6.235
 2722TIP3   OH2 8122   5.963   3.363   2.468
 2722TIP3    H1 8123   6.037   3.359   2.408
 2722TIP3    H2 8124   5.972   3.448   2.512
 2723TIP3   OH2 8125   7.289   7.637   0.651
 2723TIP3    H1 8126   7.275   7.707   0.715
 2723TIP3    H2 8127   7.333   7.680   0.578
 2724TIP3   OH2 8128   1.410   5.389   5.183
 2724TIP3    H1 8129   1.430   5.465   5.238
 2724TIP3    H2 8130   1.493   5.364   5.143
 2725TIP3   OH2 8131   5.408   0.539   6.193
 2725TIP3    H1 8132   5.435   0.588   6.271
 2725TIP3    H2 8133   5.453   0.455   6.201
 2726TIP3   OH2 8134   2.211   3.848   3.004
 2726TIP3    H1 8135   2.131   3.877   3.047
 2726TIP3    H2 8136   2.228   3.914   2.937
 2727TIP3   OH2 8137   6.344   5.797   4.816
 2727TIP3    H1 8138   6.306   5.717   4.780
 2727TIP3    H2 8139   6.279   5.829   4.879
 2728TIP3   OH2 8140   5.007   6.292   1.345
 2728TIP3    H1 8141   4.998   6.198   1.331
 2728TIP3    H2 8142   5.094   6.313   1.310
 2729TIP3   OH2 8143   8.074   4.672   2.963
 2729TIP3    H1 8144   8.061   4.577   2.956
 2729TIP3    H2 8145   8.143   4.681   3.029
 2730TIP3   OH2 8146   3.319   2.118   6.103
 2730TIP3    H1 8147   3.282   2.031   6.087
 2730TIP3    H2 8148   3.391   2.125   6.040
 2731TIP3   OH2 8149   0.976   7.215   3.739
 2731TIP3    H1 8150   1.026   7.201   3.658
 2731TIP3    H2 8151   1.030   7.276   3.789
 2732TIP3   OH2 8152   7.659   3.992   4.884
 2732TIP3    H1 8153   7.619   4.004   4.971
 2732TIP3    H2 8154   7.586   3.967   4.828
 2733TIP3   OH2 8155   0.270   1.272   3.616
 2733TIP3    H1 8156   0.280   1.366   3.631
 2733TIP3    H2 8157   0.260   1.235   3.704
 2734TIP3   OH2 8158   0.908   6.145   5.161
 2734TIP3    H1 8159   0.900   6.058   5.199
 2734TIP3    H2 8160   0.996   6.174   5.185
 2735TIP3   OH2 8161   8.161   7.508   5.763
 2735TIP3    H1 8162   8.225   7.447   5.727
 2735TIP3    H2 8163   8.095   7.453   5.804
 2736TIP3   OH2 8164   2.748   3.733   3.793
 2736TIP3    H1 8165   2.679   3.671   3.769
 2736TIP3    H2 8166   2.701   3.809   3.828
 2737TIP3   OH2 8167   1.282   1.056   0.089
 2737TIP3    H1 8168   1.246   0.969   0.103
 2737TIP3    H2 8169   1.236   1.090   0.012
 2738TIP3   OH2 8170   0.107   6.970   1.533
 2738TIP3    H1 8171   0.032   6.935   1.485
 2738TIP3    H2 8172   0.181   6.962   1.472
 2739TIP3   OH2 8173   0.315   6.262   3.175
 2739TIP3    H1 8174   0.297   6.324   3.246
 2739TIP3    H2 8175   0.402   6.227   3.194
 2740TIP3   OH2 8176   0.110   4.701   5.782
 2740TIP3    H1 8177   0.113   4.680   5.689
 2740TIP3    H2 8178   0.070   4.788   5.786
 2741TIP3   OH2 8179   2.363   0.618   4.639
 2741TIP3    H1 8180   2.368   0.665   4.556
 2741TIP3    H2 8181   2.452   0.585   4.654
 2742TIP3   OH2 8182   3.911   5.416   3.291
 2742TIP3    H1 8183   3.931   5.384   3.379
 2742TIP3    H2 8184   3.996   5.435   3.253
 2743TIP3   OH2 8185   1.934   1.457   4.574
 2743TIP3    H1 8186   1.991   1.389   4.610
 2743TIP3    H2 8187   1.985   1.537   4.578
 2744TIP3   OH2 8188   5.343   2.956   4.132
 2744TIP3    H1 8189   5.303   2.926   4.050
 2744TIP3    H2 8190   5.403   3.026   4.106
 2745TIP3   OH2 8191   5.877   2.733   2.579
 2745TIP3    H1 8192   5.812   2.694   2.520
 2745TIP3    H2 8193   5.961   2.701   2.546
 2746TIP3   OH2 8194   2.658   1.875   0.574
 2746TIP3    H1 8195   2.701   1.927   0.506
 2746TIP3    H2 8196   2.662   1.931   0.652
 2747TIP3   OH2 8197   0.859   6.668   0.680
 2747TIP3    H1 8198   0.785   6.615   0.711
 2747TIP3    H2 8199   0.886   6.719   0.756
 2748TIP3   OH2 8200   0.800   1.551   6.081
 2748TIP3    H1 8201   0.855   1.617   6.037
 2748TIP3    H2 8202   0.835   1.467   6.052
 2749TIP3   OH2 8203   2.118   0.118   5.184
 2749TIP3    H1 8204   2.162   0.040   5.153
 2749TIP3    H2 8205   2.123   0.112   5.280
 2750TIP3   OH2 8206   3.662   7.343   3.607
 2750TIP3    H1 8207   3.610   7.284   3.661
 2750TIP3    H2 8208   3.623   7.338   3.520
 2751TIP3   OH2 8209   3.152   3.652   1.735
 2751TIP3    H1 8210   3.223   3.713   1.754
 2751TIP3    H2 8211   3.132   3.665   1.642
 2752TIP3   OH2 8212   0.372   7.595   1.914
 2752TIP3    H1 8213   0.334   7.545   1.841
 2752TIP3    H2 8214   0.463   7.607   1.889
 2753TIP3   OH2 8215   7.904   5.778   5.296
 2753TIP3    H1 8216   7.997   5.790   5.280
 2753TIP3    H2 8217   7.881   5.848   5.357
 2754TIP3   OH2 8218   6.243   0.814   6.732
 2754TIP3    H1 8219   6.217   0.770   6.651
 2754TIP3    H2 8220   6.332   0.784   6.748
 2755TIP3   OH2 8221   5.641   5.685   3.041
 2755TIP3    H1 8222   5.655   5.591   3.036
 2755TIP3    H2 8223   5.584   5.705   2.966
 2756TIP3   OH2 8224   6.514   4.028   2.150
 2756TIP3    H1 8225   6.564   4.109   2.140
 2756TIP3    H2 8226   6.461   4.022   2.070
 2757TIP3   OH2 8227   3.208   3.606   3.103
 2757TIP3    H1 8228   3.153   3.582   3.178
 2757TIP3    H2 8229   3.171   3.689   3.072
 2758TIP3   OH2 8230   6.801   5.501   0.892
 2758TIP3    H1 8231   6.884   5.469   0.857
 2758TIP3    H2 8232   6.749   5.524   0.815
 2759TIP3   OH2 8233   1.172   0.468   0.498
 2759TIP3    H1 8234   1.091   0.492   0.542
 2759TIP3    H2 8235   1.224   0.424   0.565
 2760TIP3   OH2 8236   1.766   0.485   6.632
 2760TIP3    H1 8237   1.704   0.447   6.694
 2760TIP3    H2 8238   1.844   0.504   6.684
 2761TIP3   OH2 8239   4.421   1.240   5.392
 2761TIP3    H1 8240   4.507   1.283   5.387
 2761TIP3    H2 8241   4.358   1.312   5.395
 2762TIP3   OH2 8242   7.110   4.017   1.844
 2762TIP3    H1 8243   7.170   4.044   1.775
 2762TIP3    H2 8244   7.143   4.060   1.923
 2763TIP3   OH2 8245   3.416   5.650   1.740
 2763TIP3    H1 8246   3.470   5.687   1.670
 2763TIP3    H2 8247   3.474   5.643   1.815
 2764TIP3   OH2 8248   0.161   4.951   6.794
 2764TIP3    H1 8249   0.190   4.872   6.748
 2764TIP3    H2 8250   0.184   5.023   6.736
 2765TIP3   OH2 8251   0.392   5.757   6.526
 2765TIP3    H1 8252   0.451   5.689   6.492
 2765TIP3    H2 8253   0.353   5.719   6.604
 2766TIP3   OH2 8254   0.257   1.067   3.153
 2766TIP3    H1 8255   0.317   1.075   3.227
 2766TIP3    H2 8256   0.229   1.157   3.135
 2767TIP3   OH2 8257   4.608   0.867   0.409
 2767TIP3    H1 8258   4.590   0.782   0.450
 2767TIP3    H2 8259   4.648   0.919   0.479
 2768TIP3   OH2 8260   4.113   6.076   3.184
 2768TIP3    H1 8261   4.117   6.169   3.205
 2768TIP3    H2 8262   4.024   6.049   3.207
 2769TIP3   OH2 8263   4.218   6.884   5.659
 2769TIP3    H1 8264   4.139   6.836   5.636
 2769TIP3    H2 8265   4.280   6.864   5.588
 2770TIP3   OH2 8266   6.610   7.020   4.658
 2770TIP3    H1 8267   6.528   7.068   4.650
 2770TIP3    H2 8268   6.584   6.929   4.671
 2771TIP3   OH2 8269   1.820   5.009   1.360
 2771TIP3    H1 8270   1.857   4.992   1.447
 2771TIP3    H2 8271   1.858   4.941   1.304
 2772TIP3   OH2 8272   3.192   7.128   0.520
 2772TIP3    H1 8273   3.239   7.112   0.439
 2772TIP3    H2 8274   3.259   7.125   0.588
 2773TIP3   OH2 8275   6.912   1.056   4.490
 2773TIP3    H1 8276   6.921   0.992   4.561
 2773TIP3    H2 8277   6.838   1.024   4.438
 2774TIP3   OH2 8278   7.013   5.862   1.255
 2774TIP3    H1 8279   7.094   5.886   1.211
 2774TIP3    H2 8280   7.041   5.830   1.341
 2775TIP3   OH2 8281   5.551   2.693   4.915
 2775TIP3    H1 8282   5.608   2.730   4.982
 2775TIP3    H2 8283   5.506   2.769   4.877
 2776TIP3   OH2 8284   3.696   2.279   2.437
 2776TIP3    H1 8285   3.656   2.224   2.369
 2776TIP3    H2 8286   3.790   2.265   2.426
 2777TIP3   OH2 8287   0.105   0.358   2.250
 2777TIP3    H1 8288   0.185   0.365   2.303
 2777TIP3    H2 8289   0.115   0.428   2.185
 2778TIP3   OH2 8290   4.283   0.537   5.882
 2778TIP3    H1 8291   4.279   0.534   5.786
 2778TIP3    H2 8292   4.365   0.583   5.900
 2779TIP3   OH2 8293   2.522   5.077   5.116
 2779TIP3    H1 8294   2.475   5.118   5.044
 2779TIP3    H2 8295   2.592   5.139   5.137
 2780TIP3   OH2 8296   4.696   5.510   5.117
 2780TIP3    H1 8297   4.623   5.525   5.177
 2780TIP3    H2 8298   4.759   5.578   5.139
 2781TIP3   OH2 8299   7.905   7.252   5.442
 2781TIP3    H1 8300   7.965   7.318   5.409
 2781TIP3    H2 8301   7.833   7.302   5.479
 2782TIP3   OH2 8302   5.557   2.536   3.390
 2782TIP3    H1 8303   5.495   2.529   3.318
 2782TIP3    H2 8304   5.643   2.521   3.349
 2783TIP3   OH2 8305   5.895   6.367   4.627
 2783TIP3    H1 8306   5.806   6.348   4.657
 2783TIP3    H2 8307   5.951   6.314   4.684
 2784TIP3   OH2 8308   5.560   7.462   4.073
 2784TIP3    H1 8309   5.507   7.529   4.116
 2784TIP3    H2 8310   5.639   7.508   4.046
 2785TIP3   OH2 8311   0.820   1.278   1.611
 2785TIP3    H1 8312   0.786   1.276   1.701
 2785TIP3    H2 8313   0.899   1.331   1.617
 2786TIP3   OH2 8314   4.953   0.064   2.928
 2786TIP3    H1 8315   5.042   0.068   2.965
 2786TIP3    H2 8316   4.897   0.048   3.004
 2787TIP3   OH2 8317   2.622   0.721   2.282
 2787TIP3    H1 8318   2.575   0.652   2.330
 2787TIP3    H2 8319   2.568   0.799   2.294
 2788TIP3   OH2 8320   2.977   3.816   0.661
 2788TIP3    H1 8321   3.058   3.848   0.700
 2788TIP3    H2 8322   3.001   3.731   0.623
 2789TIP3   OH2 8323   6.203   7.611   5.862
 2789TIP3    H1 8324   6.190   7.671   5.935
 2789TIP3    H2 8325   6.146   7.643   5.793
 2790TIP3   OH2 8326   6.051   5.831   2.600
 2790TIP3    H1 8327   6.094   5.908   2.636
 2790TIP3    H2 8328   5.958   5.853   2.602
 2791TIP3   OH2 8329   1.593   6.167   3.120
 2791TIP3    H1 8330   1.550   6.121   3.192
 2791TIP3    H2 8331   1.600   6.102   3.050
 2792TIP3   OH2 8332   1.862   0.676   1.287
 2792TIP3    H1 8333   1.819   0.599   1.325
 2792TIP3    H2 8334   1.858   0.742   1.356
 2793TIP3   OH2 8335   5.317   3.725   2.406
 2793TIP3    H1 8336   5.394   3.735   2.350
 2793TIP3    H2 8337   5.296   3.814   2.434
 2794TIP3   OH2 8338   6.279   6.395   2.253
 2794TIP3    H1 8339   6.271   6.479   2.208
 2794TIP3    H2 8340   6.324   6.416   2.335
 2795TIP3   OH2 8341   5.218   6.877   3.222
 2795TIP3    H1 8342   5.313   6.877   3.212
 2795TIP3    H2 8343   5.195   6.968   3.242
 2796TIP3   OH2 8344   4.424   1.036   0.000
 2796TIP3    H1 8345   4.331   1.014  -0.006
 2796TIP3    H2 8346   4.469   0.953  -0.019
 2797TIP3   OH2 8347   8.203   4.240   4.497
 2797TIP3    H1 8348   8.185   4.203   4.410
 2797TIP3    H2 8349   8.299   4.240   4.503
 2798TIP3   OH2 8350   5.539   4.978   5.588
 2798TIP3    H1 8351   5.530   4.892   5.545
 2798TIP3    H2 8352   5.449   5.007   5.601
 2799TIP3   OH2 8353   6.070   7.540   0.064
 2799TIP3    H1 8354   6.140   7.581   0.013
 2799TIP3    H2 8355   6.113   7.512   0.145
 2800TIP3   OH2 8356   3.771   6.485   0.085
 2800TIP3    H1 8357   3.817   6.554   0.134
 2800TIP3    H2 8358   3.840   6.424   0.059
 2801TIP3   OH2 8359   4.901   5.149   5.644
 2801TIP3    H1 8360   4.903   5.245   5.643
 2801TIP3    H2 8361   4.941   5.124   5.560
 2802TIP3   OH2 8362   3.875   6.471   3.887
 2802TIP3    H1 8363   3.801   6.487   3.946
 2802TIP3    H2 8364   3.872   6.544   3.826
 2803TIP3   OH2 8365   0.166   4.169   4.514
 2803TIP3    H1 8366   0.150   4.144   4.423
 2803TIP3    H2 8367   0.243   4.227   4.510
 2804TIP3   OH2 8368   0.464   4.240   1.524
 2804TIP3    H1 8369   0.506   4.213   1.443
 2804TIP3    H2 8370   0.501   4.326   1.543
 2805TIP3   OH2 8371   0.630   3.146   1.864
 2805TIP3    H1 8372   0.550   3.174   1.820
 2805TIP3    H2 8373   0.688   3.222   1.859
 2806TIP3   OH2 8374   3.027   7.498   5.742
 2806TIP3    H1 8375   3.020   7.403   5.744
 2806TIP3    H2 8376   2.958   7.528   5.802
 2807TIP3   OH2 8377   2.435   5.054   0.503
 2807TIP3    H1 8378   2.495   5.083   0.571
 2807TIP3    H2 8379   2.492   5.021   0.433
 2808TIP3   OH2 8380   2.028   6.736   5.833
 2808TIP3    H1 8381   2.010   6.812   5.888
 2808TIP3    H2 8382   2.119   6.714   5.852
 2809TIP3   OH2 8383   2.235   7.721   2.452
 2809TIP3    H1 8384   2.269   7.791   2.508
 2809TIP3    H2 8385   2.306   7.658   2.445
 2810TIP3   OH2 8386   5.230   5.616   5.461
 2810TIP3    H1 8387   5.171   5.540   5.460
 2810TIP3    H2 8388   5.245   5.634   5.554
 2811TIP3   OH2 8389   1.581   2.051   5.405
 2811TIP3    H1 8390   1.608   2.131   5.450
 2811TIP3    H2 8391   1.623   2.057   5.319
 2812TIP3   OH2 8392   1.534   5.665   4.139
 2812TIP3    H1 8393   1.472   5.726   4.099
 2812TIP3    H2 8394   1.526   5.681   4.233
 2813TIP3   OH2 8395   7.615   5.652   4.811
 2813TIP3    H1 8396   7.681   5.678   4.747
 2813TIP3    H2 8397   7.629   5.710   4.886
 2814TIP3   OH2 8398   7.195   3.849   4.952
 2814TIP3    H1 8399   7.285   3.864   4.923
 2814TIP3    H2 8400   7.145   3.842   4.870
 2815TIP3   OH2 8401   4.206   1.538   3.451
 2815TIP3    H1 8402   4.130   1.596   3.448
 2815TIP3    H2 8403   4.238   1.544   3.541
 2816TIP3   OH2 8404   4.549   5.256   5.034
 2816TIP3    H1 8405   4.472   5.245   5.089
 2816TIP3    H2 8406   4.594   5.333   5.068
 2817TIP3   OH2 8407   8.155   0.285   3.326
 2817TIP3    H1 8408   8.107   0.202   3.332
 2817TIP3    H2 8409   8.130   0.332   3.406
 2818TIP3   OH2 8410   4.979   5.083   5.374
 2818TIP3    H1 8411   5.014   4.998   5.349
 2818TIP3    H2 8412   4.910   5.101   5.310
 2819TIP3   OH2 8413   6.564   1.954   1.582
 2819TIP3    H1 8414   6.559   1.983   1.673
 2819TIP3    H2 8415   6.642   1.898   1.578
 2820TIP3   OH2 8416   3.882   5.684   4.671
 2820TIP3    H1 8417   3.861   5.765   4.623
 2820TIP3    H2 8418   3.847   5.614   4.615
 2821TIP3   OH2 8419   7.948   2.990   3.016
 2821TIP3    H1 8420   8.026   3.040   3.041
 2821TIP3    H2 8421   7.942   3.001   2.921
 2822TIP3   OH2 8422   5.282   4.345   6.051
 2822TIP3    H1 8423   5.247   4.410   5.990
 2822TIP3    H2 8424   5.359   4.388   6.090
 2823TIP3   OH2 8425   6.991   5.343   5.157
 2823TIP3    H1 8426   7.016   5.422   5.110
 2823TIP3    H2 8427   7.043   5.346   5.238
 2824TIP3   OH2 8428   8.028   3.260   1.069
 2824TIP3    H1 8429   8.029   3.352   1.096
 2824TIP3    H2 8430   8.015   3.211   1.150
 2825TIP3   OH2 8431   1.368   1.306   1.115
 2825TIP3    H1 8432   1.398   1.219   1.141
 2825TIP3    H2 8433   1.448   1.355   1.098
 2826TIP3   OH2 8434   7.393   7.759   0.386
 2826TIP3    H1 8435   7.418   7.668   0.376
 2826TIP3    H2 8436   7.474   7.808   0.372
 2827TIP3   OH2 8437   6.799   1.644   2.966
 2827TIP3    H1 8438   6.825   1.693   3.044
 2827TIP3    H2 8439   6.828   1.554   2.984
 2828TIP3   OH2 8440   2.790   7.549   2.035
 2828TIP3    H1 8441   2.875   7.506   2.021
 2828TIP3    H2 8442   2.812   7.638   2.063
 2829TIP3   OH2 8443   0.141   5.494   0.244
 2829TIP3    H1 8444   0.178   5.416   0.285
 2829TIP3    H2 8445   0.150   5.563   0.310
 2830TIP3   OH2 8446   3.581   2.715   1.359
 2830TIP3    H1 8447   3.502   2.766   1.374
 2830TIP3    H2 8448   3.622   2.756   1.283
 2831TIP3   OH2 8449   0.873   3.006   2.559
 2831TIP3    H1 8450   0.785   3.024   2.525
 2831TIP3    H2 8451   0.857   2.969   2.646
 2832TIP3   OH2 8452   1.622   2.298   4.657
 2832TIP3    H1 8453   1.618   2.203   4.668
 2832TIP3    H2 8454   1.705   2.323   4.698
 2833TIP3   OH2 8455   2.972   2.801   0.204
 2833TIP3    H1 8456   3.007   2.763   0.124
 2833TIP3    H2 8457   2.909   2.866   0.174
 2834TIP3   OH2 8458   7.450   7.497   3.212
 2834TIP3    H1 8459   7.413   7.519   3.297
 2834TIP3    H2 8460   7.412   7.412   3.191
 2835TIP3   OH2 8461   5.083   1.733   1.737
 2835TIP3    H1 8462   5.091   1.795   1.810
 2835TIP3    H2 8463   5.053   1.652   1.778
 2836TIP3   OH2 8464   7.828   4.264   2.317
 2836TIP3    H1 8465   7.869   4.270   2.230
 2836TIP3    H2 8466   7.734   4.271   2.299
 2837TIP3   OH2 8467   5.308   1.799   5.096
 2837TIP3    H1 8468   5.353   1.860   5.037
 2837TIP3    H2 8469   5.375   1.735   5.120
 2838TIP3   OH2 8470   7.131   2.439   5.613
 2838TIP3    H1 8471   7.113   2.521   5.567
 2838TIP3    H2 8472   7.200   2.397   5.561
 2839TIP3   OH2 8473   2.060   0.275   0.461
 2839TIP3    H1 8474   2.047   0.313   0.375
 2839TIP3    H2 8475   2.032   0.184   0.453
 2840TIP3   OH2 8476   4.967   1.649   1.273
 2840TIP3    H1 8477   5.056   1.638   1.305
 2840TIP3    H2 8478   4.975   1.710   1.200
 2841TIP3   OH2 8479   3.326   6.954   2.207
 2841TIP3    H1 8480   3.344   7.049   2.206
 2841TIP3    H2 8481   3.407   6.915   2.173
 2842TIP3   OH2 8482   3.379   6.623   2.100
 2842TIP3    H1 8483   3.468   6.633   2.132
 2842TIP3    H2 8484   3.324   6.643   2.176
 2843TIP3   OH2 8485   0.279   6.858   4.827
 2843TIP3    H1 8486   0.358   6.902   4.794
 2843TIP3    H2 8487   0.249   6.914   4.898
 2844TIP3   OH2 8488   3.596   5.122   2.474
 2844TIP3    H1 8489   3.555   5.169   2.547
 2844TIP3    H2 8490   3.550   5.154   2.396
 2845TIP3   OH2 8491   8.156   3.224   1.533
 2845TIP3    H1 8492   8.131   3.194   1.446
 2845TIP3    H2 8493   8.073   3.244   1.577
 2846TIP3   OH2 8494   3.824   3.333   0.199
 2846TIP3    H1 8495   3.890   3.403   0.201
 2846TIP3    H2 8496   3.742   3.376   0.224
 2847TIP3   OH2 8497   4.592   4.416   6.198
 2847TIP3    H1 8498   4.507   4.449   6.229
 2847TIP3    H2 8499   4.630   4.374   6.275
 2848TIP3   OH2 8500   6.232   6.815   6.503
 2848TIP3    H1 8501   6.306   6.806   6.563
 2848TIP3    H2 8502   6.259   6.885   6.443
 2849TIP3   OH2 8503   2.861   4.055   3.974
 2849TIP3    H1 8504   2.886   4.089   3.888
 2849TIP3    H2 8505   2.914   3.977   3.985
 2850TIP3   OH2 8506   0.774   0.638   1.356
 2850TIP3    H1 8507   0.680   0.627   1.368
 2850TIP3    H2 8508   0.801   0.697   1.427
 2851TIP3   OH2 8509   5.185   2.163   3.170
 2851TIP3    H1 8510   5.186   2.245   3.219
 2851TIP3    H2 8511   5.125   2.107   3.220
 2852TIP3   OH2 8512   0.867   0.083   3.518
 2852TIP3    H1 8513   0.905   0.121   3.439
 2852TIP3    H2 8514   0.782   0.050   3.492
 2853TIP3   OH2 8515   1.813   2.919   3.357
 2853TIP3    H1 8516   1.758   2.939   3.433
 2853TIP3    H2 8517   1.860   2.839   3.381
 2854TIP3   OH2 8518   5.406   3.449   2.732
 2854TIP3    H1 8519   5.486   3.491   2.763
 2854TIP3    H2 8520   5.418   3.356   2.752
 2855TIP3   OH2 8521   4.822   1.240   0.758
 2855TIP3    H1 8522   4.845   1.247   0.850
 2855TIP3    H2 8523   4.900   1.272   0.711
 2856TIP3   OH2 8524   0.095   4.393   4.787
 2856TIP3    H1 8525   0.023   4.455   4.780
 2856TIP3    H2 8526   0.147   4.407   4.708
 2857TIP3   OH2 8527   5.497   7.401   6.294
 2857TIP3    H1 8528   5.548   7.329   6.332
 2857TIP3    H2 8529   5.560   7.447   6.238
 2858TIP3   OH2 8530   7.428   4.148   4.134
 2858TIP3    H1 8531   7.399   4.134   4.044
 2858TIP3    H2 8532   7.524   4.144   4.129
 2859TIP3   OH2 8533   5.370   5.539   1.548
 2859TIP3    H1 8534   5.397   5.535   1.640
 2859TIP3    H2 8535   5.434   5.483   1.502
 2860TIP3   OH2 8536   3.859   4.123   5.413
 2860TIP3    H1 8537   3.833   4.072   5.490
 2860TIP3    H2 8538   3.941   4.164   5.438
 2861TIP3   OH2 8539   2.601   7.016   2.384
 2861TIP3    H1 8540   2.518   6.990   2.344
 2861TIP3    H2 8541   2.575   7.060   2.465
 2862TIP3   OH2 8542   3.951   2.183   4.030
 2862TIP3    H1 8543   3.954   2.201   4.124
 2862TIP3    H2 8544   4.039   2.204   3.999
 2863TIP3   OH2 8545   1.574   1.122   1.304
 2863TIP3    H1 8546   1.498   1.072   1.274
 2863TIP3    H2 8547   1.537   1.194   1.354
 2864TIP3   OH2 8548   7.384   0.605   6.094
 2864TIP3    H1 8549   7.479   0.600   6.103
 2864TIP3    H2 8550   7.354   0.647   6.175
 2865TIP3   OH2 8551   1.892   4.957   1.952
 2865TIP3    H1 8552   1.833   5.014   2.001
 2865TIP3    H2 8553   1.849   4.871   1.954
 2866TIP3   OH2 8554   7.783   3.572   6.536
 2866TIP3    H1 8555   7.801   3.555   6.443
 2866TIP3    H2 8556   7.853   3.528   6.583
 2867TIP3   OH2 8557   0.180   1.914   1.100
 2867TIP3    H1 8558   0.177   1.845   1.166
 2867TIP3    H2 8559   0.138   1.876   1.023
 2868TIP3   OH2 8560   8.094   6.652   5.277
 2868TIP3    H1 8561   8.137   6.571   5.305
 2868TIP3    H2 8562   8.047   6.682   5.354
 2869TIP3   OH2 8563   2.708   2.224   0.499
 2869TIP3    H1 8564   2.799   2.229   0.472
 2869TIP3    H2 8565   2.712   2.208   0.594
 2870TIP3   OH2 8566   4.521   5.965   1.019
 2870TIP3    H1 8567   4.542   5.954   1.112
 2870TIP3    H2 8568   4.442   5.912   1.006
 2871TIP3   OH2 8569   2.354   2.666   6.014
 2871TIP3    H1 8570   2.333   2.600   6.080
 2871TIP3    H2 8571   2.447   2.653   5.996
 2872TIP3   OH2 8572   4.345   2.780   4.612
 2872TIP3    H1 8573   4.394   2.856   4.581
 2872TIP3    H2 8574   4.410   2.724   4.653
 2873TIP3   OH2 8575   5.799   6.702   4.034
 2873TIP3    H1 8576   5.762   6.685   4.121
 2873TIP3    H2 8577   5.814   6.615   3.997
 2874TIP3   OH2 8578   4.593   4.829   0.963
 2874TIP3    H1 8579   4.683   4.796   0.963
 2874TIP3    H2 8580   4.591   4.893   0.892
 2875TIP3   OH2 8581   0.942   5.932   0.617
 2875TIP3    H1 8582   0.912   5.855   0.569
 2875TIP3    H2 8583   0.947   6.001   0.550
 2876TIP3   OH2 8584   5.279   1.578   0.384
 2876TIP3    H1 8585   5.260   1.548   0.295
 2876TIP3    H2 8586   5.290   1.497   0.435
 2877TIP3   OH2 8587   7.103   7.405   6.014
 2877TIP3    H1 8588   7.161   7.346   5.966
 2877TIP3    H2 8589   7.027   7.417   5.957
 2878TIP3   OH2 8590   3.651   6.092   4.563
 2878TIP3    H1 8591   3.704   6.135   4.495
 2878TIP3    H2 8592   3.560   6.112   4.539
 2879TIP3   OH2 8593   5.008   6.800   0.149
 2879TIP3    H1 8594   5.086   6.851   0.127
 2879TIP3    H2 8595   4.937   6.842   0.101
 2880TIP3   OH2 8596   3.010   3.532   0.649
 2880TIP3    H1 8597   3.056   3.504   0.570
 2880TIP3    H2 8598   2.924   3.489   0.643
 2881TIP3   OH2 8599   4.897   3.523   1.315
 2881TIP3    H1 8600   4.987   3.529   1.282
 2881TIP3    H2 8601   4.845   3.499   1.239
 2882TIP3   OH2 8602   2.737   2.779   2.796
 2882TIP3    H1 8603   2.806   2.715   2.813
 2882TIP3    H2 8604   2.717   2.815   2.883
 2883TIP3   OH2 8605   4.395   5.494   5.507
 2883TIP3    H1 8606   4.315   5.510   5.556
 2883TIP3    H2 8607   4.426   5.582   5.483
 2884TIP3   OH2 8608   4.235   0.261   5.896
 2884TIP3    H1 8609   4.246   0.355   5.880
 2884TIP3    H2 8610   4.242   0.251   5.991
 2885TIP3   OH2 8611   6.949   4.397   4.073
 2885TIP3    H1 8612   6.996   4.480   4.064
 2885TIP3    H2 8613   7.009   4.341   4.122
 2886TIP3   OH2 8614   3.660   3.888   1.651
 2886TIP3    H1 8615   3.707   3.895   1.568
 2886TIP3    H2 8616   3.717   3.931   1.715
 2887TIP3   OH2 8617   2.268   6.251   4.600
 2887TIP3    H1 8618   2.309   6.335   4.578
 2887TIP3    H2 8619   2.311   6.224   4.681
 2888TIP3   OH2 8620   2.599   2.356   6.511
 2888TIP3    H1 8621   2.511   2.371   6.545
 2888TIP3    H2 8622   2.622   2.268   6.542
 2889TIP3   OH2 8623   2.724   2.046   4.483
 2889TIP3    H1 8624   2.735   2.134   4.446
 2889TIP3    H2 8625   2.685   1.995   4.413
 2890TIP3   OH2 8626   7.305   4.963   0.298
 2890TIP3    H1 8627   7.258   4.982   0.218
 2890TIP3    H2 8628   7.255   5.008   0.367
 2891TIP3   OH2 8629   6.741   7.215   3.383
 2891TIP3    H1 8630   6.746   7.251   3.471
 2891TIP3    H2 8631   6.697   7.130   3.394
 2892TIP3   OH2 8632   6.234   2.033   6.058
 2892TIP3    H1 8633   6.152   2.010   6.014
 2892TIP3    H2 8634   6.211   2.106   6.115
 2893TIP3   OH2 8635   5.268   2.860   3.603
 2893TIP3    H1 8636   5.359   2.835   3.586
 2893TIP3    H2 8637   5.256   2.940   3.550
 2894TIP3   OH2 8638   2.741   4.839   0.088
 2894TIP3    H1 8639   2.739   4.875   0.176
 2894TIP3    H2 8640   2.700   4.752   0.097
 2895TIP3   OH2 8641   2.347   5.926   2.971
 2895TIP3    H1 8642   2.351   5.831   2.981
 2895TIP3    H2 8643   2.266   5.951   3.017
 2896TIP3   OH2 8644   2.276   7.332   1.700
 2896TIP3    H1 8645   2.226   7.274   1.759
 2896TIP3    H2 8646   2.276   7.287   1.616
 2897TIP3   OH2 8647   0.095   4.636   3.374
 2897TIP3    H1 8648   0.179   4.638   3.328
 2897TIP3    H2 8649   0.105   4.700   3.445
 2898TIP3   OH2 8650   7.154   7.082   3.289
 2898TIP3    H1 8651   7.083   7.054   3.232
 2898TIP3    H2 8652   7.195   7.000   3.319
 2899TIP3   OH2 8653   7.761   5.893   3.503
 2899TIP3    H1 8654   7.838   5.837   3.505
 2899TIP3    H2 8655   7.703   5.852   3.439
 2900TIP3   OH2 8656   8.236   1.762   5.871
 2900TIP3    H1 8657   8.214   1.685   5.923
 2900TIP3    H2 8658   8.247   1.729   5.782
 2901TIP3   OH2 8659   2.256   5.533   5.875
 2901TIP3    H1 8660   2.175   5.562   5.917
 2901TIP3    H2 8661   2.325   5.583   5.919
 2902TIP3   OH2 8662   3.580   3.147   2.403
 2902TIP3    H1 8663   3.494   3.108   2.393
 2902TIP3    H2 8664   3.574   3.231   2.359
 2903TIP3   OH2 8665   4.220   0.699   0.207
 2903TIP3    H1 8666   4.272   0.779   0.219
 2903TIP3    H2 8667   4.144   0.712   0.263
 2904TIP3   OH2 8668   4.443   7.453   6.543
 2904TIP3    H1 8669   4.388   7.391   6.494
 2904TIP3    H2 8670   4.382   7.498   6.602
 2905TIP3   OH2 8671   0.766   1.026   0.397
 2905TIP3    H1 8672   0.806   1.007   0.312
 2905TIP3    H2 8673   0.672   1.029   0.379
 2906TIP3   OH2 8674   6.450   1.761   2.377
 2906TIP3    H1 8675   6.365   1.803   2.358
 2906TIP3    H2 8676   6.427   1.671   2.400
 2907TIP3   OH2 8677   2.191   2.869   5.934
 2907TIP3    H1 8678   2.239   2.792   5.963
 2907TIP3    H2 8679   2.111   2.833   5.895
 2908TIP3   OH2 8680   5.818   0.813   5.634
 2908TIP3    H1 8681   5.834   0.726   5.598
 2908TIP3    H2 8682   5.847   0.873   5.565
 2909TIP3   OH2 8683   6.983   3.118   2.658
 2909TIP3    H1 8684   7.032   3.111   2.740
 2909TIP3    H2 8685   6.899   3.156   2.684
 2910TIP3   OH2 8686   0.202   6.048   3.070
 2910TIP3    H1 8687   0.277   6.101   3.099
 2910TIP3    H2 8688   0.130   6.076   3.127
 2911TIP3   OH2 8689   1.420   7.279   1.996
 2911TIP3    H1 8690   1.486   7.259   1.930
 2911TIP3    H2 8691   1.349   7.321   1.948
 2912TIP3   OH2 8692   8.010   4.719   6.208
 2912TIP3    H1 8693   8.002   4.638   6.158
 2912TIP3    H2 8694   7.933   4.720   6.264
 2913TIP3   OH2 8695   6.411   4.571   0.828
 2913TIP3    H1 8696   6.355   4.616   0.765
 2913TIP3    H2 8697   6.494   4.619   0.825
 2914TIP3   OH2 8698   4.035   4.878   2.676
 2914TIP3    H1 8699   3.974   4.928   2.731
 2914TIP3    H2 8700   3.979   4.817   2.628
 2915TIP3   OH2 8701   6.843   5.276   5.759
 2915TIP3    H1 8702   6.765   5.248   5.710
 2915TIP3    H2 8703   6.838   5.227   5.841
 2916TIP3   OH2 8704   7.287   4.617   3.800
 2916TIP3    H1 8705   7.250   4.643   3.885
 2916TIP3    H2 8706   7.359   4.678   3.786
 2917TIP3   OH2 8707   8.037   6.988   5.395
 2917TIP3    H1 8708   8.039   6.902   5.436
 2917TIP3    H2 8709   8.122   7.027   5.415
 2918TIP3   OH2 8710   6.841   5.224   3.555
 2918TIP3    H1 8711   6.854   5.130   3.546
 2918TIP3    H2 8712   6.825   5.255   3.466
 2919TIP3   OH2 8713   5.659   3.402   4.021
 2919TIP3    H1 8714   5.670   3.416   4.115
 2919TIP3    H2 8715   5.742   3.363   3.993
 2920TIP3   OH2 8716   7.075   2.070   3.930
 2920TIP3    H1 8717   7.094   1.984   3.967
 2920TIP3    H2 8718   6.994   2.097   3.973
 2921TIP3   OH2 8719   7.715   1.926   3.363
 2921TIP3    H1 8720   7.757   2.010   3.382
 2921TIP3    H2 8721   7.650   1.915   3.432
 2922TIP3   OH2 8722   4.515   3.659   1.483
 2922TIP3    H1 8723   4.535   3.683   1.393
 2922TIP3    H2 8724   4.599   3.664   1.529
 2923TIP3   OH2 8725   4.631   2.297   1.852
 2923TIP3    H1 8726   4.550   2.297   1.800
 2923TIP3    H2 8727   4.668   2.384   1.837
 2924TIP3   OH2 8728   1.405   3.068   5.229
 2924TIP3    H1 8729   1.322   3.107   5.200
 2924TIP3    H2 8730   1.385   2.976   5.243
 2925TIP3   OH2 8731   3.563   0.566   2.680
 2925TIP3    H1 8732   3.632   0.617   2.638
 2925TIP3    H2 8733   3.483   0.614   2.662
 2926TIP3   OH2 8734   3.828   1.026   1.934
 2926TIP3    H1 8735   3.816   1.019   1.839
 2926TIP3    H2 8736   3.764   1.092   1.961
 2927TIP3   OH2 8737   2.203   0.208   1.702
 2927TIP3    H1 8738   2.287   0.164   1.709
 2927TIP3    H2 8739   2.224   0.301   1.698
 2928TIP3   OH2 8740   4.376   2.033   5.838
 2928TIP3    H1 8741   4.355   2.012   5.747
 2928TIP3    H2 8742   4.402   2.125   5.837
 2929TIP3   OH2 8743   2.432   6.100   3.414
 2929TIP3    H1 8744   2.371   6.126   3.345
 2929TIP3    H2 8745   2.436   6.176   3.472
 2930TIP3   OH2 8746   4.252   2.031   0.146
 2930TIP3    H1 8747   4.331   2.055   0.194
 2930TIP3    H2 8748   4.185   2.020   0.213
 2931TIP3   OH2 8749   3.097   2.731   1.292
 2931TIP3    H1 8750   3.149   2.661   1.254
 2931TIP3    H2 8751   3.043   2.763   1.220
 2932TIP3   OH2 8752   7.635   3.387   6.689
 2932TIP3    H1 8753   7.582   3.342   6.623
 2932TIP3    H2 8754   7.669   3.464   6.643
 2933TIP3   OH2 8755   2.200   2.561   3.146
 2933TIP3    H1 8756   2.213   2.480   3.096
 2933TIP3    H2 8757   2.238   2.543   3.232
 2934TIP3   OH2 8758   2.847   2.074   5.018
 2934TIP3    H1 8759   2.909   2.146   5.021
 2934TIP3    H2 8760   2.761   2.115   5.024
 2935TIP3   OH2 8761   8.075   5.269   5.863
 2935TIP3    H1 8762   8.146   5.334   5.871
 2935TIP3    H2 8763   8.010   5.297   5.928
 2936TIP3   OH2 8764   0.121   2.001   4.097
 2936TIP3    H1 8765   0.080   2.048   4.024
 2936TIP3    H2 8766   0.094   1.910   4.084
 2937TIP3   OH2 8767   4.103   6.909   0.133
 2937TIP3    H1 8768   4.078   6.982   0.076
 2937TIP3    H2 8769   4.159   6.854   0.078
 2938TIP3   OH2 8770   3.648   3.852   2.122
 2938TIP3    H1 8771   3.734   3.892   2.135
 2938TIP3    H2 8772   3.606   3.857   2.208
 2939TIP3   OH2 8773   6.311   6.978   2.294
 2939TIP3    H1 8774   6.301   7.007   2.204
 2939TIP3    H2 8775   6.331   7.058   2.343
 2940TIP3   OH2 8776   4.289   4.200   5.257
 2940TIP3    H1 8777   4.365   4.233   5.303
 2940TIP3    H2 8778   4.323   4.131   5.200
 2941TIP3   OH2 8779   4.770   2.256   6.646
 2941TIP3    H1 8780   4.750   2.170   6.683
 2941TIP3    H2 8781   4.691   2.281   6.598
 2942TIP3   OH2 8782   6.471   1.167   4.606
 2942TIP3    H1 8783   6.469   1.110   4.683
 2942TIP3    H2 8784   6.532   1.237   4.630
 2943TIP3   OH2 8785   2.746   1.617   6.275
 2943TIP3    H1 8786   2.771   1.696   6.229
 2943TIP3    H2 8787   2.811   1.552   6.248
 2944TIP3   OH2 8788   2.618   2.606   5.940
 2944TIP3    H1 8789   2.713   2.607   5.948
 2944TIP3    H2 8790   2.602   2.616   5.846
 2945TIP3   OH2 8791   1.833   1.989   0.685
 2945TIP3    H1 8792   1.922   2.006   0.716
 2945TIP3    H2 8793   1.842   1.913   0.627
 2946TIP3   OH2 8794   1.056   1.417   6.238
 2946TIP3    H1 8795   1.024   1.506   6.249
 2946TIP3    H2 8796   1.014   1.368   6.309
 2947TIP3   OH2 8797   7.505   1.256   1.657
 2947TIP3    H1 8798   7.501   1.322   1.726
 2947TIP3    H2 8799   7.441   1.190   1.684
 2948TIP3   OH2 8800   7.549   3.548   6.149
 2948TIP3    H1 8801   7.525   3.595   6.229
 2948TIP3    H2 8802   7.476   3.488   6.133
 2949TIP3   OH2 8803   1.880   2.515   0.940
 2949TIP3    H1 8804   1.972   2.500   0.919
 2949TIP3    H2 8805   1.836   2.514   0.855
 2950TIP3   OH2 8806   2.936   5.986   0.841
 2950TIP3    H1 8807   2.842   5.993   0.827
 2950TIP3    H2 8808   2.950   5.895   0.869
 2951TIP3   OH2 8809   0.478   6.185   3.531
 2951TIP3    H1 8810   0.392   6.215   3.562
 2951TIP3    H2 8811   0.540   6.227   3.590
 2952TIP3   OH2 8812   1.857   2.309   3.609
 2952TIP3    H1 8813   1.928   2.356   3.565
 2952TIP3    H2 8814   1.813   2.375   3.663
 2953TIP3   OH2 8815   3.350   4.193   0.765
 2953TIP3    H1 8816   3.332   4.166   0.856
 2953TIP3    H2 8817   3.347   4.111   0.715
 2954TIP3   OH2 8818   7.814   2.372   0.901
 2954TIP3    H1 8819   7.740   2.313   0.918
 2954TIP3    H2 8820   7.804   2.396   0.809
 2955TIP3   OH2 8821   7.184   4.164   1.065
 2955TIP3    H1 8822   7.227   4.212   1.136
 2955TIP3    H2 8823   7.148   4.086   1.107
 2956TIP3   OH2 8824   7.817   5.368   2.304
 2956TIP3    H1 8825   7.874   5.390   2.231
 2956TIP3    H2 8826   7.840   5.431   2.373
 2957TIP3   OH2 8827   7.368   0.639   6.772
 2957TIP3    H1 8828   7.370   0.549   6.803
 2957TIP3    H2 8829   7.321   0.635   6.689
 2958TIP3   OH2 8830   2.517   1.556   4.915
 2958TIP3    H1 8831   2.541   1.597   4.998
 2958TIP3    H2 8832   2.472   1.625   4.866
 2959TIP3   OH2 8833   5.538   1.704   4.760
 2959TIP3    H1 8834   5.630   1.681   4.752
 2959TIP3    H2 8835   5.538   1.780   4.818
 2960TIP3   OH2 8836   5.377   7.396   2.902
 2960TIP3    H1 8837   5.352   7.389   2.810
 2960TIP3    H2 8838   5.414   7.311   2.924
 2961TIP3   OH2 8839   0.503   4.117   2.751
 2961TIP3    H1 8840   0.534   4.047   2.693
 2961TIP3    H2 8841   0.577   4.178   2.757
 2962TIP3   OH2 8842   1.160   3.946   0.045
 2962TIP3    H1 8843   1.155   4.010   0.116
 2962TIP3    H2 8844   1.216   3.986  -0.021
 2963TIP3   OH2 8845   4.489   2.380   6.477
 2963TIP3    H1 8846   4.542   2.368   6.398
 2963TIP3    H2 8847   4.403   2.407   6.445
 2964TIP3   OH2 8848   4.815   1.115   0.183
 2964TIP3    H1 8849   4.797   1.161   0.266
 2964TIP3    H2 8850   4.897   1.154   0.152
 2965TIP3   OH2 8851   2.164   1.461   5.140
 2965TIP3    H1 8852   2.086   1.429   5.185
 2965TIP3    H2 8853   2.236   1.440   5.199
 2966TIP3   OH2 8854   7.024   3.940   1.402
 2966TIP3    H1 8855   6.994   3.948   1.312
 2966TIP3    H2 8856   7.011   3.848   1.424
 2967TIP3   OH2 8857   7.860   0.316   4.442
 2967TIP3    H1 8858   7.774   0.331   4.482
 2967TIP3    H2 8859   7.884   0.228   4.472
 2968TIP3   OH2 8860   7.000   4.134   0.247
 2968TIP3    H1 8861   7.051   4.071   0.298
 2968TIP3    H2 8862   6.943   4.176   0.311
 2969TIP3   OH2 8863   6.841   4.153   2.791
 2969TIP3    H1 8864   6.856   4.131   2.882
 2969TIP3    H2 8865   6.745   4.159   2.783
 2970TIP3   OH2 8866   0.215   5.848   2.156
 2970TIP3    H1 8867   0.270   5.926   2.156
 2970TIP3    H2 8868   0.262   5.784   2.208
 2971TIP3   OH2 8869   1.948   2.621   6.103
 2971TIP3    H1 8870   1.869   2.672   6.087
 2971TIP3    H2 8871   1.989   2.663   6.178
 2972TIP3   OH2 8872   8.196   1.280   3.123
 2972TIP3    H1 8873   8.290   1.292   3.110
 2972TIP3    H2 8874   8.154   1.339   3.060
 2973TIP3   OH2 8875   2.803   0.823   3.602
 2973TIP3    H1 8876   2.761   0.776   3.531
 2973TIP3    H2 8877   2.750   0.802   3.679
 2974TIP3   OH2 8878   1.226   2.281   5.595
 2974TIP3    H1 8879   1.274   2.307   5.673
 2974TIP3    H2 8880   1.249   2.347   5.529
 2975TIP3   OH2 8881   0.559   7.045   3.166
 2975TIP3    H1 8882   0.475   7.084   3.141
 2975TIP3    H2 8883   0.625   7.106   3.135
 2976TIP3   OH2 8884   6.802   6.281   2.030
 2976TIP3    H1 8885   6.875   6.232   2.068
 2976TIP3    H2 8886   6.759   6.219   1.971
 2977TIP3   OH2 8887   6.663   0.886   0.440
 2977TIP3    H1 8888   6.620   0.959   0.395
 2977TIP3    H2 8889   6.743   0.872   0.391
 2978TIP3   OH2 8890   7.270   7.828   5.134
 2978TIP3    H1 8891   7.335   7.758   5.143
 2978TIP3    H2 8892   7.187   7.783   5.121
 2979TIP3   OH2 8893   4.862   6.476   3.644
 2979TIP3    H1 8894   4.809   6.489   3.565
 2979TIP3    H2 8895   4.827   6.397   3.684
 2980TIP3   OH2 8896   6.820   5.835   0.414
 2980TIP3    H1 8897   6.802   5.910   0.357
 2980TIP3    H2 8898   6.761   5.847   0.489
 2981TIP3   OH2 8899   2.723   7.516   0.092
 2981TIP3    H1 8900   2.749   7.601   0.128
 2981TIP3    H2 8901   2.805   7.466   0.087
 2982TIP3   OH2 8902   2.269   6.744   1.978
 2982TIP3    H1 8903   2.228   6.673   1.929
 2982TIP3    H2 8904   2.354   6.709   2.005
 2983TIP3   OH2 8905   4.445   4.914   1.729
 2983TIP3    H1 8906   4.395   4.983   1.774
 2983TIP3    H2 8907   4.444   4.841   1.790
 2984TIP3   OH2 8908   0.754   2.645   4.380
 2984TIP3    H1 8909   0.736   2.665   4.288
 2984TIP3    H2 8910   0.745   2.729   4.425
 2985TIP3   OH2 8911   1.632   3.852   1.621
 2985TIP3    H1 8912   1.685   3.828   1.697
 2985TIP3    H2 8913   1.653   3.785   1.556
 2986TIP3   OH2 8914   8.009   3.951   0.872
 2986TIP3    H1 8915   7.960   4.027   0.840
 2986TIP3    H2 8916   7.962   3.875   0.839
 2987TIP3   OH2 8917   0.352   1.449   1.770
 2987TIP3    H1 8918   0.284   1.391   1.735
 2987TIP3    H2 8919   0.425   1.390   1.790
 2988TIP3   OH2 8920   6.485   4.320   3.280
 2988TIP3    H1 8921   6.498   4.226   3.265
 2988TIP3    H2 8922   6.443   4.326   3.365
 2989TIP3   OH2 8923   1.995   4.104   2.595
 2989TIP3    H1 8924   1.965   4.022   2.555
 2989TIP3    H2 8925   2.091   4.097   2.594
 2990TIP3   OH2 8926   4.544   4.667   0.695
 2990TIP3    H1 8927   4.594   4.728   0.641
 2990TIP3    H2 8928   4.472   4.639   0.637
 2991TIP3   OH2 8929   2.046   5.132   1.508
 2991TIP3    H1 8930   1.988   5.161   1.438
 2991TIP3    H2 8931   2.001   5.156   1.588
 2992TIP3   OH2 8932   2.945   3.733   3.580
 2992TIP3    H1 8933   2.883   3.766   3.645
 2992TIP3    H2 8934   2.897   3.738   3.497
 2993TIP3   OH2 8935   1.619   0.048   1.487
 2993TIP3    H1 8936   1.527   0.040   1.462
 2993TIP3    H2 8937   1.666   0.048   1.404
 2994TIP3   OH2 8938   2.195   7.720   3.556
 2994TIP3    H1 8939   2.201   7.752   3.466
 2994TIP3    H2 8940   2.184   7.626   3.548
 2995TIP3   OH2 8941   1.438   6.231   5.685
 2995TIP3    H1 8942   1.490   6.244   5.764
 2995TIP3    H2 8943   1.485   6.165   5.635
 2996TIP3   OH2 8944   0.574   3.410   5.065
 2996TIP3    H1 8945   0.578   3.315   5.053
 2996TIP3    H2 8946   0.521   3.441   4.991
 2997TIP3   OH2 8947   2.164   4.161   3.157
 2997TIP3    H1 8948   2.237   4.180   3.216
 2997TIP3    H2 8949   2.098   4.122   3.214
 2998TIP3   OH2 8950   1.236   1.188   2.377
 2998TIP3    H1 8951   1.279   1.186   2.462
 2998TIP3    H2 8952   1.209   1.280   2.366
 2999TIP3   OH2 8953   0.423   5.465   0.765
 2999TIP3    H1 8954   0.403   5.375   0.791
 2999TIP3    H2 8955   0.338   5.505   0.749
 3000TIP3   OH2 8956   6.680   2.868   5.425
 3000TIP3    H1 8957   6.587   2.883   5.404
 3000TIP3    H2 8958   6.727   2.917   5.357
 3001TIP3   OH2 8959   1.186   1.439   1.344
 3001TIP3    H1 8960   1.258   1.499   1.322
 3001TIP3    H2 8961   1.164   1.397   1.260
 3002TIP3   OH2 8962   1.337   2.706   2.501
 3002TIP3    H1 8963   1.325   2.611   2.495
 3002TIP3    H2 8964   1.287   2.741   2.427
 3003TIP3   OH2 8965   1.235   7.605   6.021
 3003TIP3    H1 8966   1.290   7.570   5.950
 3003TIP3    H2 8967   1.261   7.696   6.028
 3004TIP3   OH2 8968   0.335   5.749   0.681
 3004TIP3    H1 8969   0.430   5.751   0.698
 3004TIP3    H2 8970   0.297   5.787   0.760
 3005TIP3   OH2 8971   2.951   6.578   1.663
 3005TIP3    H1 8972   2.957   6.527   1.583
 3005TIP3    H2 8973   3.008   6.653   1.648
 3006TIP3   OH2 8974   2.875   0.153   0.052
 3006TIP3    H1 8975   2.928   0.213  -0.002
 3006TIP3    H2 8976   2.828   0.210   0.112
 3007TIP3   OH2 8977   6.651   5.971   3.484
 3007TIP3    H1 8978   6.650   6.034   3.412
 3007TIP3    H2 8979   6.574   5.992   3.536
 3008TIP3   OH2 8980   0.080   0.143   3.378
 3008TIP3    H1 8981   0.094   0.075   3.312
 3008TIP3    H2 8982  -0.012   0.167   3.369
 3009TIP3   OH2 8983   0.925   5.921   1.773
 3009TIP3    H1 8984   1.003   5.865   1.776
 3009TIP3    H2 8985   0.944   5.992   1.835
 3010TIP3   OH2 8986   4.221   1.301   3.784
 3010TIP3    H1 8987   4.240   1.291   3.877
 3010TIP3    H2 8988   4.250   1.219   3.744
 3011TIP3   OH2 8989   1.680   7.315   3.416
 3011TIP3    H1 8990   1.688   7.310   3.512
 3011TIP3    H2 8991   1.614   7.383   3.401
 3012TIP3   OH2 8992   6.220   1.720   5.435
 3012TIP3    H1 8993   6.306   1.680   5.440
 3012TIP3    H2 8994   6.162   1.651   5.403
 3013TIP3   OH2 8995   4.446   7.639   2.329
 3013TIP3    H1 8996   4.405   7.717   2.293
 3013TIP3    H2 8997   4.534   7.638   2.290
 3014TIP3   OH2 8998   5.624   7.138   6.360
 3014TIP3    H1 8999   5.647   7.144   6.452
 3014TIP3    H2 9000   5.706   7.116   6.316
 3015TIP3   OH2 9001   0.051   1.756   4.017
 3015TIP3    H1 9002   0.007   1.676   4.046
 3015TIP3    H2 9003  -0.006   1.791   3.949
 3016TIP3   OH2 9004   4.676   5.548   2.715
 3016TIP3    H1 9005   4.740   5.609   2.677
 3016TIP3    H2 9006   4.678   5.566   2.809
 3017TIP3   OH2 9007   0.433   2.198   6.310
 3017TIP3    H1 9008   0.505   2.136   6.319
 3017TIP3    H2 9009   0.401   2.211   6.400
 3018TIP3   OH2 9010   1.968   2.145   1.081
 3018TIP3    H1 9011   2.031   2.138   1.009
 3018TIP3    H2 9012   1.930   2.057   1.088
 3019TIP3   OH2 9013   6.007   0.384   1.891
 3019TIP3    H1 9014   5.975   0.464   1.851
 3019TIP3    H2 9015   6.019   0.323   1.818
 3020TIP3   OH2 9016   4.117   3.818   3.563
 3020TIP3    H1 9017   4.041   3.844   3.511
 3020TIP3    H2 9018   4.164   3.899   3.580
 3021TIP3   OH2 9019   4.269   7.690   4.116
 3021TIP3    H1 9020   4.340   7.664   4.057
 3021TIP3    H2 9021   4.246   7.610   4.163
 3022TIP3   OH2 9022   7.571   7.609   6.307
 3022TIP3    H1 9023   7.591   7.611   6.213
 3022TIP3    H2 9024   7.521   7.528   6.319
 3023TIP3   OH2 9025   3.314   6.440   3.631
 3023TIP3    H1 9026   3.375   6.369   3.653
 3023TIP3    H2 9027   3.365   6.498   3.574
 3024TIP3   OH2 9028   3.236   5.258   1.083
 3024TIP3    H1 9029   3.287   5.242   1.003
 3024TIP3    H2 9030   3.160   5.200   1.074
 3025TIP3   OH2 9031   0.240   5.706   1.883
 3025TIP3    H1 9032   0.312   5.646   1.862
 3025TIP3    H2 9033   0.240   5.710   1.979
 3026TIP3   OH2 9034   4.093   5.161   0.692
 3026TIP3    H1 9035   4.015   5.214   0.709
 3026TIP3    H2 9036   4.154   5.221   0.650
 3027TIP3   OH2 9037   6.193   1.326   4.204
 3027TIP3    H1 9038   6.102   1.351   4.190
 3027TIP3    H2 9039   6.209   1.343   4.297
 3028TIP3   OH2 9040   5.275   6.982   0.263
 3028TIP3    H1 9041   5.207   7.031   0.310
 3028TIP3    H2 9042   5.357   7.016   0.298
 3029TIP3   OH2 9043   6.926   3.137   0.594
 3029TIP3    H1 9044   6.974   3.055   0.595
 3029TIP3    H2 9045   6.900   3.151   0.685
 3030TIP3   OH2 9046   2.946   2.417   3.296
 3030TIP3    H1 9047   3.003   2.368   3.237
 3030TIP3    H2 9048   2.873   2.357   3.314
 3031TIP3   OH2 9049   2.875   4.352   0.887
 3031TIP3    H1 9050   2.928   4.399   0.952
 3031TIP3    H2 9051   2.905   4.262   0.892
 3032TIP3   OH2 9052   0.835   5.195   3.881
 3032TIP3    H1 9053   0.844   5.251   3.959
 3032TIP3    H2 9054   0.889   5.238   3.815
 3033TIP3   OH2 9055   2.471   0.305   0.772
 3033TIP3    H1 9056   2.440   0.227   0.725
 3033TIP3    H2 9057   2.544   0.337   0.719
 3034TIP3   OH2 9058   1.135   3.773   1.351
 3034TIP3    H1 9059   1.128   3.683   1.320
 3034TIP3    H2 9060   1.193   3.768   1.427
 3035TIP3   OH2 9061   5.209   7.623   3.502
 3035TIP3    H1 9062   5.212   7.586   3.590
 3035TIP3    H2 9063   5.120   7.606   3.472
 3036TIP3   OH2 9064   7.570   4.184   6.610
 3036TIP3    H1 9065   7.649   4.138   6.583
 3036TIP3    H2 9066   7.563   4.167   6.704
 3037TIP3   OH2 9067   5.758   1.183   5.676
 3037TIP3    H1 9068   5.800   1.100   5.658
 3037TIP3    H2 9069   5.706   1.201   5.597
 3038TIP3   OH2 9070   7.929   5.565   0.153
 3038TIP3    H1 9071   7.927   5.652   0.193
 3038TIP3    H2 9072   7.865   5.515   0.203
 3039TIP3   OH2 9073   6.747   7.305   4.171
 3039TIP3    H1 9074   6.712   7.347   4.249
 3039TIP3    H2 9075   6.685   7.234   4.152
 3040TIP3   OH2 9076   0.532   4.709   1.967
 3040TIP3    H1 9077   0.608   4.737   2.017
 3040TIP3    H2 9078   0.555   4.729   1.876
 3041TIP3   OH2 9079   2.807   1.270   0.549
 3041TIP3    H1 9080   2.897   1.301   0.539
 3041TIP3    H2 9081   2.814   1.175   0.546
 3042TIP3   OH2 9082   0.346   4.183   5.465
 3042TIP3    H1 9083   0.366   4.091   5.479
 3042TIP3    H2 9084   0.397   4.207   5.387
 3043TIP3   OH2 9085   5.909   3.251   4.248
 3043TIP3    H1 9086   5.889   3.270   4.157
 3043TIP3    H2 9087   5.922   3.337   4.288
 3044TIP3   OH2 9088   4.152   1.422   5.588
 3044TIP3    H1 9089   4.144   1.492   5.652
 3044TIP3    H2 9090   4.231   1.443   5.538
 3045TIP3   OH2 9091   7.105   4.644   6.073
 3045TIP3    H1 9092   7.014   4.650   6.100
 3045TIP3    H2 9093   7.123   4.550   6.070
 3046TIP3   OH2 9094   3.325   3.978   2.620
 3046TIP3    H1 9095   3.243   3.933   2.639
 3046TIP3    H2 9096   3.390   3.936   2.676
 3047TIP3   OH2 9097   3.317   3.542   0.790
 3047TIP3    H1 9098   3.375   3.528   0.715
 3047TIP3    H2 9099   3.327   3.463   0.844
 3048TIP3   OH2 9100   2.756   1.546   5.230
 3048TIP3    H1 9101   2.793   1.615   5.175
 3048TIP3    H2 9102   2.824   1.528   5.295
 3049TIP3   OH2 9103   2.002   6.294   4.527
 3049TIP3    H1 9104   2.006   6.352   4.451
 3049TIP3    H2 9105   2.093   6.272   4.546
 3050TIP3   OH2 9106   1.316   0.424   5.370
 3050TIP3    H1 9107   1.254   0.461   5.307
 3050TIP3    H2 9108   1.338   0.496   5.429
 3051TIP3   OH2 9109   1.534   3.921   6.318
 3051TIP3    H1 9110   1.441   3.936   6.336
 3051TIP3    H2 9111   1.538   3.834   6.279
 3052TIP3   OH2 9112   7.919   3.944   6.020
 3052TIP3    H1 9113   7.928   3.944   5.925
 3052TIP3    H2 9114   7.843   3.888   6.037
 3053TIP3   OH2 9115   6.191   3.256   2.107
 3053TIP3    H1 9116   6.274   3.233   2.065
 3053TIP3    H2 9117   6.132   3.275   2.033
 3054TIP3   OH2 9118   4.787   4.722   2.906
 3054TIP3    H1 9119   4.765   4.791   2.968
 3054TIP3    H2 9120   4.720   4.728   2.838
 3055TIP3   OH2 9121   0.736   2.265   3.346
 3055TIP3    H1 9122   0.658   2.314   3.374
 3055TIP3    H2 9123   0.792   2.263   3.424
 3056TIP3   OH2 9124   0.079   3.095   4.486
 3056TIP3    H1 9125   0.041   3.016   4.447
 3056TIP3    H2 9126   0.008   3.134   4.537
 3057TIP3   OH2 9127   5.646   1.914   6.074
 3057TIP3    H1 9128   5.648   1.917   6.170
 3057TIP3    H2 9129   5.554   1.896   6.053
 3058TIP3   OH2 9130   2.227   0.105   3.768
 3058TIP3    H1 9131   2.321   0.091   3.780
 3058TIP3    H2 9132   2.218   0.128   3.675
 3059TIP3   OH2 9133   5.449   2.704   2.278
 3059TIP3    H1 9134   5.526   2.746   2.316
 3059TIP3    H2 9135   5.438   2.624   2.328
 3060TIP3   OH2 9136   0.153   5.835   2.497
 3060TIP3    H1 9137   0.231   5.830   2.441
 3060TIP3    H2 9138   0.112   5.918   2.474
 3061TIP3   OH2 9139   0.405   1.991   4.070
 3061TIP3    H1 9140   0.401   1.897   4.088
 3061TIP3    H2 9141   0.315   2.021   4.078
 3062TIP3   OH2 9142   7.746   3.061   3.368
 3062TIP3    H1 9143   7.706   2.992   3.315
 3062TIP3    H2 9144   7.673   3.116   3.394
 3063TIP3   OH2 9145   6.229   4.997   3.586
 3063TIP3    H1 9146   6.240   5.082   3.629
 3063TIP3    H2 9147   6.223   4.935   3.659
 3064TIP3   OH2 9148   3.807   2.716   2.956
 3064TIP3    H1 9149   3.775   2.736   2.867
 3064TIP3    H2 9150   3.760   2.637   2.981
 3065TIP3   OH2 9151   6.014   0.775   3.006
 3065TIP3    H1 9152   5.954   0.761   2.933
 3065TIP3    H2 9153   6.068   0.696   3.008
 3066TIP3   OH2 9154   6.931   7.755   4.095
 3066TIP3    H1 9155   6.966   7.841   4.120
 3066TIP3    H2 9156   6.928   7.757   4.000
 3067TIP3   OH2 9157   2.289   1.417   3.721
 3067TIP3    H1 9158   2.378   1.387   3.703
 3067TIP3    H2 9159   2.281   1.499   3.673
 3068TIP3   OH2 9160   6.987   5.061   2.549
 3068TIP3    H1 9161   6.969   5.048   2.456
 3068TIP3    H2 9162   6.901   5.063   2.590
 3069TIP3   OH2 9163   0.391   7.260   4.574
 3069TIP3    H1 9164   0.308   7.289   4.612
 3069TIP3    H2 9165   0.451   7.255   4.649
 3070TIP3   OH2 9166   6.026   4.862   1.583
 3070TIP3    H1 9167   6.121   4.874   1.570
 3070TIP3    H2 9168   5.986   4.908   1.509
 3071TIP3   OH2 9169   8.074   0.361   3.997
 3071TIP3    H1 9170   8.021   0.282   3.991
 3071TIP3    H2 9171   8.162   0.329   4.015
 3072TIP3   OH2 9172   2.979   7.135   0.185
 3072TIP3    H1 9173   3.042   7.148   0.256
 3072TIP3    H2 9174   2.962   7.041   0.185
 3073TIP3   OH2 9175   0.744   6.083   4.676
 3073TIP3    H1 9176   0.734   6.072   4.771
 3073TIP3    H2 9177   0.777   6.172   4.666
 3074TIP3   OH2 9178   6.638   3.841   5.361
 3074TIP3    H1 9179   6.700   3.768   5.361
 3074TIP3    H2 9180   6.688   3.915   5.396
 3075TIP3   OH2 9181   0.078   4.756   4.008
 3075TIP3    H1 9182   0.120   4.838   3.981
 3075TIP3    H2 9183   0.037   4.723   3.928
 3076TIP3   OH2 9184   1.951   1.161   2.106
 3076TIP3    H1 9185   1.950   1.090   2.171
 3076TIP3    H2 9186   2.041   1.193   2.108
 3077TIP3   OH2 9187   6.698   5.078   2.609
 3077TIP3    H1 9188   6.646   5.101   2.533
 3077TIP3    H2 9189   6.660   4.996   2.640
 3078TIP3   OH2 9190   2.428   6.025   0.416
 3078TIP3    H1 9191   2.500   6.067   0.369
 3078TIP3    H2 9192   2.361   6.093   0.422
 3079TIP3   OH2 9193   0.562   2.517   0.537
 3079TIP3    H1 9194   0.645   2.512   0.584
 3079TIP3    H2 9195   0.583   2.489   0.448
 3080TIP3   OH2 9196   3.365   4.750   3.357
 3080TIP3    H1 9197   3.416   4.820   3.318
 3080TIP3    H2 9198   3.341   4.694   3.284
 3081TIP3   OH2 9199   7.822   4.694   6.759
 3081TIP3    H1 9200   7.836   4.789   6.760
 3081TIP3    H2 9201   7.893   4.660   6.704
 3082TIP3   OH2 9202   2.558   1.515   5.982
 3082TIP3    H1 9203   2.503   1.570   6.038
 3082TIP3    H2 9204   2.563   1.563   5.899
 3083TIP3   OH2 9205   6.442   6.997   0.671
 3083TIP3    H1 9206   6.472   6.908   0.653
 3083TIP3    H2 9207   6.475   7.015   0.759
 3084TIP3   OH2 9208   0.221   2.090   2.030
 3084TIP3    H1 9209   0.236   2.010   2.080
 3084TIP3    H2 9210   0.280   2.154   2.070
 3085TIP3   OH2 9211   6.188   2.893   2.633
 3085TIP3    H1 9212   6.209   2.814   2.682
 3085TIP3    H2 9213   6.274   2.930   2.610
 3086TIP3   OH2 9214   6.872   3.474   5.255
 3086TIP3    H1 9215   6.914   3.498   5.337
 3086TIP3    H2 9216   6.897   3.382   5.241
 3087TIP3   OH2 9217   6.407   6.964   5.959
 3087TIP3    H1 9218   6.376   6.875   5.977
 3087TIP3    H2 9219   6.407   6.971   5.864
 3088TIP3   OH2 9220   0.436   6.491   4.493
 3088TIP3    H1 9221   0.435   6.586   4.500
 3088TIP3    H2 9222   0.364   6.470   4.434
 3089TIP3   OH2 9223   4.766   6.810   2.761
 3089TIP3    H1 9224   4.788   6.823   2.669
 3089TIP3    H2 9225   4.681   6.853   2.772
 3090TIP3   OH2 9226   3.999   7.205   0.468
 3090TIP3    H1 9227   3.904   7.200   0.483
 3090TIP3    H2 9228   4.008   7.209   0.372
 3091TIP3   OH2 9229   4.818   2.290   2.345
 3091TIP3    H1 9230   4.759   2.252   2.279
 3091TIP3    H2 9231   4.837   2.218   2.405
 3092TIP3   OH2 9232   8.190   4.310   0.209
 3092TIP3    H1 9233   8.274   4.273   0.238
 3092TIP3    H2 9234   8.157   4.247   0.145
 3093TIP3   OH2 9235   7.677   3.755   2.575
 3093TIP3    H1 9236   7.687   3.708   2.658
 3093TIP3    H2 9237   7.713   3.842   2.591
 3094TIP3   OH2 9238   6.673   1.137   3.919
 3094TIP3    H1 9239   6.746   1.131   3.981
 3094TIP3    H2 9240   6.640   1.226   3.929
 3095TIP3   OH2 9241   3.553   6.879   1.137
 3095TIP3    H1 9242   3.636   6.835   1.115
 3095TIP3    H2 9243   3.523   6.836   1.217
 3096TIP3   OH2 9244   6.892   4.670   4.214
 3096TIP3    H1 9245   6.974   4.637   4.178
 3096TIP3    H2 9246   6.908   4.762   4.230
 3097TIP3   OH2 9247   6.701   0.382   0.628
 3097TIP3    H1 9248   6.622   0.435   0.617
 3097TIP3    H2 9249   6.732   0.369   0.538
 3098TIP3   OH2 9250   0.648   7.636   1.861
 3098TIP3    H1 9251   0.680   7.549   1.834
 3098TIP3    H2 9252   0.695   7.697   1.805
 3099TIP3   OH2 9253   1.669   5.676   5.288
 3099TIP3    H1 9254   1.714   5.593   5.305
 3099TIP3    H2 9255   1.577   5.658   5.308
 3100TIP3   OH2 9256   3.048   7.463   4.588
 3100TIP3    H1 9257   3.122   7.422   4.635
 3100TIP3    H2 9258   3.050   7.423   4.501
 3101TIP3   OH2 9259   2.036   5.748   2.599
 3101TIP3    H1 9260   2.058   5.661   2.564
 3101TIP3    H2 9261   2.042   5.738   2.694
 3102TIP3   OH2 9262   4.845   2.867   2.504
 3102TIP3    H1 9263   4.910   2.869   2.574
 3102TIP3    H2 9264   4.848   2.777   2.471
 3103TIP3   OH2 9265   7.392   3.905   2.091
 3103TIP3    H1 9266   7.298   3.923   2.085
 3103TIP3    H2 9267   7.433   3.987   2.064
 3104TIP3   OH2 9268   5.140   0.869   1.580
 3104TIP3    H1 9269   5.096   0.902   1.501
 3104TIP3    H2 9270   5.075   0.880   1.650
 3105TIP3   OH2 9271   3.122   3.743   0.215
 3105TIP3    H1 9272   3.142   3.794   0.294
 3105TIP3    H2 9273   3.050   3.686   0.240
 3106TIP3   OH2 9274   2.487   2.767   6.337
 3106TIP3    H1 9275   2.400   2.792   6.366
 3106TIP3    H2 9276   2.483   2.672   6.328
 3107TIP3   OH2 9277   1.810   4.767   4.018
 3107TIP3    H1 9278   1.723   4.768   3.979
 3107TIP3    H2 9279   1.869   4.751   3.945
 3108TIP3   OH2 9280   4.586   5.316   1.251
 3108TIP3    H1 9281   4.532   5.273   1.318
 3108TIP3    H2 9282   4.528   5.326   1.176
 3109TIP3   OH2 9283   5.502   6.063   3.306
 3109TIP3    H1 9284   5.500   6.158   3.319
 3109TIP3    H2 9285   5.448   6.029   3.377
 3110TIP3   OH2 9286   4.452   1.695   5.585
 3110TIP3    H1 9287   4.522   1.759   5.569
 3110TIP3    H2 9288   4.452   1.683   5.680
 3111TIP3   OH2 9289   0.108   7.469   5.547
 3111TIP3    H1 9290   0.158   7.396   5.510
 3111TIP3    H2 9291   0.110   7.537   5.479
 3112TIP3   OH2 9292   3.041   7.756   3.287
 3112TIP3    H1 9293   2.947   7.760   3.270
 3112TIP3    H2 9294   3.051   7.784   3.378
 3113TIP3   OH2 9295   4.014   1.062   3.093
 3113TIP3    H1 9296   4.053   1.091   3.010
 3113TIP3    H2 9297   4.082   1.079   3.158
 3114TIP3   OH2 9298   8.323   2.318   0.547
 3114TIP3    H1 9299   8.240   2.272   0.563
 3114TIP3    H2 9300   8.355   2.281   0.464
 3115TIP3   OH2 9301   6.134   6.141   5.742
 3115TIP3    H1 9302   6.221   6.181   5.751
 3115TIP3    H2 9303   6.085   6.173   5.818
 3116TIP3   OH2 9304   6.006   6.422   0.635
 3116TIP3    H1 9305   6.077   6.428   0.571
 3116TIP3    H2 9306   6.031   6.483   0.704
 3117TIP3   OH2 9307   5.805   0.638   5.919
 3117TIP3    H1 9308   5.806   0.569   5.853
 3117TIP3    H2 9309   5.716   0.673   5.916
 3118TIP3   OH2 9310   4.160   7.668   1.243
 3118TIP3    H1 9311   4.244   7.711   1.228
 3118TIP3    H2 9312   4.117   7.668   1.157
 3119TIP3   OH2 9313   1.830   3.713   2.070
 3119TIP3    H1 9314   1.896   3.739   2.135
 3119TIP3    H2 9315   1.796   3.630   2.102
 3120TIP3   OH2 9316   6.311   6.735   2.970
 3120TIP3    H1 9317   6.216   6.747   2.978
 3120TIP3    H2 9318   6.322   6.647   2.934
 3121TIP3   OH2 9319   2.702   3.386   3.750
 3121TIP3    H1 9320   2.786   3.374   3.705
 3121TIP3    H2 9321   2.636   3.370   3.683
 3122TIP3   OH2 9322   8.209   5.295   0.684
 3122TIP3    H1 9323   8.145   5.261   0.622
 3122TIP3    H2 9324   8.202   5.237   0.760
 3123TIP3   OH2 9325   0.781   0.736   0.896
 3123TIP3    H1 9326   0.725   0.806   0.863
 3123TIP3    H2 9327   0.725   0.686   0.956
 3124TIP3   OH2 9328   1.985   4.536   6.351
 3124TIP3    H1 9329   2.044   4.543   6.276
 3124TIP3    H2 9330   2.027   4.471   6.408
 3125TIP3   OH2 9331   5.956   6.986   3.240
 3125TIP3    H1 9332   5.990   7.047   3.174
 3125TIP3    H2 9333   6.034   6.940   3.272
 3126TIP3   OH2 9334   0.857   6.848   0.886
 3126TIP3    H1 9335   0.895   6.913   0.945
 3126TIP3    H2 9336   0.779   6.890   0.851
 3127TIP3   OH2 9337   6.792   6.388   1.312
 3127TIP3    H1 9338   6.869   6.401   1.257
 3127TIP3    H2 9339   6.826   6.389   1.402
 3128TIP3   OH2 9340   2.475   6.919   4.201
 3128TIP3    H1 9341   2.443   6.990   4.256
 3128TIP3    H2 9342   2.401   6.897   4.144
 3129TIP3   OH2 9343   3.939   5.773   1.105
 3129TIP3    H1 9344   3.961   5.680   1.093
 3129TIP3    H2 9345   3.972   5.816   1.026
 3130TIP3   OH2 9346   7.080   0.523   0.957
 3130TIP3    H1 9347   7.090   0.459   1.028
 3130TIP3    H2 9348   7.000   0.497   0.912
 3131TIP3   OH2 9349   3.239   4.904   1.081
 3131TIP3    H1 9350   3.180   4.973   1.111
 3131TIP3    H2 9351   3.196   4.823   1.106
 3132TIP3   OH2 9352   0.658   6.532   6.702
 3132TIP3    H1 9353   0.736   6.544   6.648
 3132TIP3    H2 9354   0.691   6.502   6.786
 3133TIP3   OH2 9355   2.168   6.141   6.375
 3133TIP3    H1 9356   2.160   6.192   6.294
 3133TIP3    H2 9357   2.245   6.086   6.361
 3134TIP3   OH2 9358   1.240   0.473   3.395
 3134TIP3    H1 9359   1.150   0.505   3.403
 3134TIP3    H2 9360   1.291   0.551   3.373
 3135TIP3   OH2 9361   1.764   3.782   5.887
 3135TIP3    H1 9362   1.714   3.745   5.960
 3135TIP3    H2 9363   1.776   3.874   5.911
 3136TIP3   OH2 9364   2.937   3.762   3.029
 3136TIP3    H1 9365   2.868   3.806   2.979
 3136TIP3    H2 9366   2.986   3.833   3.071
 3137TIP3   OH2 9367   3.789   3.299   6.353
 3137TIP3    H1 9368   3.794   3.233   6.423
 3137TIP3    H2 9369   3.869   3.351   6.363
 3138TIP3   OH2 9370   1.694   2.905   0.594
 3138TIP3    H1 9371   1.665   2.833   0.650
 3138TIP3    H2 9372   1.778   2.877   0.559
 3139TIP3   OH2 9373   3.114   5.783   3.218
 3139TIP3    H1 9374   3.078   5.862   3.178
 3139TIP3    H2 9375   3.084   5.787   3.309
 3140TIP3   OH2 9376   5.995   1.652   4.808
 3140TIP3    H1 9377   6.000   1.713   4.735
 3140TIP3    H2 9378   6.082   1.654   4.848
 3141TIP3   OH2 9379   5.903   6.380   1.905
 3141TIP3    H1 9380   5.962   6.445   1.943
 3141TIP3    H2 9381   5.912   6.392   1.810
 3142TIP3   OH2 9382   5.105   3.010   6.328
 3142TIP3    H1 9383   5.053   3.075   6.375
 3142TIP3    H2 9384   5.062   2.927   6.347
 3143TIP3   OH2 9385   8.103   5.211   1.544
 3143TIP3    H1 9386   8.105   5.296   1.500
 3143TIP3    H2 9387   8.124   5.231   1.636
 3144TIP3   OH2 9388   6.034   4.212   3.015
 3144TIP3    H1 9389   5.967   4.281   3.025
 3144TIP3    H2 9390   6.095   4.229   3.086
 3145TIP3   OH2 9391   6.314   0.433   1.626
 3145TIP3    H1 9392   6.297   0.515   1.673
 3145TIP3    H2 9393   6.318   0.366   1.694
 3146TIP3   OH2 9394   6.914   1.426   1.261
 3146TIP3    H1 9395   6.904   1.434   1.167
 3146TIP3    H2 9396   6.984   1.362   1.273
 3147TIP3   OH2 9397   3.000   7.456   0.384
 3147TIP3    H1 9398   3.019   7.438   0.477
 3147TIP3    H2 9399   2.924   7.514   0.386
 3148TIP3   OH2 9400   4.157   0.504   6.631
 3148TIP3    H1 9401   4.229   0.464   6.680
 3148TIP3    H2 9402   4.095   0.433   6.616
 3149TIP3   OH2 9403   2.738   4.437   3.884
 3149TIP3    H1 9404   2.801   4.377   3.925
 3149TIP3    H2 9405   2.790   4.486   3.820
 3150TIP3   OH2 9406   4.238   7.230   2.506
 3150TIP3    H1 9407   4.259   7.227   2.599
 3150TIP3    H2 9408   4.225   7.323   2.487
 3151TIP3   OH2 9409   5.832   7.611   5.305
 3151TIP3    H1 9410   5.847   7.534   5.360
 3151TIP3    H2 9411   5.899   7.604   5.236
 3152TIP3   OH2 9412   3.420   7.028   1.845
 3152TIP3    H1 9413   3.404   7.102   1.904
 3152TIP3    H2 9414   3.513   7.034   1.825
 3153TIP3   OH2 9415   0.944   6.319   6.276
 3153TIP3    H1 9416   1.011   6.380   6.307
 3153TIP3    H2 9417   0.983   6.232   6.289
 3154TIP3   OH2 9418   5.764   2.658   0.913
 3154TIP3    H1 9419   5.790   2.747   0.890
 3154TIP3    H2 9420   5.689   2.669   0.971
 3155TIP3   OH2 9421   8.036   2.325   4.634
 3155TIP3    H1 9422   8.112   2.300   4.686
 3155TIP3    H2 9423   7.979   2.249   4.636
 3156TIP3   OH2 9424   8.033   3.645   3.006
 3156TIP3    H1 9425   8.044   3.629   2.912
 3156TIP3    H2 9426   8.001   3.562   3.041
 3157TIP3   OH2 9427   2.001   1.667   2.599
 3157TIP3    H1 9428   2.032   1.667   2.508
 3157TIP3    H2 9429   2.067   1.718   2.647
 3158TIP3   OH2 9430   1.145   0.029   2.612
 3158TIP3    H1 9431   1.228  -0.014   2.632
 3158TIP3    H2 9432   1.091   0.014   2.689
 3159TIP3   OH2 9433   6.839   0.092   2.229
 3159TIP3    H1 9434   6.855   0.119   2.138
 3159TIP3    H2 9435   6.809   0.171   2.273
 3160TIP3   OH2 9436   2.074   1.427   1.402
 3160TIP3    H1 9437   1.999   1.389   1.355
 3160TIP3    H2 9438   2.151   1.398   1.353
 3161TIP3   OH2 9439   0.066   6.814   0.328
 3161TIP3    H1 9440  -0.013   6.778   0.288
 3161TIP3    H2 9441   0.094   6.746   0.391
 3162TIP3   OH2 9442   3.135   6.468   2.171
 3162TIP3    H1 9443   3.209   6.426   2.129
 3162TIP3    H2 9444   3.092   6.398   2.221
 3163TIP3   OH2 9445   0.360   1.787   5.998
 3163TIP3    H1 9446   0.364   1.823   6.086
 3163TIP3    H2 9447   0.348   1.693   6.010
 3164TIP3   OH2 9448   7.686   7.446   5.009
 3164TIP3    H1 9449   7.777   7.439   5.040
 3164TIP3    H2 9450   7.683   7.392   4.930
 3165TIP3   OH2 9451   0.739   6.771   5.923
 3165TIP3    H1 9452   0.769   6.758   6.013
 3165TIP3    H2 9453   0.783   6.701   5.873
 3166TIP3   OH2 9454   0.376   1.853   6.273
 3166TIP3    H1 9455   0.336   1.785   6.327
 3166TIP3    H2 9456   0.315   1.927   6.279
 3167TIP3   OH2 9457   2.626   4.390   0.741
 3167TIP3    H1 9458   2.553   4.408   0.800
 3167TIP3    H2 9459   2.701   4.376   0.798
 3168TIP3   OH2 9460   2.498   0.514   0.953
 3168TIP3    H1 9461   2.447   0.479   1.026
 3168TIP3    H2 9462   2.479   0.455   0.880
 3169TIP3   OH2 9463   6.749   5.257   4.280
 3169TIP3    H1 9464   6.787   5.342   4.302
 3169TIP3    H2 9465   6.818   5.211   4.231
 3170TIP3   OH2 9466   2.386   1.392   5.282
 3170TIP3    H1 9467   2.365   1.406   5.374
 3170TIP3    H2 9468   2.452   1.459   5.262
 3171TIP3   OH2 9469   4.846   7.520   4.919
 3171TIP3    H1 9470   4.810   7.496   4.834
 3171TIP3    H2 9471   4.907   7.450   4.940
 3172TIP3   OH2 9472   7.950   1.669   5.594
 3172TIP3    H1 9473   7.914   1.597   5.646
 3172TIP3    H2 9474   8.005   1.625   5.529
 3173TIP3   OH2 9475   3.403   4.223   2.107
 3173TIP3    H1 9476   3.430   4.290   2.045
 3173TIP3    H2 9477   3.449   4.245   2.188
 3174TIP3   OH2 9478   6.468   7.238   0.519
 3174TIP3    H1 9479   6.464   7.243   0.424
 3174TIP3    H2 9480   6.484   7.145   0.538
 3175TIP3   OH2 9481   0.938   5.833   6.514
 3175TIP3    H1 9482   0.909   5.860   6.427
 3175TIP3    H2 9483   0.956   5.739   6.504
 3176TIP3   OH2 9484   1.932   2.042   5.444
 3176TIP3    H1 9485   1.974   2.049   5.359
 3176TIP3    H2 9486   1.860   1.979   5.430
 3177TIP3   OH2 9487   3.388   5.386   5.820
 3177TIP3    H1 9488   3.393   5.469   5.867
 3177TIP3    H2 9489   3.364   5.322   5.887
 3178TIP3   OH2 9490   7.326   1.747   6.333
 3178TIP3    H1 9491   7.236   1.730   6.305
 3178TIP3    H2 9492   7.346   1.833   6.297
 3179TIP3   OH2 9493   6.561   5.008   3.844
 3179TIP3    H1 9494   6.560   4.915   3.822
 3179TIP3    H2 9495   6.589   5.052   3.763
 3180TIP3   OH2 9496   3.079   5.569   5.873
 3180TIP3    H1 9497   3.084   5.493   5.932
 3180TIP3    H2 9498   3.036   5.637   5.925
 3181TIP3   OH2 9499   0.386   2.475   0.159
 3181TIP3    H1 9500   0.405   2.557   0.205
 3181TIP3    H2 9501   0.472   2.444   0.129
 3182TIP3   OH2 9502   1.230   4.868   4.399
 3182TIP3    H1 9503   1.197   4.785   4.435
 3182TIP3    H2 9504   1.219   4.858   4.304
 3183TIP3   OH2 9505   2.672   5.028   5.873
 3183TIP3    H1 9506   2.676   5.111   5.920
 3183TIP3    H2 9507   2.674   5.053   5.780
 3184TIP3   OH2 9508   0.202   1.657   1.240
 3184TIP3    H1 9509   0.188   1.604   1.162
 3184TIP3    H2 9510   0.285   1.627   1.275
 3185TIP3   OH2 9511   3.081   1.445   3.560
 3185TIP3    H1 9512   3.079   1.351   3.543
 3185TIP3    H2 9513   3.151   1.479   3.505
 3186TIP3   OH2 9514   0.989   3.476   4.316
 3186TIP3    H1 9515   0.899   3.444   4.307
 3186TIP3    H2 9516   0.999   3.541   4.245
 3187TIP3   OH2 9517   4.174   7.029   6.058
 3187TIP3    H1 9518   4.170   7.046   5.964
 3187TIP3    H2 9519   4.267   7.024   6.078
 3188TIP3   OH2 9520   0.522   5.040   5.061
 3188TIP3    H1 9521   0.528   5.114   5.121
 3188TIP3    H2 9522   0.593   5.054   4.998
 3189TIP3   OH2 9523   7.609   7.871   0.294
 3189TIP3    H1 9524   7.687   7.816   0.298
 3189TIP3    H2 9525   7.627   7.934   0.225
 3190TIP3   OH2 9526   0.104   6.982   5.000
 3190TIP3    H1 9527   0.143   7.046   5.060
 3190TIP3    H2 9528   0.036   6.939   5.052
 3191TIP3   OH2 9529   5.167   4.945   4.357
 3191TIP3    H1 9530   5.175   5.038   4.335
 3191TIP3    H2 9531   5.193   4.899   4.278
 3192TIP3   OH2 9532   4.832   0.144   3.675
 3192TIP3    H1 9533   4.858   0.139   3.583
 3192TIP3    H2 9534   4.840   0.055   3.708
 3193TIP3   OH2 9535   6.812   2.605   0.902
 3193TIP3    H1 9536   6.735   2.576   0.854
 3193TIP3    H2 9537   6.871   2.530   0.901
 3194TIP3   OH2 9538   4.628   6.382   2.626
 3194TIP3    H1 9539   4.618   6.476   2.612
 3194TIP3    H2 9540   4.718   6.364   2.602
 3195TIP3   OH2 9541   7.498   7.367   2.788
 3195TIP3    H1 9542   7.471   7.445   2.835
 3195TIP3    H2 9543   7.569   7.396   2.731
 3196TIP3   OH2 9544   0.830   3.504   2.159
 3196TIP3    H1 9545   0.797   3.457   2.236
 3196TIP3    H2 9546   0.925   3.488   2.160
 3197TIP3   OH2 9547   0.568   2.736   2.389
 3197TIP3    H1 9548   0.534   2.729   2.300
 3197TIP3    H2 9549   0.661   2.752   2.378
 3198TIP3   OH2 9550   3.995   4.732   1.164
 3198TIP3    H1 9551   3.924   4.677   1.198
 3198TIP3    H2 9552   4.023   4.785   1.239
 3199TIP3   OH2 9553   0.339   5.466   3.036
 3199TIP3    H1 9554   0.331   5.373   3.057
 3199TIP3    H2 9555   0.250   5.500   3.046
 3200TIP3   OH2 9556   6.396   2.902   1.599
 3200TIP3    H1 9557   6.421   2.836   1.663
 3200TIP3    H2 9558   6.445   2.878   1.520
 3201TIP3   OH2 9559   3.211   4.951   3.788
 3201TIP3    H1 9560   3.222   5.045   3.794
 3201TIP3    H2 9561   3.144   4.930   3.853
 3202TIP3   OH2 9562   3.267   7.094   4.194
 3202TIP3    H1 9563   3.240   7.166   4.136
 3202TIP3    H2 9564   3.291   7.023   4.135
 3203TIP3   OH2 9565   7.046   6.798   5.910
 3203TIP3    H1 9566   7.032   6.766   5.821
 3203TIP3    H2 9567   7.124   6.853   5.903
 3204TIP3   OH2 9568   7.038   0.336   0.033
 3204TIP3    H1 9569   7.125   0.302   0.054
 3204TIP3    H2 9570   7.011   0.285  -0.044
 3205TIP3   OH2 9571   4.583   0.829   3.614
 3205TIP3    H1 9572   4.527   0.820   3.536
 3205TIP3    H2 9573   4.647   0.758   3.605
 3206TIP3   OH2 9574   0.194   2.182   2.781
 3206TIP3    H1 9575   0.287   2.168   2.765
 3206TIP3    H2 9576   0.169   2.112   2.842
 3207TIP3   OH2 9577   6.263   3.123   1.542
 3207TIP3    H1 9578   6.259   3.090   1.452
 3207TIP3    H2 9579   6.313   3.057   1.590
 3208TIP3   OH2 9580   2.580   4.705   1.804
 3208TIP3    H1 9581   2.521   4.631   1.792
 3208TIP3    H2 9582   2.524   4.782   1.795
 3209TIP3   OH2 9583   6.957   2.458   2.135
 3209TIP3    H1 9584   7.045   2.419   2.137
 3209TIP3    H2 9585   6.898   2.387   2.158
 3210TIP3   OH2 9586   7.595   5.239   2.853
 3210TIP3    H1 9587   7.662   5.260   2.788
 3210TIP3    H2 9588   7.618   5.152   2.884
 3211TIP3   OH2 9589   4.478   1.886   2.818
 3211TIP3    H1 9590   4.439   1.933   2.892
 3211TIP3    H2 9591   4.433   1.802   2.816
 3212TIP3   OH2 9592   2.935   3.562   0.155
 3212TIP3    H1 9593   3.020   3.521   0.140
 3212TIP3    H2 9594   2.884   3.496   0.202
 3213TIP3   OH2 9595   2.969   6.149   1.854
 3213TIP3    H1 9596   2.893   6.142   1.911
 3213TIP3    H2 9597   3.025   6.076   1.880
 3214TIP3   OH2 9598   4.248   6.263   0.751
 3214TIP3    H1 9599   4.246   6.276   0.846
 3214TIP3    H2 9600   4.276   6.172   0.740
 3215TIP3   OH2 9601   3.417   3.857   5.668
 3215TIP3    H1 9602   3.388   3.777   5.712
 3215TIP3    H2 9603   3.488   3.828   5.610
 3216TIP3   OH2 9604   2.934   7.725   0.355
 3216TIP3    H1 9605   2.988   7.801   0.374
 3216TIP3    H2 9606   2.904   7.739   0.264
 3217TIP3   OH2 9607   1.492   6.216   4.460
 3217TIP3    H1 9608   1.485   6.136   4.511
 3217TIP3    H2 9609   1.567   6.263   4.498
 3218TIP3   OH2 9610   6.422   5.625   3.730
 3218TIP3    H1 9611   6.413   5.541   3.685
 3218TIP3    H2 9612   6.483   5.675   3.676
 3219TIP3   OH2 9613   4.582   5.331   2.028
 3219TIP3    H1 9614   4.586   5.341   2.123
 3219TIP3    H2 9615   4.641   5.398   1.994
 3220TIP3   OH2 9616   2.248   7.225   0.136
 3220TIP3    H1 9617   2.293   7.149   0.098
 3220TIP3    H2 9618   2.226   7.280   0.060
 3221TIP3   OH2 9619   2.765   2.618   3.209
 3221TIP3    H1 9620   2.840   2.558   3.211
 3221TIP3    H2 9621   2.734   2.620   3.299
 3222TIP3   OH2 9622   2.773   5.798   3.740
 3222TIP3    H1 9623   2.689   5.793   3.694
 3222TIP3    H2 9624   2.838   5.810   3.671
 3223TIP3   OH2 9625   3.994   5.347   1.299
 3223TIP3    H1 9626   4.020   5.370   1.389
 3223TIP3    H2 9627   3.921   5.286   1.311
 3224TIP3   OH2 9628   2.370   3.541   6.677
 3224TIP3    H1 9629   2.296   3.584   6.719
 3224TIP3    H2 9630   2.402   3.479   6.743
 3225TIP3   OH2 9631   1.274   0.530   0.942
 3225TIP3    H1 9632   1.193   0.574   0.917
 3225TIP3    H2 9633   1.254   0.437   0.935
 3226TIP3   OH2 9634   2.177   6.504   1.801
 3226TIP3    H1 9635   2.255   6.531   1.752
 3226TIP3    H2 9636   2.120   6.465   1.735
 3227TIP3   OH2 9637   5.292   1.346   0.088
 3227TIP3    H1 9638   5.314   1.260   0.123
 3227TIP3    H2 9639   5.361   1.366   0.025
 3228TIP3   OH2 9640   5.559   2.976   5.679
 3228TIP3    H1 9641   5.546   2.980   5.774
 3228TIP3    H2 9642   5.496   3.038   5.643
 3229TIP3   OH2 9643   1.376   7.610   2.124
 3229TIP3    H1 9644   1.447   7.586   2.065
 3229TIP3    H2 9645   1.417   7.619   2.210
 3230TIP3   OH2 9646   2.991   3.183   5.632
 3230TIP3    H1 9647   2.982   3.110   5.571
 3230TIP3    H2 9648   2.946   3.153   5.712
 3231TIP3   OH2 9649   5.983   0.966   0.893
 3231TIP3    H1 9650   5.935   1.007   0.964
 3231TIP3    H2 9651   5.930   0.983   0.815
 3232TIP3   OH2 9652   4.819   1.888   1.840
 3232TIP3    H1 9653   4.870   1.969   1.842
 3232TIP3    H2 9654   4.865   1.832   1.778
 3233TIP3   OH2 9655   0.223   2.442   2.477
 3233TIP3    H1 9656   0.205   2.520   2.530
 3233TIP3    H2 9657   0.242   2.476   2.390
 3234TIP3   OH2 9658   0.579   0.309   4.631
 3234TIP3    H1 9659   0.622   0.394   4.642
 3234TIP3    H2 9660   0.601   0.282   4.542
 3235TIP3   OH2 9661   4.147   1.583   4.875
 3235TIP3    H1 9662   4.164   1.542   4.960
 3235TIP3    H2 9663   4.108   1.668   4.897
 3236TIP3   OH2 9664   4.041   1.428   6.737
 3236TIP3    H1 9665   4.023   1.456   6.647
 3236TIP3    H2 9666   4.137   1.428   6.744
 3237TIP3   OH2 9667   3.069   0.050   0.439
 3237TIP3    H1 9668   2.980   0.027   0.410
 3237TIP3    H2 9669   3.090  -0.014   0.506
 3238TIP3   OH2 9670   5.472   5.685   4.657
 3238TIP3    H1 9671   5.549   5.737   4.679
 3238TIP3    H2 9672   5.410   5.704   4.728
 3239TIP3   OH2 9673   6.549   2.233   5.245
 3239TIP3    H1 9674   6.564   2.260   5.335
 3239TIP3    H2 9675   6.510   2.146   5.252
 3240TIP3   OH2 9676   7.218   5.070   3.004
 3240TIP3    H1 9677   7.304   5.027   3.009
 3240TIP3    H2 9678   7.173   5.025   2.933
 3241TIP3   OH2 9679   5.885   3.435   2.066
 3241TIP3    H1 9680   5.916   3.525   2.079
 3241TIP3    H2 9681   5.925   3.408   1.983
 3242TIP3   OH2 9682   1.869   2.487   4.631
 3242TIP3    H1 9683   1.866   2.574   4.672
 3242TIP3    H2 9684   1.851   2.426   4.702
 3243TIP3   OH2 9685   0.728   7.527   1.342
 3243TIP3    H1 9686   0.745   7.619   1.364
 3243TIP3    H2 9687   0.814   7.485   1.350
 3244TIP3   OH2 9688   2.072   6.495   3.221
 3244TIP3    H1 9689   2.078   6.591   3.224
 3244TIP3    H2 9690   2.056   6.469   3.312
 3245TIP3   OH2 9691   3.769   1.198   5.068
 3245TIP3    H1 9692   3.858   1.196   5.033
 3245TIP3    H2 9693   3.766   1.279   5.119
 3246TIP3   OH2 9694   0.194   7.077   0.316
 3246TIP3    H1 9695   0.114   7.126   0.299
 3246TIP3    H2 9696   0.165   6.989   0.341
 3247TIP3   OH2 9697   6.294   0.727   0.241
 3247TIP3    H1 9698   6.292   0.810   0.192
 3247TIP3    H2 9699   6.275   0.660   0.176
 3248TIP3   OH2 9700   6.002   3.630   4.172
 3248TIP3    H1 9701   6.053   3.598   4.097
 3248TIP3    H2 9702   6.051   3.705   4.205
 3249TIP3   OH2 9703   2.404   7.296   5.025
 3249TIP3    H1 9704   2.347   7.220   5.040
 3249TIP3    H2 9705   2.352   7.371   5.052
 3250TIP3   OH2 9706   2.982   7.425   0.097
 3250TIP3    H1 9707   3.016   7.342   0.132
 3250TIP3    H2 9708   3.047   7.490   0.123
 3251TIP3   OH2 9709   7.363   4.322   2.848
 3251TIP3    H1 9710   7.372   4.417   2.859
 3251TIP3    H2 9711   7.441   4.296   2.798
 3252TIP3   OH2 9712   7.051   0.068   2.416
 3252TIP3    H1 9713   6.977   0.051   2.357
 3252TIP3    H2 9714   7.044  -0.001   2.483
 3253TIP3   OH2 9715   3.394   4.221   2.881
 3253TIP3    H1 9716   3.469   4.236   2.938
 3253TIP3    H2 9717   3.372   4.129   2.894
 3254TIP3   OH2 9718   7.465   1.348   5.760
 3254TIP3    H1 9719   7.416   1.427   5.741
 3254TIP3    H2 9720   7.491   1.314   5.674
 3255TIP3   OH2 9721   6.663   1.649   3.462
 3255TIP3    H1 9722   6.603   1.575   3.460
 3255TIP3    H2 9723   6.661   1.678   3.554
 3256TIP3   OH2 9724   0.463   0.698   2.623
 3256TIP3    H1 9725   0.427   0.764   2.682
 3256TIP3    H2 9726   0.430   0.615   2.656
 3257TIP3   OH2 9727   8.225   4.474   3.558
 3257TIP3    H1 9728   8.280   4.521   3.496
 3257TIP3    H2 9729   8.250   4.382   3.547
 3258TIP3   OH2 9730   4.262   7.388   1.919
 3258TIP3    H1 9731   4.333   7.373   1.981
 3258TIP3    H2 9732   4.285   7.335   1.843
 3259TIP3   OH2 9733   4.261   4.231   3.246
 3259TIP3    H1 9734   4.325   4.160   3.241
 3259TIP3    H2 9735   4.239   4.236   3.339
 3260TIP3   OH2 9736   3.874   3.840   0.526
 3260TIP3    H1 9737   3.952   3.819   0.476
 3260TIP3    H2 9738   3.863   3.766   0.585
 3261TIP3   OH2 9739   0.592   1.929   2.701
 3261TIP3    H1 9740   0.573   1.874   2.777
 3261TIP3    H2 9741   0.580   1.872   2.626
 3262TIP3   OH2 9742   2.440   0.106   1.793
 3262TIP3    H1 9743   2.517   0.118   1.849
 3262TIP3    H2 9744   2.416   0.014   1.805
 3263TIP3   OH2 9745   6.633   5.468   2.174
 3263TIP3    H1 9746   6.677   5.508   2.099
 3263TIP3    H2 9747   6.592   5.389   2.138
 3264TIP3   OH2 9748   3.114   7.054   6.490
 3264TIP3    H1 9749   3.121   6.963   6.519
 3264TIP3    H2 9750   3.205   7.082   6.475
 3265TIP3   OH2 9751   8.220   3.275   4.256
 3265TIP3    H1 9752   8.315   3.271   4.253
 3265TIP3    H2 9753   8.200   3.362   4.291
 3266TIP3   OH2 9754   1.361   0.965   3.877
 3266TIP3    H1 9755   1.274   0.988   3.843
 3266TIP3    H2 9756   1.343   0.908   3.951
 3267TIP3   OH2 9757   0.401   3.023   2.328
 3267TIP3    H1 9758   0.447   3.036   2.245
 3267TIP3    H2 9759   0.309   3.015   2.304
 3268TIP3   OH2 9760   4.242   3.786   0.168
 3268TIP3    H1 9761   4.188   3.804   0.091
 3268TIP3    H2 9762   4.318   3.739   0.134
 3269TIP3   OH2 9763   4.976   5.668   0.819
 3269TIP3    H1 9764   5.008   5.585   0.855
 3269TIP3    H2 9765   5.004   5.734   0.882
 3270TIP3   OH2 9766   2.076   1.285   0.901
 3270TIP3    H1 9767   2.128   1.221   0.852
 3270TIP3    H2 9768   2.076   1.252   0.991
 3271TIP3   OH2 9769  -0.001   1.797   2.604
 3271TIP3    H1 9770   0.093   1.792   2.622
 3271TIP3    H2 9771  -0.010   1.869   2.542
 3272TIP3   OH2 9772   0.622   5.971   5.539
 3272TIP3    H1 9773   0.697   5.911   5.543
 3272TIP3    H2 9774   0.659   6.057   5.559
 3273TIP3   OH2 9775   8.205   1.772   4.752
 3273TIP3    H1 9776   8.297   1.750   4.742
 3273TIP3    H2 9777   8.161   1.725   4.682
 3274TIP3   OH2 9778   0.847   5.668   0.805
 3274TIP3    H1 9779   0.937   5.641   0.785
 3274TIP3    H2 9780   0.802   5.586   0.825
 3275TIP3   OH2 9781   3.526   1.612   1.704
 3275TIP3    H1 9782   3.537   1.608   1.609
 3275TIP3    H2 9783   3.522   1.520   1.732
 3276TIP3   OH2 9784   0.273   6.707   6.287
 3276TIP3    H1 9785   0.318   6.741   6.209
 3276TIP3    H2 9786   0.287   6.612   6.283
 3277TIP3   OH2 9787   1.632   1.029   2.290
 3277TIP3    H1 9788   1.577   0.994   2.221
 3277TIP3    H2 9789   1.654   1.118   2.261
 3278TIP3   OH2 9790   3.600   5.172   5.509
 3278TIP3    H1 9791   3.529   5.128   5.555
 3278TIP3    H2 9792   3.642   5.227   5.576
 3279TIP3   OH2 9793   5.771   0.675   6.315
 3279TIP3    H1 9794   5.688   0.655   6.358
 3279TIP3    H2 9795   5.787   0.767   6.334
 3280TIP3   OH2 9796   3.226   4.434   6.252
 3280TIP3    H1 9797   3.263   4.416   6.166
 3280TIP3    H2 9798   3.249   4.525   6.271
 3281TIP3   OH2 9799   4.256   7.229   0.083
 3281TIP3    H1 9800   4.338   7.253   0.127
 3281TIP3    H2 9801   4.283   7.202  -0.005
 3282TIP3   OH2 9802   2.376   2.634   3.810
 3282TIP3    H1 9803   2.455   2.596   3.770
 3282TIP3    H2 9804   2.360   2.578   3.886
 3283TIP3   OH2 9805   7.606   0.351   4.603
 3283TIP3    H1 9806   7.635   0.432   4.646
 3283TIP3    H2 9807   7.579   0.294   4.675
 3284TIP3   OH2 9808   5.560   6.343   5.243
 3284TIP3    H1 9809   5.584   6.401   5.171
 3284TIP3    H2 9810   5.464   6.340   5.241
 3285TIP3   OH2 9811   0.835   5.128   1.413
 3285TIP3    H1 9812   0.743   5.151   1.428
 3285TIP3    H2 9813   0.881   5.212   1.409
 3286TIP3   OH2 9814   6.617   4.301   2.719
 3286TIP3    H1 9815   6.564   4.352   2.658
 3286TIP3    H2 9816   6.707   4.319   2.693
 3287TIP3   OH2 9817   5.959   0.946   2.213
 3287TIP3    H1 9818   5.994   1.035   2.207
 3287TIP3    H2 9819   6.036   0.889   2.205
 3288TIP3   OH2 9820   4.221   5.465   2.348
 3288TIP3    H1 9821   4.129   5.489   2.350
 3288TIP3    H2 9822   4.223   5.380   2.305
 3289TIP3   OH2 9823   7.821   7.536   0.462
 3289TIP3    H1 9824   7.877   7.516   0.387
 3289TIP3    H2 9825   7.797   7.628   0.451
 3290TIP3   OH2 9826   7.150   0.791   1.492
 3290TIP3    H1 9827   7.116   0.831   1.571
 3290TIP3    H2 9828   7.203   0.859   1.450
 3291TIP3   OH2 9829   8.255   3.176   1.917
 3291TIP3    H1 9830   8.309   3.188   1.839
 3291TIP3    H2 9831   8.287   3.095   1.956
 3292TIP3   OH2 9832   1.076   5.929   3.510
 3292TIP3    H1 9833   1.097   5.943   3.417
 3292TIP3    H2 9834   0.999   5.873   3.509
 3293TIP3   OH2 9835   2.653   2.362   2.872
 3293TIP3    H1 9836   2.578   2.383   2.815
 3293TIP3    H2 9837   2.723   2.340   2.811
 3294TIP3   OH2 9838   2.857   6.339   5.753
 3294TIP3    H1 9839   2.785   6.398   5.773
 3294TIP3    H2 9840   2.932   6.375   5.802
 3295TIP3   OH2 9841   5.933   3.413   5.564
 3295TIP3    H1 9842   5.949   3.438   5.473
 3295TIP3    H2 9843   5.850   3.366   5.562
 3296TIP3   OH2 9844   7.608   0.184   6.718
 3296TIP3    H1 9845   7.647   0.231   6.645
 3296TIP3    H2 9846   7.680   0.170   6.780
 3297TIP3   OH2 9847   5.156   6.264   1.912
 3297TIP3    H1 9848   5.182   6.335   1.854
 3297TIP3    H2 9849   5.086   6.219   1.865
 3298TIP3   OH2 9850   4.731   6.031   1.343
 3298TIP3    H1 9851   4.660   6.023   1.280
 3298TIP3    H2 9852   4.809   5.999   1.298
 3299TIP3   OH2 9853   2.489   7.079   3.769
 3299TIP3    H1 9854   2.491   7.031   3.851
 3299TIP3    H2 9855   2.494   7.171   3.795
 3300TIP3   OH2 9856   2.134   6.122   2.738
 3300TIP3    H1 9857   2.178   6.095   2.819
 3300TIP3    H2 9858   2.094   6.207   2.760
 3301TIP3   OH2 9859   7.903   2.166   4.324
 3301TIP3    H1 9860   7.947   2.083   4.307
 3301TIP3    H2 9861   7.967   2.233   4.302
 3302TIP3   OH2 9862   1.806   3.905   5.545
 3302TIP3    H1 9863   1.766   3.849   5.612
 3302TIP3    H2 9864   1.785   3.861   5.462
 3303TIP3   OH2 9865   6.750   6.576   1.990
 3303TIP3    H1 9866   6.702   6.614   2.064
 3303TIP3    H2 9867   6.774   6.488   2.020
 3304TIP3   OH2 9868   4.453   6.198   1.824
 3304TIP3    H1 9869   4.416   6.213   1.911
 3304TIP3    H2 9870   4.378   6.186   1.767
 3305TIP3   OH2 9871   6.608   6.425   3.797
 3305TIP3    H1 9872   6.540   6.378   3.749
 3305TIP3    H2 9873   6.656   6.356   3.844
 3306TIP3   OH2 9874   1.433   0.561   6.082
 3306TIP3    H1 9875   1.450   0.638   6.137
 3306TIP3    H2 9876   1.498   0.497   6.110
 3307TIP3   OH2 9877   1.243   2.895   0.079
 3307TIP3    H1 9878   1.317   2.890   0.140
 3307TIP3    H2 9879   1.255   2.978   0.033
 3308TIP3   OH2 9880   7.194   6.027   4.728
 3308TIP3    H1 9881   7.165   6.115   4.749
 3308TIP3    H2 9882   7.265   6.009   4.789
 3309TIP3   OH2 9883   2.624   1.353   4.454
 3309TIP3    H1 9884   2.626   1.398   4.539
 3309TIP3    H2 9885   2.546   1.387   4.411
 3310TIP3   OH2 9886   4.619   7.380   4.123
 3310TIP3    H1 9887   4.566   7.378   4.203
 3310TIP3    H2 9888   4.661   7.294   4.120
 3311TIP3   OH2 9889   0.229   3.303   4.789
 3311TIP3    H1 9890   0.224   3.277   4.881
 3311TIP3    H2 9891   0.229   3.221   4.741
 3312TIP3   OH2 9892   8.017   1.923   5.607
 3312TIP3    H1 9893   8.036   1.836   5.573
 3312TIP3    H2 9894   8.081   1.937   5.677
 3313TIP3   OH2 9895   4.292   0.438   2.915
 3313TIP3    H1 9896   4.212   0.413   2.962
 3313TIP3    H2 9897   4.262   0.495   2.845
 3314TIP3   OH2 9898   7.898   0.082   4.558
 3314TIP3    H1 9899   7.968   0.132   4.600
 3314TIP3    H2 9900   7.930  -0.009   4.560
 3315TIP3   OH2 9901   6.351   7.099   2.024
 3315TIP3    H1 9902   6.416   7.132   1.962
 3315TIP3    H2 9903   6.284   7.167   2.027
 3316TIP3   OH2 9904   4.971   5.746   1.932
 3316TIP3    H1 9905   4.962   5.691   2.009
 3316TIP3    H2 9906   4.884   5.784   1.918
 3317TIP3   OH2 9907   5.278   0.619   1.654
 3317TIP3    H1 9908   5.241   0.707   1.664
 3317TIP3    H2 9909   5.203   0.565   1.626
 3318TIP3   OH2 9910   2.865   3.982   5.711
 3318TIP3    H1 9911   2.855   3.889   5.728
 3318TIP3    H2 9912   2.784   4.021   5.743
 3319TIP3   OH2 9913   2.614   3.577   0.639
 3319TIP3    H1 9914   2.663   3.638   0.694
 3319TIP3    H2 9915   2.601   3.624   0.557
 3320TIP3   OH2 9916   4.019   4.706   6.778
 3320TIP3    H1 9917   4.099   4.657   6.759
 3320TIP3    H2 9918   3.980   4.659   6.852
 3321TIP3   OH2 9919   2.069   0.899   6.052
 3321TIP3    H1 9920   2.007   0.851   5.996
 3321TIP3    H2 9921   2.090   0.978   6.002
 3322TIP3   OH2 9922   3.389   5.290   0.834
 3322TIP3    H1 9923   3.468   5.324   0.793
 3322TIP3    H2 9924   3.328   5.277   0.761
 3323TIP3   OH2 9925   8.000   5.635   6.413
 3323TIP3    H1 9926   7.926   5.656   6.470
 3323TIP3    H2 9927   7.962   5.586   6.340
 3324TIP3   OH2 9928   0.895   5.114   3.043
 3324TIP3    H1 9929   0.819   5.128   3.100
 3324TIP3    H2 9930   0.958   5.180   3.070
 3325TIP3   OH2 9931   1.241   4.067   4.635
 3325TIP3    H1 9932   1.230   4.136   4.700
 3325TIP3    H2 9933   1.321   4.021   4.662
 3326TIP3   OH2 9934   0.028   5.728   0.062
 3326TIP3    H1 9935   0.037   5.638   0.091
 3326TIP3    H2 9936   0.094   5.777   0.112
 3327TIP3   OH2 9937   6.062   3.604   1.773
 3327TIP3    H1 9938   6.147   3.600   1.816
 3327TIP3    H2 9939   6.027   3.515   1.781
 3328TIP3   OH2 9940   0.850   7.713   5.635
 3328TIP3    H1 9941   0.862   7.663   5.715
 3328TIP3    H2 9942   0.867   7.803   5.660
 3329TIP3   OH2 9943   3.494   0.595   0.109
 3329TIP3    H1 9944   3.544   0.588   0.190
 3329TIP3    H2 9945   3.487   0.505   0.077
 3330TIP3   OH2 9946   4.575   2.629   6.305
 3330TIP3    H1 9947   4.632   2.705   6.314
 3330TIP3    H2 9948   4.631   2.562   6.266
 3331TIP3   OH2 9949   4.487   7.838   0.789
 3331TIP3    H1 9950   4.458   7.789   0.712
 3331TIP3    H2 9951   4.581   7.850   0.777
 3332TIP3   OH2 9952   6.062   7.663   4.315
 3332TIP3    H1 9953   5.991   7.599   4.311
 3332TIP3    H2 9954   6.038   7.721   4.387
 3333TIP3   OH2 9955   4.324   2.805   1.545
 3333TIP3    H1 9956   4.342   2.716   1.574
 3333TIP3    H2 9957   4.238   2.826   1.583
 3334TIP3   OH2 9958   2.113   0.706   2.566
 3334TIP3    H1 9959   2.091   0.796   2.539
 3334TIP3    H2 9960   2.164   0.671   2.493
 3335TIP3   OH2 9961   0.982   5.557   3.420
 3335TIP3    H1 9962   0.942   5.492   3.362
 3335TIP3    H2 9963   0.911   5.617   3.442
 3336TIP3   OH2 9964   2.878   3.422   5.355
 3336TIP3    H1 9965   2.848   3.341   5.395
 3336TIP3    H2 9966   2.892   3.482   5.428
 3337TIP3   OH2 9967   1.834   1.644   1.154
 3337TIP3    H1 9968   1.876   1.730   1.158
 3337TIP3    H2 9969   1.881   1.598   1.085
 3338TIP3   OH2 9970   5.949   6.717   1.830
 3338TIP3    H1 9971   6.001   6.794   1.807
 3338TIP3    H2 9972   6.004   6.666   1.889
 3339TIP3   OH2 9973   0.152   7.735   0.136
 3339TIP3    H1 9974   0.149   7.821   0.095
 3339TIP3    H2 9975   0.107   7.747   0.220
 3340TIP3   OH2 9976   1.366   6.660   3.839
 3340TIP3    H1 9977   1.291   6.693   3.890
 3340TIP3    H2 9978   1.329   6.591   3.785
 3341TIP3   OH2 9979   7.636   0.541   6.409
 3341TIP3    H1 9980   7.628   0.560   6.316
 3341TIP3    H2 9981   7.685   0.615   6.445
 3342TIP3   OH2 9982   7.912   3.298   1.674
 3342TIP3    H1 9983   7.960   3.361   1.726
 3342TIP3    H2 9984   7.869   3.241   1.738
 3343TIP3   OH2 9985   8.044   3.723   2.202
 3343TIP3    H1 9986   8.022   3.761   2.117
 3343TIP3    H2 9987   7.960   3.712   2.246
 3344TIP3   OH2 9988   3.419   4.391   3.370
 3344TIP3    H1 9989   3.417   4.394   3.466
 3344TIP3    H2 9990   3.348   4.332   3.347
 3345TIP3   OH2 9991   7.232   1.663   0.173
 3345TIP3    H1 9992   7.199   1.731   0.113
 3345TIP3    H2 9993   7.164   1.597   0.174
 3346TIP3   OH2 9994   5.112   5.159   3.300
 3346TIP3    H1 9995   5.124   5.150   3.206
 3346TIP3    H2 9996   5.036   5.216   3.309
 3347TIP3   OH2 9997   2.110   5.165   1.915
 3347TIP3    H1 9998   2.081   5.149   2.005
 3347TIP3    H2 9999   2.191   5.215   1.924
 3348TIP3   OH210000   2.454   4.527   5.414
 3348TIP3    H110001   2.524   4.537   5.479
 3348TIP3    H210002   2.453   4.433   5.394
 3349TIP3   OH210003   6.135   4.427   1.869
 3349TIP3    H110004   6.099   4.487   1.805
 3349TIP3    H210005   6.084   4.442   1.948
 3350TIP3   OH210006   7.715   4.081   4.245
 3350TIP3    H110007   7.740   4.142   4.314
 3350TIP3    H210008   7.789   4.020   4.239
 3351TIP3   OH210009   5.520   1.674   3.660
 3351TIP3    H110010   5.504   1.610   3.728
 3351TIP3    H210011   5.445   1.733   3.662
 3352TIP3   OH210012   7.175   2.541   4.654
 3352TIP3    H110013   7.210   2.595   4.584
 3352TIP3    H210014   7.210   2.580   4.735
 3353TIP3   OH210015   2.609   0.965   2.644
 3353TIP3    H110016   2.558   1.016   2.580
 3353TIP3    H210017   2.649   1.031   2.701
 3354TIP3   OH210018   4.468   7.540   3.537
 3354TIP3    H110019   4.408   7.517   3.466
 3354TIP3    H210020   4.459   7.469   3.601
 3355TIP3   OH210021   0.447   7.407   2.476
 3355TIP3    H110022   0.535   7.407   2.440
 3355TIP3    H210023   0.458   7.381   2.568
 3356TIP3   OH210024   7.752   1.288   2.296
 3356TIP3    H110025   7.796   1.213   2.336
 3356TIP3    H210026   7.694   1.249   2.230
 3357TIP3   OH210027   6.686   0.644   2.760
 3357TIP3    H110028   6.769   0.690   2.767
 3357TIP3    H210029   6.704   0.571   2.701
 3358TIP3   OH210030   5.935   1.273   1.190
 3358TIP3    H110031   5.997   1.242   1.256
 3358TIP3    H210032   5.986   1.333   1.136
 3359TIP3   OH210033   0.516   5.551   4.923
 3359TIP3    H110034   0.490   5.533   5.013
 3359TIP3    H210035   0.576   5.626   4.930
 3360TIP3   OH210036   6.901   0.858   6.110
 3360TIP3    H110037   6.846   0.918   6.058
 3360TIP3    H210038   6.844   0.829   6.181
 3361TIP3   OH210039   1.912   0.991   2.320
 3361TIP3    H110040   1.930   1.068   2.373
 3361TIP3    H210041   1.816   0.986   2.317
 3362TIP3   OH210042   2.156   2.675   0.700
 3362TIP3    H110043   2.175   2.701   0.790
 3362TIP3    H210044   2.236   2.633   0.669
 3363TIP3   OH210045   7.968   1.311   1.455
 3363TIP3    H110046   8.007   1.288   1.539
 3363TIP3    H210047   8.014   1.391   1.428
 3364TIP3   OH210048   7.464   1.851   1.458
 3364TIP3    H110049   7.479   1.768   1.414
 3364TIP3    H210050   7.392   1.891   1.410
 3365TIP3   OH210051   2.153   2.391   5.294
 3365TIP3    H110052   2.097   2.469   5.289
 3365TIP3    H210053   2.210   2.407   5.369
 3366TIP3   OH210054   5.629   7.204   2.739
 3366TIP3    H110055   5.712   7.185   2.782
 3366TIP3    H210056   5.562   7.180   2.804
 3367TIP3   OH210057   6.359   7.535   6.497
 3367TIP3    H110058   6.352   7.445   6.529
 3367TIP3    H210059   6.424   7.531   6.427
 3368TIP3   OH210060   2.825   4.251   0.025
 3368TIP3    H110061   2.756   4.192  -0.005
 3368TIP3    H210062   2.884   4.195   0.075
 3369TIP3   OH210063   6.901   7.695   6.205
 3369TIP3    H110064   6.848   7.762   6.162
 3369TIP3    H210065   6.866   7.612   6.172
 3370TIP3   OH210066   5.946   2.607   0.327
 3370TIP3    H110067   5.960   2.513   0.314
 3370TIP3    H210068   6.023   2.636   0.376
 3371TIP3   OH210069   5.953   2.294   6.568
 3371TIP3    H110070   6.009   2.228   6.610
 3371TIP3    H210071   5.938   2.259   6.480
 3372TIP3   OH210072   1.562   2.116   0.826
 3372TIP3    H110073   1.488   2.107   0.766
 3372TIP3    H210074   1.596   2.027   0.836
 3373TIP3   OH210075   4.611   5.902   5.954
 3373TIP3    H110076   4.614   5.963   5.880
 3373TIP3    H210077   4.656   5.824   5.922
 3374TIP3   OH210078   4.061   0.737   4.327
 3374TIP3    H110079   3.980   0.786   4.310
 3374TIP3    H210080   4.099   0.781   4.403
 3375TIP3   OH210081   5.348   5.967   3.546
 3375TIP3    H110082   5.316   6.034   3.606
 3375TIP3    H210083   5.274   5.950   3.487
 3376TIP3   OH210084   4.240   1.098   3.245
 3376TIP3    H110085   4.268   1.178   3.289
 3376TIP3    H210086   4.310   1.078   3.183
 3377TIP3   OH210087   5.794   3.879   1.457
 3377TIP3    H110088   5.841   3.961   1.474
 3377TIP3    H210089   5.861   3.811   1.464
 3378TIP3   OH210090   5.919   2.449   3.592
 3378TIP3    H110091   5.905   2.445   3.497
 3378TIP3    H210092   5.856   2.515   3.622
 3379TIP3   OH210093   6.450   4.140   0.325
 3379TIP3    H110094   6.520   4.075   0.332
 3379TIP3    H210095   6.449   4.163   0.232
 3380TIP3   OH210096   1.676   3.429   6.434
 3380TIP3    H110097   1.757   3.393   6.399
 3380TIP3    H210098   1.658   3.376   6.512
 3381TIP3   OH210099   1.736   3.467   3.812
 3381TIP3    H110100   1.677   3.396   3.840
 3381TIP3    H210101   1.824   3.434   3.831
 3382TIP3   OH210102   3.644   5.004   1.497
 3382TIP3    H110103   3.564   4.989   1.448
 3382TIP3    H210104   3.663   5.097   1.483
 3383TIP3   OH210105   4.563   6.473   2.238
 3383TIP3    H110106   4.617   6.550   2.222
 3383TIP3    H210107   4.510   6.496   2.315
 3384TIP3   OH210108   4.209   5.520   3.253
 3384TIP3    H110109   4.209   5.614   3.272
 3384TIP3    H210110   4.268   5.482   3.318
 3385TIP3   OH210111   5.977   5.807   4.252
 3385TIP3    H110112   5.892   5.812   4.296
 3385TIP3    H210113   6.038   5.849   4.311
 3386TIP3   OH210114   4.095   7.585   5.694
 3386TIP3    H110115   4.165   7.585   5.759
 3386TIP3    H210116   4.127   7.641   5.624
 3387TIP3   OH210117   6.147   4.138   3.966
 3387TIP3    H110118   6.140   4.218   3.914
 3387TIP3    H210119   6.191   4.076   3.908
 3388TIP3   OH210120   2.734   1.815   1.208
 3388TIP3    H110121   2.769   1.747   1.266
 3388TIP3    H210122   2.808   1.839   1.152
 3389TIP3   OH210123   4.600   6.454   0.196
 3389TIP3    H110124   4.531   6.388   0.191
 3389TIP3    H210125   4.674   6.408   0.237
 3390TIP3   OH210126   1.371   0.099   2.049
 3390TIP3    H110127   1.360   0.018   2.097
 3390TIP3    H210128   1.296   0.153   2.074
 3391TIP3   OH210129   4.561   6.755   3.974
 3391TIP3    H110130   4.517   6.710   4.047
 3391TIP3    H210131   4.619   6.690   3.936
 3392TIP3   OH210132   3.801   1.486   1.992
 3392TIP3    H110133   3.748   1.537   1.931
 3392TIP3    H210134   3.849   1.552   2.043
 3393TIP3   OH210135   1.454   6.151   6.192
 3393TIP3    H110136   1.416   6.222   6.245
 3393TIP3    H210137   1.385   6.130   6.129
 3394TIP3   OH210138   6.816   1.461   1.916
 3394TIP3    H110139   6.896   1.485   1.869
 3394TIP3    H210140   6.797   1.537   1.971
 3395TIP3   OH210141   2.085   5.029   3.694
 3395TIP3    H110142   2.001   5.019   3.739
 3395TIP3    H210143   2.062   5.066   3.609
 3396TIP3   OH210144   5.986   3.704   2.152
 3396TIP3    H110145   5.972   3.720   2.245
 3396TIP3    H210146   6.070   3.745   2.133
 3397TIP3   OH210147   7.913   2.088   6.455
 3397TIP3    H110148   7.845   2.027   6.483
 3397TIP3    H210149   7.974   2.035   6.404
 3398TIP3   OH210150   5.304   4.044   4.655
 3398TIP3    H110151   5.364   4.119   4.649
 3398TIP3    H210152   5.306   4.019   4.748
 3399TIP3   OH210153   4.574   4.597   1.146
 3399TIP3    H110154   4.570   4.682   1.102
 3399TIP3    H210155   4.640   4.608   1.213
 3400TIP3   OH210156   3.850   2.575   1.117
 3400TIP3    H110157   3.824   2.662   1.088
 3400TIP3    H210158   3.918   2.549   1.055
 3401TIP3   OH210159   2.672   5.955   3.487
 3401TIP3    H110160   2.606   6.018   3.459
 3401TIP3    H210161   2.755   6.001   3.479
 3402TIP3   OH210162   6.826   4.866   4.506
 3402TIP3    H110163   6.911   4.859   4.549
 3402TIP3    H210164   6.847   4.886   4.415
 3403TIP3   OH210165   6.252   5.936   3.430
 3403TIP3    H110166   6.288   5.880   3.361
 3403TIP3    H210167   6.158   5.914   3.431
 3404TIP3   OH210168   1.552   0.689   5.160
 3404TIP3    H110169   1.591   0.619   5.108
 3404TIP3    H210170   1.594   0.769   5.128
 3405TIP3   OH210171   5.040   5.267   4.305
 3405TIP3    H110172   5.038   5.362   4.312
 3405TIP3    H210173   4.999   5.236   4.385
 3406TIP3   OH210174   5.171   4.772   0.593
 3406TIP3    H110175   5.262   4.801   0.586
 3406TIP3    H210176   5.153   4.773   0.686
 3407TIP3   OH210177   6.104   0.561   1.398
 3407TIP3    H110178   6.160   0.577   1.473
 3407TIP3    H210179   6.032   0.623   1.408
 3408TIP3   OH210180   5.700   6.727   0.608
 3408TIP3    H110181   5.764   6.728   0.680
 3408TIP3    H210182   5.651   6.646   0.621
 3409TIP3   OH210183   5.069   0.485   5.481
 3409TIP3    H110184   5.037   0.563   5.527
 3409TIP3    H210185   5.005   0.417   5.501
 3410TIP3   OH210186   7.090   5.208   1.555
 3410TIP3    H110187   7.021   5.143   1.566
 3410TIP3    H210188   7.054   5.271   1.491
 3411TIP3   OH210189   3.457   7.001   5.323
 3411TIP3    H110190   3.514   6.946   5.376
 3411TIP3    H210191   3.484   6.983   5.233
 3412TIP3   OH210192   6.217   7.180   1.680
 3412TIP3    H110193   6.303   7.176   1.722
 3412TIP3    H210194   6.190   7.271   1.690
 3413TIP3   OH210195   3.517   7.609   3.770
 3413TIP3    H110196   3.585   7.675   3.754
 3413TIP3    H210197   3.558   7.526   3.745
 3414TIP3   OH210198   0.091   0.481   5.508
 3414TIP3    H110199   0.013   0.529   5.479
 3414TIP3    H210200   0.090   0.400   5.457
 3415TIP3   OH210201   3.193   2.915   2.548
 3415TIP3    H110202   3.170   2.927   2.640
 3415TIP3    H210203   3.173   2.824   2.530
 3416TIP3   OH210204   0.768   6.590   2.376
 3416TIP3    H110205   0.687   6.577   2.425
 3416TIP3    H210206   0.741   6.596   2.285
 3417TIP3   OH210207   8.135   7.010   3.584
 3417TIP3    H110208   8.098   7.000   3.671
 3417TIP3    H210209   8.178   6.927   3.565
 3418TIP3   OH210210   5.595   7.310   0.053
 3418TIP3    H110211   5.664   7.258   0.010
 3418TIP3    H210212   5.608   7.293   0.146
 3419TIP3   OH210213   2.011   7.778   6.567
 3419TIP3    H110214   1.984   7.714   6.633
 3419TIP3    H210215   2.027   7.726   6.488
 3420TIP3   OH210216   2.698   2.303   3.313
 3420TIP3    H110217   2.670   2.238   3.248
 3420TIP3    H210218   2.619   2.352   3.334
 3421TIP3   OH210219   0.163   0.808   6.598
 3421TIP3    H110220   0.163   0.861   6.678
 3421TIP3    H210221   0.124   0.725   6.625
 3422TIP3   OH210222   7.513   7.427   2.264
 3422TIP3    H110223   7.575   7.433   2.191
 3422TIP3    H210224   7.467   7.510   2.263
 3423TIP3   OH210225   0.153   2.614   4.620
 3423TIP3    H110226   0.210   2.593   4.695
 3423TIP3    H210227   0.213   2.640   4.550
 3424TIP3   OH210228   4.120   3.194   5.872
 3424TIP3    H110229   4.030   3.163   5.881
 3424TIP3    H210230   4.146   3.167   5.784
 3425TIP3   OH210231   0.124   5.191   4.812
 3425TIP3    H110232   0.089   5.234   4.734
 3425TIP3    H210233   0.130   5.262   4.877
 3426TIP3   OH210234   2.510   0.573   1.980
 3426TIP3    H110235   2.430   0.585   2.032
 3426TIP3    H210236   2.563   0.514   2.033
 3427TIP3   OH210237   0.888   1.596   4.499
 3427TIP3    H110238   0.866   1.609   4.407
 3427TIP3    H210239   0.832   1.658   4.546
 3428TIP3   OH210240   6.054   4.441   5.096
 3428TIP3    H110241   6.067   4.353   5.133
 3428TIP3    H210242   6.142   4.468   5.068
 3429TIP3   OH210243   0.734   6.547   4.443
 3429TIP3    H110244   0.680   6.533   4.365
 3429TIP3    H210245   0.740   6.461   4.484
 3430TIP3   OH210246   2.824   0.113   0.750
 3430TIP3    H110247   2.889   0.101   0.819
 3430TIP3    H210248   2.876   0.135   0.672
 3431TIP3   OH210249   6.404   6.033   3.620
 3431TIP3    H110250   6.374   5.976   3.690
 3431TIP3    H210251   6.339   6.023   3.550
 3432TIP3   OH210252   2.146   7.047   6.696
 3432TIP3    H110253   2.115   7.135   6.716
 3432TIP3    H210254   2.225   7.060   6.643
 3433TIP3   OH210255   4.882   4.569   3.546
 3433TIP3    H110256   4.929   4.535   3.623
 3433TIP3    H210257   4.852   4.656   3.572
 3434TIP3   OH210258   3.658   5.328   0.703
 3434TIP3    H110259   3.661   5.282   0.619
 3434TIP3    H210260   3.649   5.258   0.768
 3435TIP3   OH210261   3.192   5.864   1.931
 3435TIP3    H110262   3.241   5.869   1.849
 3435TIP3    H210263   3.223   5.783   1.972
 3436TIP3   OH210264   7.669   5.750   0.185
 3436TIP3    H110265   7.623   5.679   0.141
 3436TIP3    H210266   7.609   5.779   0.253
 3437TIP3   OH210267   6.110   6.736   3.858
 3437TIP3    H110268   6.117   6.754   3.952
 3437TIP3    H210269   6.136   6.644   3.849
 3438TIP3   OH210270   3.647   5.370   5.694
 3438TIP3    H110271   3.554   5.361   5.713
 3438TIP3    H210272   3.690   5.335   5.772
 3439TIP3   OH210273   0.230   6.862   0.028
 3439TIP3    H110274   0.207   6.862   0.121
 3439TIP3    H210275   0.299   6.797   0.020
 3440TIP3   OH210276   4.413   7.685   0.572
 3440TIP3    H110277   4.483   7.659   0.511
 3440TIP3    H210278   4.339   7.705   0.516
 3441TIP3   OH210279   1.707   3.152   2.858
 3441TIP3    H110280   1.733   3.110   2.940
 3441TIP3    H210281   1.675   3.238   2.884
 3442TIP3   OH210282   8.143   1.547   2.109
 3442TIP3    H110283   8.124   1.581   2.022
 3442TIP3    H210284   8.238   1.545   2.114
 3443TIP3   OH210285   2.293   7.245   0.525
 3443TIP3    H110286   2.387   7.261   0.514
 3443TIP3    H210287   2.269   7.191   0.450
 3444TIP3   OH210288   3.282   5.345   0.275
 3444TIP3    H110289   3.221   5.286   0.319
 3444TIP3    H210290   3.227   5.391   0.211
 3445TIP3   OH210291   2.850   4.963   3.553
 3445TIP3    H110292   2.812   5.005   3.476
 3445TIP3    H210293   2.821   5.017   3.627
 3446TIP3   OH210294   1.238   6.117   6.492
 3446TIP3    H110295   1.164   6.103   6.551
 3446TIP3    H210296   1.200   6.121   6.405
 3447TIP3   OH210297   4.332   2.464   1.010
 3447TIP3    H110298   4.261   2.527   1.001
 3447TIP3    H210299   4.371   2.458   0.923
 3448TIP3   OH210300   4.267   7.055   1.352
 3448TIP3    H110301   4.300   7.101   1.275
 3448TIP3    H210302   4.236   6.971   1.318
 3449TIP3   OH210303   0.125   7.010   4.199
 3449TIP3    H110304   0.128   6.935   4.258
 3449TIP3    H210305   0.193   6.992   4.134
 3450TIP3   OH210306   8.105   7.502   2.844
 3450TIP3    H110307   8.098   7.515   2.939
 3450TIP3    H210308   8.020   7.467   2.818
 3451TIP3   OH210309   3.987   1.275   3.292
 3451TIP3    H110310   3.983   1.274   3.196
 3451TIP3    H210311   4.034   1.356   3.313
 3452TIP3   OH210312   7.619   4.980   1.165
 3452TIP3    H110313   7.545   4.924   1.187
 3452TIP3    H210314   7.598   5.015   1.078
 3453TIP3   OH210315   7.834   1.426   3.164
 3453TIP3    H110316   7.888   1.464   3.233
 3453TIP3    H210317   7.750   1.473   3.170
 3454TIP3   OH210318   1.311   3.630   3.878
 3454TIP3    H110319   1.397   3.672   3.876
 3454TIP3    H210320   1.260   3.676   3.812
 3455TIP3   OH210321   1.576   3.687   3.807
 3455TIP3    H110322   1.618   3.601   3.797
 3455TIP3    H210323   1.640   3.741   3.852
 3456TIP3   OH210324   2.905   6.463   2.386
 3456TIP3    H110325   2.952   6.537   2.424
 3456TIP3    H210326   2.972   6.396   2.371
 3457TIP3   OH210327   5.863   0.971   6.124
 3457TIP3    H110328   5.826   1.012   6.046
 3457TIP3    H210329   5.956   0.994   6.121
 3458TIP3   OH210330   0.896   2.183   1.017
 3458TIP3    H110331   0.828   2.228   0.966
 3458TIP3    H210332   0.930   2.116   0.959
 3459TIP3   OH210333   7.155   7.159   1.259
 3459TIP3    H110334   7.228   7.161   1.197
 3459TIP3    H210335   7.137   7.252   1.276
 3460TIP3   OH210336   0.732   6.907   5.370
 3460TIP3    H110337   0.737   6.976   5.304
 3460TIP3    H210338   0.770   6.830   5.327
 3461TIP3   OH210339   7.936   6.789   2.649
 3461TIP3    H110340   7.840   6.786   2.657
 3461TIP3    H210341   7.952   6.838   2.569
 3462TIP3   OH210342   2.607   4.746   3.426
 3462TIP3    H110343   2.642   4.709   3.345
 3462TIP3    H210344   2.585   4.669   3.479
 3463TIP3   OH210345   3.235   4.680   2.129
 3463TIP3    H110346   3.331   4.677   2.131
 3463TIP3    H210347   3.208   4.635   2.209
 3464TIP3   OH210348   2.135   2.103   1.344
 3464TIP3    H110349   2.201   2.148   1.292
 3464TIP3    H210350   2.083   2.054   1.280
 3465TIP3   OH210351   1.186   7.416   0.951
 3465TIP3    H110352   1.177   7.445   0.861
 3465TIP3    H210353   1.151   7.488   1.003
 3466TIP3   OH210354   3.025   5.658   5.338
 3466TIP3    H110355   2.981   5.597   5.278
 3466TIP3    H210356   2.980   5.646   5.422
 3467TIP3   OH210357   0.982   2.621   3.776
 3467TIP3    H110358   0.906   2.619   3.718
 3467TIP3    H210359   1.010   2.529   3.782
 3468TIP3   OH210360   5.533   5.630   5.502
 3468TIP3    H110361   5.439   5.648   5.492
 3468TIP3    H210362   5.546   5.624   5.596
 3469TIP3   OH210363   0.263   7.665   1.360
 3469TIP3    H110364   0.196   7.636   1.421
 3469TIP3    H210365   0.222   7.733   1.308
 3470TIP3   OH210366   6.135   5.617   0.917
 3470TIP3    H110367   6.124   5.683   0.986
 3470TIP3    H210368   6.210   5.649   0.865
 3471TIP3   OH210369   2.182   7.357   0.921
 3471TIP3    H110370   2.096   7.383   0.955
 3471TIP3    H210371   2.214   7.434   0.875
 3472TIP3   OH210372   4.397   3.800   6.071
 3472TIP3    H110373   4.363   3.725   6.120
 3472TIP3    H210374   4.350   3.797   5.988
 3473TIP3   OH210375   5.111   2.110   2.140
 3473TIP3    H110376   5.184   2.160   2.174
 3473TIP3    H210377   5.087   2.051   2.210
 3474TIP3   OH210378   4.688   3.975   5.472
 3474TIP3    H110379   4.768   4.029   5.472
 3474TIP3    H210380   4.703   3.909   5.405
 3475TIP3   OH210381   3.857   4.163   0.542
 3475TIP3    H110382   3.784   4.165   0.604
 3475TIP3    H210383   3.839   4.088   0.486
 3476TIP3   OH210384   0.876   7.390   6.088
 3476TIP3    H110385   0.797   7.420   6.043
 3476TIP3    H210386   0.850   7.308   6.129
 3477TIP3   OH210387   0.831   0.489   3.915
 3477TIP3    H110388   0.736   0.487   3.902
 3477TIP3    H210389   0.857   0.397   3.914
 3478TIP3   OH210390   0.201   0.546   5.767
 3478TIP3    H110391   0.207   0.537   5.672
 3478TIP3    H210392   0.107   0.549   5.784
 3479TIP3   OH210393   6.078   1.348   3.630
 3479TIP3    H110394   6.030   1.266   3.619
 3479TIP3    H210395   6.011   1.412   3.653
 3480TIP3   OH210396   2.507   2.867   4.608
 3480TIP3    H110397   2.481   2.951   4.645
 3480TIP3    H210398   2.602   2.865   4.619
 3481TIP3   OH210399   5.858   6.727   2.780
 3481TIP3    H110400   5.797   6.800   2.778
 3481TIP3    H210401   5.802   6.649   2.786
 3482TIP3   OH210402   5.770   1.320   3.729
 3482TIP3    H110403   5.718   1.271   3.794
 3482TIP3    H210404   5.796   1.400   3.775
 3483TIP3   OH210405   2.445   1.940   1.160
 3483TIP3    H110406   2.388   1.940   1.237
 3483TIP3    H210407   2.496   1.860   1.168
 3484TIP3   OH210408   1.679   5.508   4.670
 3484TIP3    H110409   1.753   5.536   4.616
 3484TIP3    H210410   1.635   5.441   4.618
 3485TIP3   OH210411   4.777   5.374   2.528
 3485TIP3    H110412   4.714   5.439   2.559
 3485TIP3    H210413   4.774   5.304   2.593
 3486TIP3   OH210414   2.359   2.868   4.088
 3486TIP3    H110415   2.379   2.901   4.176
 3486TIP3    H210416   2.267   2.845   4.091
 3487TIP3   OH210417   0.665   0.159   5.264
 3487TIP3    H110418   0.627   0.233   5.310
 3487TIP3    H210419   0.594   0.123   5.212
 3488TIP3   OH210420   5.805   0.462   4.138
 3488TIP3    H110421   5.731   0.451   4.198
 3488TIP3    H210422   5.876   0.410   4.177
 3489TIP3   OH210423   3.004   7.360   0.695
 3489TIP3    H110424   2.987   7.404   0.778
 3489TIP3    H210425   3.065   7.289   0.718
 3490TIP3   OH210426   2.604   1.349   1.155
 3490TIP3    H110427   2.555   1.308   1.084
 3490TIP3    H210428   2.696   1.333   1.133
 3491TIP3   OH210429   1.482   1.248   0.136
 3491TIP3    H110430   1.444   1.176   0.085
 3491TIP3    H210431   1.519   1.207   0.213
 3492TIP3   OH210432   5.439   2.925   0.839
 3492TIP3    H110433   5.533   2.940   0.845
 3492TIP3    H210434   5.401   3.013   0.835
 3493TIP3   OH210435   5.745   5.321   2.196
 3493TIP3    H110436   5.738   5.276   2.112
 3493TIP3    H210437   5.839   5.336   2.208
 3494TIP3   OH210438   1.266   6.450   3.662
 3494TIP3    H110439   1.188   6.484   3.618
 3494TIP3    H210440   1.336   6.459   3.597
 3495TIP3   OH210441   1.002   5.150   6.208
 3495TIP3    H110442   1.023   5.233   6.250
 3495TIP3    H210443   0.982   5.091   6.280
 3496TIP3   OH210444   0.756   1.000   6.333
 3496TIP3    H110445   0.757   1.090   6.298
 3496TIP3    H210446   0.663   0.977   6.338
 3497TIP3   OH210447   7.175   6.631   6.486
 3497TIP3    H110448   7.136   6.694   6.425
 3497TIP3    H210449   7.139   6.657   6.571
 3498TIP3   OH210450   3.919   1.640   5.458
 3498TIP3    H110451   3.985   1.704   5.486
 3498TIP3    H210452   3.968   1.580   5.401
 3499TIP3   OH210453   8.118   3.523   0.682
 3499TIP3    H110454   8.166   3.461   0.738
 3499TIP3    H210455   8.183   3.554   0.619
 3500TIP3   OH210456   2.489   5.535   3.622
 3500TIP3    H110457   2.573   5.525   3.667
 3500TIP3    H210458   2.424   5.509   3.687
 3501TIP3   OH210459   4.555   4.516   4.297
 3501TIP3    H110460   4.600   4.571   4.361
 3501TIP3    H210461   4.519   4.577   4.233
 3502TIP3   OH210462   6.899   5.845   1.544
 3502TIP3    H110463   6.853   5.801   1.615
 3502TIP3    H210464   6.877   5.938   1.555
 3503TIP3   OH210465   7.442   3.024   1.614
 3503TIP3    H110466   7.527   3.067   1.623
 3503TIP3    H210467   7.416   3.002   1.703
 3504TIP3   OH210468   1.623   6.240   4.205
 3504TIP3    H110469   1.713   6.270   4.221
 3504TIP3    H210470   1.605   6.180   4.276
 3505TIP3   OH210471   7.112   6.881   2.620
 3505TIP3    H110472   7.071   6.900   2.536
 3505TIP3    H210473   7.057   6.925   2.685
 3506TIP3   OH210474   2.509   4.990   0.941
 3506TIP3    H110475   2.447   5.030   0.880
 3506TIP3    H210476   2.459   4.978   1.022
 3507TIP3   OH210477   2.406   6.875   3.124
 3507TIP3    H110478   2.337   6.829   3.172
 3507TIP3    H210479   2.380   6.967   3.127
 3508TIP3   OH210480   5.378   0.907   6.390
 3508TIP3    H110481   5.446   0.869   6.335
 3508TIP3    H210482   5.410   0.896   6.479
 3509TIP3   OH210483   4.285   1.705   6.166
 3509TIP3    H110484   4.332   1.776   6.122
 3509TIP3    H210485   4.193   1.726   6.153
 3510TIP3   OH210486   5.852   6.030   5.168
 3510TIP3    H110487   5.883   5.948   5.206
 3510TIP3    H210488   5.757   6.026   5.174
 3511TIP3   OH210489   1.014   1.309   1.091
 3511TIP3    H110490   1.030   1.254   1.167
 3511TIP3    H210491   0.981   1.249   1.024
 3512TIP3   OH210492   7.768   7.267   6.408
 3512TIP3    H110493   7.839   7.239   6.466
 3512TIP3    H210494   7.788   7.358   6.387
 3513TIP3   OH210495   1.680   1.095   0.996
 3513TIP3    H110496   1.729   1.036   1.054
 3513TIP3    H210497   1.607   1.125   1.049
 3514TIP3   OH210498   5.921   1.897   3.414
 3514TIP3    H110499   5.867   1.863   3.342
 3514TIP3    H210500   5.913   1.832   3.483
 3515TIP3   OH210501   0.421   4.449   1.865
 3515TIP3    H110502   0.467   4.513   1.920
 3515TIP3    H210503   0.453   4.467   1.776
 3516TIP3   OH210504   1.829   5.663   4.860
 3516TIP3    H110505   1.791   5.580   4.832
 3516TIP3    H210506   1.921   5.643   4.877
 3517TIP3   OH210507   7.362   2.563   3.115
 3517TIP3    H110508   7.332   2.481   3.155
 3517TIP3    H210509   7.457   2.554   3.111
 3518TIP3   OH210510   5.630   2.637   6.244
 3518TIP3    H110511   5.600   2.720   6.280
 3518TIP3    H210512   5.688   2.601   6.312
 3519TIP3   OH210513   5.878   4.263   4.167
 3519TIP3    H110514   5.956   4.290   4.119
 3519TIP3    H210515   5.857   4.176   4.132
 3520TIP3   OH210516   7.653   5.767   5.835
 3520TIP3    H110517   7.604   5.759   5.754
 3520TIP3    H210518   7.593   5.811   5.895
 3521TIP3   OH210519   2.239   6.347   3.443
 3521TIP3    H110520   2.316   6.372   3.494
 3521TIP3    H210521   2.169   6.336   3.508
 3522TIP3   OH210522   0.727   3.891   1.335
 3522TIP3    H110523   0.739   3.799   1.314
 3522TIP3    H210524   0.632   3.904   1.333
 3523TIP3   OH210525   0.060   4.704   6.580
 3523TIP3    H110526  -0.028   4.720   6.546
 3523TIP3    H210527   0.113   4.688   6.502
 3524TIP3   OH210528   5.354   3.484   0.585
 3524TIP3    H110529   5.370   3.394   0.556
 3524TIP3    H210530   5.292   3.519   0.521
 3525TIP3   OH210531   2.344   7.294   5.319
 3525TIP3    H110532   2.276   7.230   5.340
 3525TIP3    H210533   2.307   7.348   5.250
 3526TIP3   OH210534   7.356   3.557   3.471
 3526TIP3    H110535   7.298   3.491   3.432
 3526TIP3    H210536   7.329   3.561   3.563
 3527TIP3   OH210537   7.513   7.244   1.351
 3527TIP3    H110538   7.562   7.319   1.317
 3527TIP3    H210539   7.453   7.220   1.280
 3528TIP3   OH210540   1.576   4.229   0.734
 3528TIP3    H110541   1.613   4.273   0.811
 3528TIP3    H210542   1.532   4.152   0.770
 3529TIP3   OH210543   5.333   6.271   2.236
 3529TIP3    H110544   5.356   6.363   2.249
 3529TIP3    H210545   5.366   6.250   2.148
 3530TIP3   OH210546   1.444   2.046   1.533
 3530TIP3    H110547   1.372   2.005   1.485
 3530TIP3    H210548   1.418   2.040   1.625
 3531TIP3   OH210549   0.489   4.920   0.842
 3531TIP3    H110550   0.484   4.896   0.934
 3531TIP3    H210551   0.583   4.929   0.825
 3532TIP3   OH210552   7.133   6.966   2.331
 3532TIP3    H110553   7.151   7.030   2.262
 3532TIP3    H210554   7.062   7.004   2.382
 3533TIP3   OH210555   4.257   4.486   1.375
 3533TIP3    H110556   4.268   4.496   1.280
 3533TIP3    H210557   4.281   4.572   1.411
 3534TIP3   OH210558   4.881   6.158   0.608
 3534TIP3    H110559   4.953   6.106   0.643
 3534TIP3    H210560   4.924   6.218   0.546
 3535TIP3   OH210561   6.318   0.520   1.016
 3535TIP3    H110562   6.263   0.540   0.940
 3535TIP3    H210563   6.373   0.447   0.987
 3536TIP3   OH210564   5.064   4.674   4.816
 3536TIP3    H110565   5.061   4.665   4.912
 3536TIP3    H210566   5.142   4.625   4.790
 3537TIP3   OH210567   3.338   0.022   6.763
 3537TIP3    H110568   3.370   0.104   6.800
 3537TIP3    H210569   3.406  -0.042   6.786
 3538TIP3   OH210570   2.178   5.202   3.091
 3538TIP3    H110571   2.267   5.232   3.103
 3538TIP3    H210572   2.138   5.267   3.034
 3539TIP3   OH210573   2.224   3.984   0.535
 3539TIP3    H110574   2.233   4.024   0.621
 3539TIP3    H210575   2.312   3.987   0.497
 3540TIP3   OH210576   5.864   2.969   3.118
 3540TIP3    H110577   5.780   2.972   3.073
 3540TIP3    H210578   5.904   3.054   3.100
 3541TIP3   OH210579   8.073   0.652   6.455
 3541TIP3    H110580   8.149   0.595   6.440
 3541TIP3    H210581   8.070   0.664   6.550
 3542TIP3   OH210582   8.102   4.244   1.982
 3542TIP3    H110583   8.078   4.167   2.033
 3542TIP3    H210584   8.024   4.299   1.983
 3543TIP3   OH210585   1.561   5.609   0.398
 3543TIP3    H110586   1.649   5.638   0.374
 3543TIP3    H210587   1.525   5.574   0.317
 3544TIP3   OH210588   0.735   6.051   1.219
 3544TIP3    H110589   0.709   6.000   1.142
 3544TIP3    H210590   0.796   6.116   1.184
 3545TIP3   OH210591   0.715   2.599   1.942
 3545TIP3    H110592   0.808   2.619   1.932
 3545TIP3    H210593   0.694   2.545   1.866
 3546TIP3   OH210594   4.936   3.112   3.128
 3546TIP3    H110595   4.859   3.135   3.077
 3546TIP3    H210596   4.998   3.077   3.064
 3547TIP3   OH210597   6.694   4.685   0.856
 3547TIP3    H110598   6.736   4.742   0.921
 3547TIP3    H210599   6.731   4.598   0.873
 3548TIP3   OH210600   5.021   4.946   4.593
 3548TIP3    H110601   5.063   5.020   4.636
 3548TIP3    H210602   5.071   4.935   4.512
 3549TIP3   OH210603   6.381   0.910   0.862
 3549TIP3    H110604   6.404   0.903   0.769
 3549TIP3    H210605   6.406   0.998   0.886
 3550TIP3   OH210606   4.330   7.676   2.930
 3550TIP3    H110607   4.410   7.702   2.883
 3550TIP3    H210608   4.281   7.757   2.940
 3551TIP3   OH210609   7.686   0.292   3.712
 3551TIP3    H110610   7.776   0.312   3.689
 3551TIP3    H210611   7.659   0.362   3.771
 3552TIP3   OH210612   7.682   0.626   1.443
 3552TIP3    H110613   7.678   0.530   1.433
 3552TIP3    H210614   7.762   0.641   1.493
 3553TIP3   OH210615   1.454   3.370   3.170
 3553TIP3    H110616   1.424   3.456   3.198
 3553TIP3    H210617   1.544   3.383   3.141
 3554TIP3   OH210618   4.898   4.880   5.174
 3554TIP3    H110619   4.809   4.851   5.195
 3554TIP3    H210620   4.888   4.937   5.099
 3555TIP3   OH210621   0.074   3.844   1.764
 3555TIP3    H110622   0.069   3.886   1.678
 3555TIP3    H210623  -0.015   3.847   1.797
 3556TIP3   OH210624   5.319   5.526   2.726
 3556TIP3    H110625   5.236   5.482   2.711
 3556TIP3    H210626   5.335   5.576   2.646
 3557TIP3   OH210627   3.431   6.323   6.333
 3557TIP3    H110628   3.398   6.318   6.422
 3557TIP3    H210629   3.527   6.326   6.343
 3558TIP3   OH210630   1.776   3.988   0.687
 3558TIP3    H110631   1.709   4.024   0.629
 3558TIP3    H210632   1.786   3.897   0.658
 3559TIP3   OH210633   8.291   5.982   4.098
 3559TIP3    H110634   8.237   5.962   4.021
 3559TIP3    H210635   8.371   5.931   4.084
 3560TIP3   OH210636   2.518   2.179   1.467
 3560TIP3    H110637   2.451   2.130   1.419
 3560TIP3    H210638   2.585   2.114   1.487
 3561TIP3   OH210639   5.247   0.950   0.695
 3561TIP3    H110640   5.314   0.950   0.627
 3561TIP3    H210641   5.167   0.979   0.650
 3562TIP3   OH210642   5.535   3.965   1.523
 3562TIP3    H110643   5.564   4.055   1.504
 3562TIP3    H210644   5.615   3.921   1.552
 3563TIP3   OH210645   3.199   0.130   2.432
 3563TIP3    H110646   3.208   0.212   2.480
 3563TIP3    H210647   3.111   0.134   2.393
 3564TIP3   OH210648   6.997   6.626   1.413
 3564TIP3    H110649   7.032   6.609   1.501
 3564TIP3    H210650   7.032   6.554   1.360
 3565TIP3   OH210651   3.544   2.049   3.948
 3565TIP3    H110652   3.512   2.138   3.959
 3565TIP3    H210653   3.552   2.015   4.037
 3566TIP3   OH210654   1.727   2.156   0.435
 3566TIP3    H110655   1.656   2.093   0.427
 3566TIP3    H210656   1.793   2.112   0.489
 3567TIP3   OH210657   1.312   7.424   6.227
 3567TIP3    H110658   1.403   7.417   6.200
 3567TIP3    H210659   1.276   7.494   6.172
 3568TIP3   OH210660   3.410   1.815   6.652
 3568TIP3    H110661   3.454   1.731   6.667
 3568TIP3    H210662   3.479   1.874   6.623
 3569TIP3   OH210663   1.717   5.537   3.302
 3569TIP3    H110664   1.635   5.494   3.278
 3569TIP3    H210665   1.782   5.497   3.245
 3570TIP3   OH210666   2.745   1.130   1.318
 3570TIP3    H110667   2.779   1.043   1.295
 3570TIP3    H210668   2.817   1.190   1.298
 3571TIP3   OH210669   3.779   6.763   6.490
 3571TIP3    H110670   3.752   6.786   6.401
 3571TIP3    H210671   3.854   6.705   6.478
 3572TIP3   OH210672   2.571   4.412   5.881
 3572TIP3    H110673   2.591   4.374   5.966
 3572TIP3    H210674   2.483   4.447   5.890
 3573TIP3   OH210675   1.706   4.486   1.862
 3573TIP3    H110676   1.744   4.461   1.778
 3573TIP3    H210677   1.613   4.502   1.843
 3574TIP3   OH210678   2.038   2.874   6.598
 3574TIP3    H110679   2.019   2.938   6.667
 3574TIP3    H210680   2.004   2.914   6.518
 3575TIP3   OH210681   4.355   4.650   3.463
 3575TIP3    H110682   4.426   4.693   3.415
 3575TIP3    H210683   4.304   4.605   3.396
 3576TIP3   OH210684   5.048   2.479   5.441
 3576TIP3    H110685   5.129   2.442   5.478
 3576TIP3    H210686   4.980   2.453   5.503
 3577TIP3   OH210687   3.668   3.291   0.547
 3577TIP3    H110688   3.634   3.287   0.637
 3577TIP3    H210689   3.741   3.352   0.551
 3578TIP3   OH210690   1.085   4.681   2.300
 3578TIP3    H110691   1.071   4.594   2.339
 3578TIP3    H210692   1.057   4.742   2.368
 3579TIP3   OH210693   4.085   2.018   2.585
 3579TIP3    H110694   4.075   2.109   2.611
 3579TIP3    H210695   4.139   2.021   2.506
 3580TIP3   OH210696   2.920   2.182   3.129
 3580TIP3    H110697   2.950   2.136   3.208
 3580TIP3    H210698   2.848   2.128   3.096
 3581TIP3   OH210699   3.034   0.295   2.294
 3581TIP3    H110700   2.975   0.370   2.286
 3581TIP3    H210701   3.099   0.322   2.359
 3582TIP3   OH210702   6.024   1.855   5.590
 3582TIP3    H110703   6.089   1.816   5.531
 3582TIP3    H210704   5.954   1.790   5.594
 3583TIP3   OH210705   7.511   4.952   0.872
 3583TIP3    H110706   7.575   4.966   0.803
 3583TIP3    H210707   7.506   4.857   0.882
 3584TIP3   OH210708   6.895   7.362   4.453
 3584TIP3    H110709   6.815   7.413   4.439
 3584TIP3    H210710   6.865   7.271   4.457
 3585TIP3   OH210711   0.233   7.567   3.077
 3585TIP3    H110712   0.166   7.553   3.011
 3585TIP3    H210713   0.204   7.517   3.153
 3586TIP3   OH210714   2.752   2.551   6.301
 3586TIP3    H110715   2.831   2.506   6.270
 3586TIP3    H210716   2.680   2.510   6.253
 3587TIP3   OH210717   5.009   5.612   2.884
 3587TIP3    H110718   4.998   5.587   2.792
 3587TIP3    H210719   5.048   5.700   2.880
 3588TIP3   OH210720   7.068   0.530   3.258
 3588TIP3    H110721   7.059   0.439   3.229
 3588TIP3    H210722   6.978   0.564   3.257
 3589TIP3   OH210723   2.450   2.861   3.103
 3589TIP3    H110724   2.527   2.918   3.098
 3589TIP3    H210725   2.433   2.852   3.197
 3590TIP3   OH210726   7.022   2.868   1.380
 3590TIP3    H110727   6.989   2.828   1.460
 3590TIP3    H210728   7.108   2.827   1.366
 3591TIP3   OH210729   6.551   5.749   6.370
 3591TIP3    H110730   6.592   5.667   6.342
 3591TIP3    H210731   6.620   5.795   6.417
 3592TIP3   OH210732   2.181   1.826   5.038
 3592TIP3    H110733   2.193   1.850   4.946
 3592TIP3    H210734   2.112   1.759   5.037
 3593TIP3   OH210735   1.061   5.941   4.906
 3593TIP3    H110736   1.088   6.002   4.836
 3593TIP3    H210737   1.117   5.865   4.894
 3594TIP3   OH210738   0.635   0.893   1.658
 3594TIP3    H110739   0.694   0.901   1.732
 3594TIP3    H210740   0.590   0.809   1.671
 3595TIP3   OH210741   7.018   0.555   4.703
 3595TIP3    H110742   7.031   0.646   4.731
 3595TIP3    H210743   7.006   0.561   4.608
 3596TIP3   OH210744   6.094   5.166   5.104
 3596TIP3    H110745   6.015   5.131   5.145
 3596TIP3    H210746   6.062   5.219   5.031
 3597TIP3   OH210747   6.758   4.517   3.458
 3597TIP3    H110748   6.704   4.451   3.500
 3597TIP3    H210749   6.791   4.571   3.529
 3598TIP3   OH210750   2.325   6.949   0.956
 3598TIP3    H110751   2.291   7.022   0.905
 3598TIP3    H210752   2.368   6.990   1.031
 3599TIP3   OH210753   6.055   0.288   5.812
 3599TIP3    H110754   6.027   0.317   5.899
 3599TIP3    H210755   5.985   0.231   5.782
 3600TIP3   OH210756   7.079   3.325   2.435
 3600TIP3    H110757   7.165   3.290   2.411
 3600TIP3    H210758   7.041   3.257   2.491
 3601TIP3   OH210759   6.808   0.943   1.522
 3601TIP3    H110760   6.870   0.951   1.450
 3601TIP3    H210761   6.812   0.851   1.547
 3602TIP3   OH210762   1.988   1.643   4.986
 3602TIP3    H110763   1.910   1.606   5.027
 3602TIP3    H210764   2.061   1.611   5.039
 3603TIP3   OH210765   0.975   3.029   3.505
 3603TIP3    H110766   0.915   3.026   3.579
 3603TIP3    H210767   1.053   2.983   3.535
 3604TIP3   OH210768   3.251   4.749   6.453
 3604TIP3    H110769   3.285   4.713   6.534
 3604TIP3    H210770   3.297   4.701   6.384
 3605TIP3   OH210771   3.129   4.525   0.769
 3605TIP3    H110772   3.069   4.466   0.723
 3605TIP3    H210773   3.212   4.517   0.721
 3606TIP3   OH210774   1.700   0.569   1.473
 3606TIP3    H110775   1.670   0.646   1.522
 3606TIP3    H210776   1.750   0.518   1.536
 3607TIP3   OH210777   6.637   4.855   4.911
 3607TIP3    H110778   6.579   4.824   4.980
 3607TIP3    H210779   6.725   4.848   4.948
 3608TIP3   OH210780   1.463   6.751   2.883
 3608TIP3    H110781   1.385   6.805   2.898
 3608TIP3    H210782   1.523   6.775   2.954
 3609TIP3   OH210783   0.334   1.589   2.679
 3609TIP3    H110784   0.310   1.626   2.764
 3609TIP3    H210785   0.317   1.659   2.616
 3610TIP3   OH210786   2.442   5.174   1.631
 3610TIP3    H110787   2.410   5.185   1.542
 3610TIP3    H210788   2.529   5.214   1.631
 3611TIP3   OH210789   1.769   0.592   4.258
 3611TIP3    H110790   1.841   0.626   4.206
 3611TIP3    H210791   1.795   0.502   4.279
 3612TIP3   OH210792   3.934   7.754   1.408
 3612TIP3    H110793   3.871   7.685   1.428
 3612TIP3    H210794   3.991   7.716   1.341
 3613TIP3   OH210795   4.845   1.668   6.213
 3613TIP3    H110796   4.936   1.659   6.185
 3613TIP3    H210797   4.826   1.588   6.262
 3614TIP3   OH210798   0.133   0.755   2.571
 3614TIP3    H110799   0.052   0.714   2.541
 3614TIP3    H210800   0.105   0.835   2.615
 3615TIP3   OH210801   0.719   0.712   5.430
 3615TIP3    H110802   0.744   0.621   5.420
 3615TIP3    H210803   0.742   0.735   5.520
 3616TIP3   OH210804   0.721   4.439   1.129
 3616TIP3    H110805   0.744   4.353   1.094
 3616TIP3    H210806   0.687   4.488   1.054
 3617TIP3   OH210807   2.092   0.566   1.126
 3617TIP3    H110808   2.118   0.658   1.121
 3617TIP3    H210809   2.009   0.567   1.173
 3618TIP3   OH210810   1.178   3.488   1.989
 3618TIP3    H110811   1.122   3.535   1.928
 3618TIP3    H210812   1.137   3.401   1.996
 3619TIP3   OH210813   5.276   0.789   4.714
 3619TIP3    H110814   5.337   0.742   4.657
 3619TIP3    H210815   5.244   0.722   4.775
 3620TIP3   OH210816   7.718   2.897   1.980
 3620TIP3    H110817   7.715   2.992   1.988
 3620TIP3    H210818   7.793   2.871   2.033
 3621TIP3   OH210819   4.457   2.165   0.259
 3621TIP3    H110820   4.521   2.146   0.191
 3621TIP3    H210821   4.508   2.209   0.328
 3622TIP3   OH210822   6.269   6.266   6.148
 3622TIP3    H110823   6.261   6.213   6.227
 3622TIP3    H210824   6.341   6.326   6.167
 3623TIP3   OH210825   7.644   1.526   2.346
 3623TIP3    H110826   7.668   1.435   2.328
 3623TIP3    H210827   7.722   1.565   2.383
 3624TIP3   OH210828   4.259   4.447   3.658
 3624TIP3    H110829   4.317   4.482   3.591
 3624TIP3    H210830   4.275   4.502   3.735
 3625TIP3   OH210831   2.489   5.927   3.870
 3625TIP3    H110832   2.577   5.923   3.907
 3625TIP3    H210833   2.492   5.869   3.794
 3626TIP3   OH210834   8.004   0.673   3.575
 3626TIP3    H110835   7.994   0.757   3.530
 3626TIP3    H210836   8.092   0.643   3.550
 3627TIP3   OH210837   6.453   0.181   4.248
 3627TIP3    H110838   6.456   0.131   4.330
 3627TIP3    H210839   6.516   0.253   4.262
 3628TIP3   OH210840   1.121   1.895   3.199
 3628TIP3    H110841   1.070   1.938   3.130
 3628TIP3    H210842   1.174   1.965   3.237
 3629TIP3   OH210843   4.872   4.013   1.375
 3629TIP3    H110844   4.872   4.059   1.291
 3629TIP3    H210845   4.826   3.931   1.358
 3630TIP3   OH210846   2.235   5.554   2.193
 3630TIP3    H110847   2.210   5.509   2.112
 3630TIP3    H210848   2.261   5.641   2.164
 3631TIP3   OH210849   1.043   3.079   2.867
 3631TIP3    H110850   1.125   3.097   2.913
 3631TIP3    H210851   1.066   3.082   2.774
 3632TIP3   OH210852   1.083   3.116   4.631
 3632TIP3    H110853   1.117   3.072   4.554
 3632TIP3    H210854   1.044   3.197   4.598
 3633TIP3   OH210855   4.058   3.367   3.176
 3633TIP3    H110856   4.124   3.366   3.106
 3633TIP3    H210857   4.080   3.445   3.228
 3634TIP3   OH210858   2.302   4.763   1.586
 3634TIP3    H110859   2.299   4.785   1.679
 3634TIP3    H210860   2.315   4.848   1.542
 3635TIP3   OH210861   2.772   2.870   4.556
 3635TIP3    H110862   2.858   2.903   4.531
 3635TIP3    H210863   2.768   2.783   4.517
 3636TIP3   OH210864   6.763   6.285   3.578
 3636TIP3    H110865   6.796   6.370   3.548
 3636TIP3    H210866   6.752   6.234   3.498
 3637TIP3   OH210867   8.147   0.407   2.345
 3637TIP3    H110868   8.241   0.409   2.327
 3637TIP3    H210869   8.138   0.353   2.423
 3638TIP3   OH210870   1.321   4.456   4.629
 3638TIP3    H110871   1.286   4.436   4.716
 3638TIP3    H210872   1.334   4.371   4.588
 3639TIP3   OH210873   2.933   0.737   4.054
 3639TIP3    H110874   2.965   0.663   4.001
 3639TIP3    H210875   2.964   0.718   4.142
 3640TIP3   OH210876   4.859   6.515   4.076
 3640TIP3    H110877   4.798   6.453   4.035
 3640TIP3    H210878   4.825   6.528   4.164
 3641TIP3   OH210879   4.132   1.152   5.651
 3641TIP3    H110880   4.060   1.131   5.712
 3641TIP3    H210881   4.116   1.243   5.625
 3642TIP3   OH210882   6.890   0.793   5.031
 3642TIP3    H110883   6.921   0.746   5.109
 3642TIP3    H210884   6.964   0.790   4.971
 3643TIP3   OH210885   6.799   3.880   3.420
 3643TIP3    H110886   6.844   3.802   3.388
 3643TIP3    H210887   6.862   3.923   3.477
 3644TIP3   OH210888   1.334   1.555   0.776
 3644TIP3    H110889   1.286   1.560   0.858
 3644TIP3    H210890   1.364   1.464   0.771
 3645TIP3   OH210891   5.256   5.115   6.561
 3645TIP3    H110892   5.320   5.128   6.631
 3645TIP3    H210893   5.276   5.028   6.527
 3646TIP3   OH210894   1.500   5.709   6.534
 3646TIP3    H110895   1.526   5.800   6.548
 3646TIP3    H210896   1.582   5.659   6.536
 3647TIP3   OH210897   2.498   0.306   2.978
 3647TIP3    H110898   2.403   0.307   2.990
 3647TIP3    H210899   2.514   0.375   2.914
 3648TIP3   OH210900   5.856   5.054   2.501
 3648TIP3    H110901   5.883   4.964   2.519
 3648TIP3    H210902   5.816   5.083   2.583
 3649TIP3   OH210903   4.829   2.985   4.532
 3649TIP3    H110904   4.871   2.953   4.611
 3649TIP3    H210905   4.841   3.080   4.535
 3650TIP3   OH210906   0.553   4.910   6.163
 3650TIP3    H110907   0.584   4.981   6.218
 3650TIP3    H210908   0.625   4.892   6.102
 3651TIP3   OH210909   8.275   7.801   5.059
 3651TIP3    H110910   8.245   7.891   5.074
 3651TIP3    H210911   8.197   7.754   5.029
 3652TIP3   OH210912   0.274   1.973   5.816
 3652TIP3    H110913   0.256   1.899   5.759
 3652TIP3    H210914   0.330   1.937   5.885
 3653TIP3   OH210915   2.478   7.315   5.900
 3653TIP3    H110916   2.450   7.403   5.926
 3653TIP3    H210917   2.558   7.299   5.949
 3654TIP3   OH210918   4.042   6.040   6.479
 3654TIP3    H110919   4.056   5.956   6.522
 3654TIP3    H210920   4.100   6.038   6.403
 3655TIP3   OH210921   8.116   5.125   1.100
 3655TIP3    H110922   8.198   5.160   1.067
 3655TIP3    H210923   8.133   5.106   1.192
 3656TIP3   OH210924   4.685   6.382   6.051
 3656TIP3    H110925   4.597   6.405   6.083
 3656TIP3    H210926   4.709   6.455   5.995
 3657TIP3   OH210927   7.001   0.101   5.103
 3657TIP3    H110928   7.006   0.021   5.155
 3657TIP3    H210929   7.063   0.161   5.144
 3658TIP3   OH210930   6.453   3.209   1.826
 3658TIP3    H110931   6.531   3.164   1.793
 3658TIP3    H210932   6.462   3.205   1.921
 3659TIP3   OH210933   6.475   5.528  -0.014
 3659TIP3    H110934   6.536   5.555  -0.082
 3659TIP3    H210935   6.528   5.525   0.066
 3660TIP3   OH210936   8.087   4.101   0.443
 3660TIP3    H110937   8.100   4.030   0.505
 3660TIP3    H210938   8.143   4.172   0.474
 3661TIP3   OH210939   2.778   0.872   4.501
 3661TIP3    H110940   2.778   0.968   4.496
 3661TIP3    H210941   2.731   0.853   4.582
 3662TIP3   OH210942   2.023   5.603   0.404
 3662TIP3    H110943   2.063   5.677   0.450
 3662TIP3    H210944   2.096   5.543   0.388
 3663TIP3   OH210945   4.764   4.805   5.902
 3663TIP3    H110946   4.796   4.766   5.983
 3663TIP3    H210947   4.669   4.811   5.915
 3664TIP3   OH210948   2.513   3.825   0.117
 3664TIP3    H110949   2.447   3.893   0.100
 3664TIP3    H210950   2.503   3.764   0.044
 3665TIP3   OH210951   4.179   1.112   4.316
 3665TIP3    H110952   4.084   1.112   4.326
 3665TIP3    H210953   4.207   1.197   4.350
 3666TIP3   OH210954   0.306   5.131   2.273
 3666TIP3    H110955   0.212   5.126   2.288
 3666TIP3    H210956   0.339   5.044   2.296
 3667TIP3   OH210957   5.950   5.199   4.217
 3667TIP3    H110958   6.033   5.239   4.191
 3667TIP3    H210959   5.958   5.107   4.191
 3668TIP3   OH210960   4.506   7.718   3.146
 3668TIP3    H110961   4.444   7.674   3.088
 3668TIP3    H210962   4.463   7.717   3.231
 3669TIP3   OH210963   6.362   5.943   5.408
 3669TIP3    H110964   6.417   5.934   5.486
 3669TIP3    H210965   6.423   5.971   5.339
 3670TIP3   OH210966   4.325   2.819   1.279
 3670TIP3    H110967   4.346   2.818   1.372
 3670TIP3    H210968   4.259   2.750   1.268
 3671TIP3   OH210969   0.292   6.736   6.639
 3671TIP3    H110970   0.303   6.726   6.734
 3671TIP3    H210971   0.197   6.740   6.626
 3672TIP3   OH210972   5.835   5.026   3.945
 3672TIP3    H110973   5.745   5.057   3.931
 3672TIP3    H210974   5.824   4.935   3.975
 3673TIP3   OH210975   5.716   4.462   0.467
 3673TIP3    H110976   5.745   4.550   0.441
 3673TIP3    H210977   5.744   4.454   0.558
 3674TIP3   OH210978   3.171   5.980   0.149
 3674TIP3    H110979   3.234   6.024   0.090
 3674TIP3    H210980   3.086   6.000   0.111
 3675TIP3   OH210981   4.097   0.969   1.921
 3675TIP3    H110982   4.002   0.969   1.932
 3675TIP3    H210983   4.111   0.994   1.830
 3676TIP3   OH210984   3.036   7.207   3.910
 3676TIP3    H110985   3.074   7.120   3.920
 3676TIP3    H210986   3.080   7.261   3.976
 3677TIP3   OH210987   0.355   7.741   5.341
 3677TIP3    H110988   0.357   7.735   5.245
 3677TIP3    H210989   0.266   7.770   5.362
 3678TIP3   OH210990   2.624   5.735   2.519
 3678TIP3    H110991   2.550   5.675   2.530
 3678TIP3    H210992   2.604   5.808   2.578
 3679TIP3   OH210993   6.595   1.790   2.146
 3679TIP3    H110994   6.569   1.754   2.230
 3679TIP3    H210995   6.670   1.846   2.166
 3680TIP3   OH210996   6.978   2.476   2.679
 3680TIP3    H110997   6.997   2.412   2.611
 3680TIP3    H210998   7.028   2.447   2.755
 3681TIP3   OH210999   7.625   2.214   3.805
 3681TIP3    H111000   7.610   2.308   3.819
 3681TIP3    H211001   7.591   2.173   3.885
 3682TIP3   OH211002   4.759   5.568   1.610
 3682TIP3    H111003   4.831   5.506   1.621
 3682TIP3    H211004   4.761   5.622   1.689
 3683TIP3   OH211005   7.341   0.723   6.318
 3683TIP3    H111006   7.283   0.680   6.380
 3683TIP3    H211007   7.383   0.793   6.368
 3684TIP3   OH211008   2.667   6.438   2.162
 3684TIP3    H111009   2.735   6.485   2.210
 3684TIP3    H211010   2.638   6.369   2.222
 3685TIP3   OH211011   1.840   0.980   4.734
 3685TIP3    H111012   1.824   0.885   4.730
 3685TIP3    H211013   1.814   1.012   4.648
 3686TIP3   OH211014   2.215   4.857   3.429
 3686TIP3    H111015   2.193   4.949   3.436
 3686TIP3    H211016   2.268   4.850   3.349
 3687TIP3   OH211017   5.808   4.981   0.631
 3687TIP3    H111018   5.759   4.938   0.562
 3687TIP3    H211019   5.869   5.039   0.585
 3688TIP3   OH211020   8.267   2.778   4.730
 3688TIP3    H111021   8.312   2.732   4.659
 3688TIP3    H211022   8.196   2.719   4.755
 3689TIP3   OH211023   2.591   0.203   3.926
 3689TIP3    H111024   2.563   0.158   4.006
 3689TIP3    H211025   2.683   0.224   3.941
 3690TIP3   OH211026   5.178   4.333   1.072
 3690TIP3    H111027   5.113   4.400   1.092
 3690TIP3    H211028   5.210   4.357   0.985
 3691TIP3   OH211029   4.510   0.672   5.955
 3691TIP3    H111030   4.515   0.767   5.941
 3691TIP3    H211031   4.591   0.650   6.002
 3692TIP3   OH211032   7.402   6.983   6.292
 3692TIP3    H111033   7.478   6.935   6.322
 3692TIP3    H211034   7.437   7.050   6.233
 3693TIP3   OH211035   2.176   4.243   4.072
 3693TIP3    H111036   2.172   4.226   3.978
 3693TIP3    H211037   2.098   4.296   4.091
 3694TIP3   OH211038   1.459   2.527   2.923
 3694TIP3    H111039   1.414   2.486   2.849
 3694TIP3    H211040   1.467   2.619   2.898
 3695TIP3   OH211041   3.143   3.874   0.455
 3695TIP3    H111042   3.053   3.881   0.487
 3695TIP3    H211043   3.198   3.902   0.529
 3696TIP3   OH211044   5.215   7.706   2.139
 3696TIP3    H111045   5.264   7.729   2.060
 3696TIP3    H211046   5.128   7.683   2.108
 3697TIP3   OH211047   6.596   0.917   2.534
 3697TIP3    H111048   6.570   1.008   2.523
 3697TIP3    H211049   6.640   0.914   2.618
 3698TIP3   OH211050   2.733   0.465   6.223
 3698TIP3    H111051   2.800   0.529   6.242
 3698TIP3    H211052   2.702   0.487   6.135
 3699TIP3   OH211053   7.071   4.617   4.698
 3699TIP3    H111054   7.041   4.678   4.765
 3699TIP3    H211055   7.150   4.577   4.735
 3700TIP3   OH211056   8.087   7.443   2.423
 3700TIP3    H111057   8.004   7.489   2.438
 3700TIP3    H211058   8.108   7.462   2.332
 3701TIP3   OH211059   0.024   3.427   4.669
 3701TIP3    H111060  -0.029   3.355   4.635
 3701TIP3    H211061   0.094   3.384   4.718
 3702TIP3   OH211062   5.681   3.205   2.843
 3702TIP3    H111063   5.672   3.113   2.869
 3702TIP3    H211064   5.702   3.202   2.750
 3703TIP3   OH211065   2.780   7.760   2.614
 3703TIP3    H111066   2.873   7.738   2.601
 3703TIP3    H211067   2.736   7.723   2.537
 3704TIP3   OH211068   3.974   1.726   0.346
 3704TIP3    H111069   4.052   1.672   0.359
 3704TIP3    H211070   3.980   1.793   0.413
 3705TIP3   OH211071   1.884   4.034   5.954
 3705TIP3    H111072   1.868   4.057   6.045
 3705TIP3    H211073   1.931   4.109   5.918
 3706TIP3   OH211074   1.850   5.262   2.750
 3706TIP3    H111075   1.807   5.255   2.665
 3706TIP3    H211076   1.837   5.176   2.790
 3707TIP3   OH211077   0.988   6.526   4.837
 3707TIP3    H111078   0.957   6.616   4.839
 3707TIP3    H211079   1.080   6.532   4.865
 3708TIP3   OH211080   5.491   7.682   4.205
 3708TIP3    H111081   5.500   7.735   4.126
 3708TIP3    H211082   5.549   7.724   4.269
 3709TIP3   OH211083   0.258   5.206   0.295
 3709TIP3    H111084   0.330   5.209   0.358
 3709TIP3    H211085   0.301   5.200   0.209
 3710TIP3   OH211086   4.730   5.802   1.783
 3710TIP3    H111087   4.716   5.885   1.829
 3710TIP3    H211088   4.693   5.817   1.695
 3711TIP3   OH211089   6.100   3.349   5.926
 3711TIP3    H111090   6.081   3.264   5.886
 3711TIP3    H211091   6.016   3.376   5.965
 3712TIP3   OH211092   4.030   6.222   2.738
 3712TIP3    H111093   3.993   6.306   2.765
 3712TIP3    H211094   4.066   6.239   2.651
 3713TIP3   OH211095   1.384   6.951   1.350
 3713TIP3    H111096   1.430   7.028   1.317
 3713TIP3    H211097   1.365   6.972   1.442
 3714TIP3   OH211098   4.207   6.713   2.634
 3714TIP3    H111099   4.142   6.680   2.572
 3714TIP3    H211100   4.215   6.806   2.612
 3715TIP3   OH211101   6.402   5.271   1.064
 3715TIP3    H111102   6.466   5.225   1.118
 3715TIP3    H211103   6.345   5.202   1.031
 3716TIP3   OH211104   8.163   0.639   5.465
 3716TIP3    H111105   8.088   0.615   5.410
 3716TIP3    H211106   8.136   0.616   5.554
 3717TIP3   OH211107   1.458   7.477   0.925
 3717TIP3    H111108   1.369   7.463   0.955
 3717TIP3    H211109   1.459   7.444   0.834
 3718TIP3   OH211110   2.603   7.214   2.883
 3718TIP3    H111111   2.619   7.141   2.943
 3718TIP3    H211112   2.686   7.262   2.881
 3719TIP3   OH211113   3.605   5.492   1.025
 3719TIP3    H111114   3.510   5.475   1.031
 3719TIP3    H211115   3.645   5.411   1.056
 3720TIP3   OH211116   1.450   3.377   0.620
 3720TIP3    H111117   1.446   3.324   0.700
 3720TIP3    H211118   1.523   3.436   0.633
 3721TIP3   OH211119   7.518   2.861   5.348
 3721TIP3    H111120   7.505   2.885   5.257
 3721TIP3    H211121   7.459   2.786   5.362
 3722TIP3   OH211122   1.124   0.193   0.726
 3722TIP3    H111123   1.196   0.255   0.714
 3722TIP3    H211124   1.139   0.125   0.660
 3723TIP3   OH211125   7.627   6.447   1.524
 3723TIP3    H111126   7.677   6.386   1.468
 3723TIP3    H211127   7.650   6.421   1.613
 3724TIP3   OH211128   5.384   7.151   6.150
 3724TIP3    H111129   5.429   7.071   6.124
 3724TIP3    H211130   5.429   7.180   6.229
 3725TIP3   OH211131   3.522   6.072   6.653
 3725TIP3    H111132   3.501   5.987   6.615
 3725TIP3    H211133   3.606   6.095   6.613
 3726TIP3   OH211134   0.131   5.275   6.401
 3726TIP3    H111135   0.050   5.240   6.441
 3726TIP3    H211136   0.101   5.319   6.322
 3727TIP3   OH211137   6.604   0.419   4.308
 3727TIP3    H111138   6.673   0.380   4.361
 3727TIP3    H211139   6.648   0.490   4.260
 3728TIP3   OH211140   1.896   3.857   2.502
 3728TIP3    H111141   1.851   3.839   2.585
 3728TIP3    H211142   1.968   3.794   2.499
 3729TIP3   OH211143   5.466   6.516   2.290
 3729TIP3    H111144   5.514   6.535   2.209
 3729TIP3    H211145   5.445   6.603   2.326
 3730TIP3   OH211146   2.312   2.499   4.053
 3730TIP3    H111147   2.219   2.492   4.076
 3730TIP3    H211148   2.354   2.531   4.133
 3731TIP3   OH211149   7.700   2.192   1.716
 3731TIP3    H111150   7.760   2.245   1.664
 3731TIP3    H211151   7.724   2.209   1.807
 3732TIP3   OH211152   2.574   4.574   4.604
 3732TIP3    H111153   2.627   4.494   4.608
 3732TIP3    H211154   2.551   4.592   4.695
 3733TIP3   OH211155   5.188   7.364   3.738
 3733TIP3    H111156   5.190   7.454   3.771
 3733TIP3    H211157   5.101   7.354   3.699
 3734TIP3   OH211158   1.442   0.346   1.709
 3734TIP3    H111159   1.366   0.400   1.731
 3734TIP3    H211160   1.427   0.318   1.619
 3735TIP3   OH211161   6.328   5.703   3.964
 3735TIP3    H111162   6.353   5.663   3.880
 3735TIP3    H211163   6.358   5.794   3.957
 3736TIP3   OH211164   1.395   5.976   4.652
 3736TIP3    H111165   1.323   5.973   4.715
 3736TIP3    H211166   1.447   5.897   4.671
 3737TIP3   OH211167   2.391   5.269   5.342
 3737TIP3    H111168   2.317   5.289   5.283
 3737TIP3    H211169   2.353   5.272   5.430
 3738TIP3   OH211170   8.123   6.503   6.625
 3738TIP3    H111171   8.177   6.429   6.599
 3738TIP3    H211172   8.084   6.475   6.708
 3739TIP3   OH211173   0.030   5.939   1.574
 3739TIP3    H111174  -0.030   5.980   1.512
 3739TIP3    H211175   0.075   6.012   1.615
 3740TIP3   OH211176   7.385   2.087   2.394
 3740TIP3    H111177   7.383   1.995   2.367
 3740TIP3    H211178   7.412   2.135   2.316
 3741TIP3   OH211179   2.678   4.027   5.200
 3741TIP3    H111180   2.642   4.081   5.271
 3741TIP3    H211181   2.665   3.937   5.230
 3742TIP3   OH211182   3.827   4.333   4.594
 3742TIP3    H111183   3.772   4.290   4.660
 3742TIP3    H211184   3.831   4.424   4.622
 3743TIP3   OH211185   6.663   2.491   4.392
 3743TIP3    H111186   6.596   2.511   4.327
 3743TIP3    H211187   6.674   2.572   4.441
 3744TIP3   OH211188   0.234   2.470   1.963
 3744TIP3    H111189   0.207   2.451   1.873
 3744TIP3    H211190   0.204   2.559   1.978
 3745TIP3   OH211191   3.863   5.448   2.365
 3745TIP3    H111192   3.834   5.539   2.377
 3745TIP3    H211193   3.848   5.407   2.450
 3746TIP3   OH211194   6.980   0.819   3.808
 3746TIP3    H111195   7.029   0.863   3.878
 3746TIP3    H211196   6.955   0.890   3.749
 3747TIP3   OH211197   5.264   6.855   0.032
 3747TIP3    H111198   5.308   6.910  -0.032
 3747TIP3    H211199   5.265   6.906   0.113
 3748TIP3   OH211200   0.521   4.060   1.790
 3748TIP3    H111201   0.591   4.121   1.766
 3748TIP3    H211202   0.441   4.112   1.788
 3749TIP3   OH211203   3.250   2.415   0.587
 3749TIP3    H111204   3.163   2.376   0.588
 3749TIP3    H211205   3.310   2.341   0.595
 3750TIP3   OH211206   6.434   6.183   2.479
 3750TIP3    H111207   6.512   6.134   2.503
 3750TIP3    H211208   6.371   6.116   2.452
 3751TIP3   OH211209   0.256   1.947   2.589
 3751TIP3    H111210   0.317   2.016   2.562
 3751TIP3    H211211   0.201   1.989   2.655
 3752TIP3   OH211212   7.114   6.081   1.765
 3752TIP3    H111213   7.142   5.990   1.755
 3752TIP3    H211214   7.195   6.128   1.786
 3753TIP3   OH211215   2.830   2.795   5.669
 3753TIP3    H111216   2.807   2.780   5.577
 3753TIP3    H211217   2.843   2.890   5.674
 3754TIP3   OH211218   1.472   2.986   2.493
 3754TIP3    H111219   1.434   2.898   2.494
 3754TIP3    H211220   1.560   2.975   2.527
 3755TIP3   OH211221   4.933   7.001   1.594
 3755TIP3    H111222   4.932   7.066   1.664
 3755TIP3    H211223   4.847   7.010   1.552
 3756TIP3   OH211224   6.157   2.148   2.185
 3756TIP3    H111225   6.182   2.125   2.096
 3756TIP3    H211226   6.221   2.213   2.213
 3757TIP3   OH211227   3.626   6.578   2.299
 3757TIP3    H111228   3.676   6.526   2.361
 3757TIP3    H211229   3.688   6.601   2.230
 3758TIP3   OH211230   0.498   7.281   2.999
 3758TIP3    H111231   0.490   7.359   2.945
 3758TIP3    H211232   0.591   7.278   3.023
 3759TIP3   OH211233   6.748   1.389   0.642
 3759TIP3    H111234   6.840   1.385   0.666
 3759TIP3    H211235   6.707   1.319   0.692
 3760TIP3   OH211236   0.033   3.865   3.388
 3760TIP3    H111237   0.076   3.904   3.312
 3760TIP3    H211238   0.014   3.775   3.362
 3761TIP3   OH211239   4.138   3.747   4.269
 3761TIP3    H111240   4.108   3.662   4.301
 3761TIP3    H211241   4.113   3.808   4.338
 3762TIP3   OH211242   7.971   0.766   6.215
 3762TIP3    H111243   7.991   0.752   6.307
 3762TIP3    H211244   7.898   0.828   6.215
 3763TIP3   OH211245   5.469   0.588   5.333
 3763TIP3    H111246   5.547   0.535   5.312
 3763TIP3    H211247   5.473   0.601   5.427
 3764TIP3   OH211248   8.099   5.486   6.632
 3764TIP3    H111249   8.169   5.543   6.664
 3764TIP3    H211250   8.081   5.517   6.543
 3765TIP3   OH211251   5.229   7.153   2.265
 3765TIP3    H111252   5.164   7.204   2.314
 3765TIP3    H211253   5.182   7.124   2.187
 3766TIP3   OH211254   7.194   4.891   1.744
 3766TIP3    H111255   7.113   4.854   1.778
 3766TIP3    H211256   7.224   4.950   1.813
 3767TIP3   OH211257   4.920   1.377   2.166
 3767TIP3    H111258   4.911   1.400   2.258
 3767TIP3    H211259   4.933   1.461   2.121
 3768TIP3   OH211260   6.339   1.946   2.879
 3768TIP3    H111261   6.345   1.851   2.872
 3768TIP3    H211262   6.301   1.975   2.796
 3769TIP3   OH211263   7.285   2.165   6.572
 3769TIP3    H111264   7.229   2.222   6.520
 3769TIP3    H211265   7.354   2.223   6.605
 3770TIP3   OH211266   0.754   3.095   4.593
 3770TIP3    H111267   0.840   3.107   4.553
 3770TIP3    H211268   0.700   3.165   4.557
 3771TIP3   OH211269   1.784   7.559   1.680
 3771TIP3    H111270   1.820   7.501   1.613
 3771TIP3    H211271   1.798   7.512   1.762
 3772TIP3   OH211272   1.664   0.382   0.278
 3772TIP3    H111273   1.711   0.308   0.239
 3772TIP3    H211274   1.631   0.348   0.361
 3773TIP3   OH211275   0.721   6.420   4.104
 3773TIP3    H111276   0.794   6.452   4.156
 3773TIP3    H211277   0.666   6.373   4.167
 3774TIP3   OH211278   1.811   2.014   6.503
 3774TIP3    H111279   1.773   2.065   6.432
 3774TIP3    H211280   1.833   1.930   6.463
 3775TIP3   OH211281   1.651   6.444   2.423
 3775TIP3    H111282   1.691   6.440   2.510
 3775TIP3    H211283   1.717   6.405   2.365
 3776TIP3   OH211284   6.229   0.263   6.587
 3776TIP3    H111285   6.313   0.309   6.581
 3776TIP3    H211286   6.237   0.189   6.526
 3777TIP3   OH211287   0.232   5.731   4.547
 3777TIP3    H111288   0.278   5.651   4.521
 3777TIP3    H211289   0.203   5.714   4.637
 3778TIP3   OH211290   5.173   7.117   1.457
 3778TIP3    H111291   5.132   7.057   1.518
 3778TIP3    H211292   5.254   7.144   1.501
 3779TIP3   OH211293   7.187   0.036   2.128
 3779TIP3    H111294   7.268  -0.006   2.100
 3779TIP3    H211295   7.180   0.115   2.074
 3780TIP3   OH211296   7.924   1.598   2.363
 3780TIP3    H111297   8.018   1.578   2.365
 3780TIP3    H211298   7.911   1.643   2.280
 3781TIP3   OH211299   1.416   3.206   2.339
 3781TIP3    H111300   1.423   3.182   2.247
 3781TIP3    H211301   1.446   3.128   2.387
 3782TIP3   OH211302   3.017   3.661   4.368
 3782TIP3    H111303   3.056   3.734   4.416
 3782TIP3    H211304   2.928   3.689   4.348
 3783TIP3   OH211305   0.502   0.885   6.099
 3783TIP3    H111306   0.491   0.902   6.193
 3783TIP3    H211307   0.412   0.876   6.066
 3784TIP3   OH211308   1.318   1.276   5.970
 3784TIP3    H111309   1.285   1.366   5.963
 3784TIP3    H211310   1.395   1.282   6.025
 3785TIP3   OH211311   0.097   4.415   6.487
 3785TIP3    H111312   0.150   4.402   6.408
 3785TIP3    H211313   0.035   4.484   6.463
 3786TIP3   OH211314   0.728   2.595   6.454
 3786TIP3    H111315   0.656   2.613   6.393
 3786TIP3    H211316   0.687   2.544   6.524
 3787TIP3   OH211317   3.928   7.512   0.824
 3787TIP3    H111318   3.841   7.474   0.811
 3787TIP3    H211319   3.982   7.473   0.756
 3788TIP3   OH211320   6.828   3.036   6.669
 3788TIP3    H111321   6.838   2.969   6.738
 3788TIP3    H211322   6.885   3.107   6.696
 3789TIP3   OH211323   2.249   5.813   2.127
 3789TIP3    H111324   2.209   5.848   2.206
 3789TIP3    H211325   2.320   5.875   2.106
 3790TIP3   OH211326   5.155   4.152   5.881
 3790TIP3    H111327   5.207   4.200   5.946
 3790TIP3    H211328   5.098   4.096   5.934
 3791TIP3   OH211329   7.257   1.010   1.365
 3791TIP3    H111330   7.332   1.034   1.309
 3791TIP3    H211331   7.184   1.001   1.304
 3792TIP3   OH211332   0.862   6.590   0.412
 3792TIP3    H111333   0.871   6.494   0.417
 3792TIP3    H211334   0.853   6.618   0.503
 3793TIP3   OH211335   1.103   6.070   3.743
 3793TIP3    H111336   1.101   6.061   3.648
 3793TIP3    H211337   1.102   5.980   3.775
 3794TIP3   OH211338   8.127   6.673   2.838
 3794TIP3    H111339   8.146   6.613   2.766
 3794TIP3    H211340   8.079   6.745   2.798
 3795TIP3   OH211341   3.211   6.897   0.802
 3795TIP3    H111342   3.264   6.825   0.835
 3795TIP3    H211343   3.178   6.866   0.717
 3796TIP3   OH211344   7.067   2.761   4.426
 3796TIP3    H111345   7.011   2.734   4.354
 3796TIP3    H211346   7.010   2.764   4.502
 3797TIP3   OH211347   8.039   3.709   4.424
 3797TIP3    H111348   7.961   3.676   4.469
 3797TIP3    H211349   8.086   3.631   4.396
 3798TIP3   OH211350   8.175   4.023   2.792
 3798TIP3    H111351   8.204   4.041   2.702
 3798TIP3    H211352   8.092   4.070   2.800
 3799TIP3   OH211353   3.819   4.483   2.232
 3799TIP3    H111354   3.740   4.469   2.180
 3799TIP3    H211355   3.820   4.411   2.294
 3800TIP3   OH211356   5.198   2.799   2.373
 3800TIP3    H111357   5.288   2.777   2.347
 3800TIP3    H211358   5.155   2.714   2.384
 3801TIP3   OH211359   6.224   0.393   5.283
 3801TIP3    H111360   6.198   0.483   5.300
 3801TIP3    H211361   6.318   0.391   5.300
 3802TIP3   OH211362   4.897   6.406   4.678
 3802TIP3    H111363   4.836   6.340   4.710
 3802TIP3    H211364   4.842   6.483   4.662
 3803TIP3   OH211365   3.462   4.844   5.020
 3803TIP3    H111366   3.486   4.791   4.944
 3803TIP3    H211367   3.513   4.925   5.010
 3804TIP3   OH211368   6.896   5.118   0.926
 3804TIP3    H111369   6.959   5.189   0.937
 3804TIP3    H211370   6.887   5.109   0.831
 3805TIP3   OH211371   5.525   6.625   2.821
 3805TIP3    H111372   5.457   6.563   2.846
 3805TIP3    H211373   5.558   6.593   2.737
 3806TIP3   OH211374   4.415   2.925   5.439
 3806TIP3    H111375   4.362   2.848   5.461
 3806TIP3    H211376   4.471   2.939   5.515
 3807TIP3   OH211377   1.231   1.000   5.112
 3807TIP3    H111378   1.259   0.913   5.085
 3807TIP3    H211379   1.291   1.060   5.067
 3808TIP3   OH211380   3.969   0.792   0.046
 3808TIP3    H111381   3.993   0.830   0.131
 3808TIP3    H211382   3.974   0.697   0.060
 3809TIP3   OH211383   4.499   5.985   4.877
 3809TIP3    H111384   4.505   6.009   4.785
 3809TIP3    H211385   4.427   5.922   4.881
 3810TIP3   OH211386   7.983   7.026   2.207
 3810TIP3    H111387   7.917   7.013   2.139
 3810TIP3    H211388   8.058   7.065   2.161
 3811TIP3   OH211389   4.304   4.099   6.717
 3811TIP3    H111390   4.218   4.072   6.687
 3811TIP3    H211391   4.296   4.193   6.733
 3812TIP3   OH211392   7.097   2.113   2.358
 3812TIP3    H111393   7.173   2.091   2.412
 3812TIP3    H211394   7.023   2.072   2.404
 3813TIP3   OH211395   3.259   7.027   4.591
 3813TIP3    H111396   3.274   7.120   4.608
 3813TIP3    H211397   3.345   6.992   4.567
 3814TIP3   OH211398   0.580   5.794   1.682
 3814TIP3    H111399   0.606   5.817   1.593
 3814TIP3    H211400   0.521   5.865   1.709
 3815TIP3   OH211401   5.761   3.255   0.641
 3815TIP3    H111402   5.836   3.294   0.596
 3815TIP3    H211403   5.797   3.224   0.724
 3816TIP3   OH211404   1.518   2.948   0.169
 3816TIP3    H111405   1.577   2.874   0.157
 3816TIP3    H211406   1.527   2.999   0.088
 3817TIP3   OH211407   4.760   0.768   1.012
 3817TIP3    H111408   4.747   0.688   0.961
 3817TIP3    H211409   4.686   0.824   0.987
 3818TIP3   OH211410   5.148   0.369   0.658
 3818TIP3    H111411   5.210   0.424   0.706
 3818TIP3    H211412   5.062   0.393   0.693
 3819TIP3   OH211413   5.382   2.733   4.704
 3819TIP3    H111414   5.393   2.825   4.680
 3819TIP3    H211415   5.462   2.691   4.675
 3820TIP3   OH211416   0.969   6.308   1.860
 3820TIP3    H111417   0.890   6.274   1.818
 3820TIP3    H211418   1.017   6.352   1.789
 3821TIP3   OH211419   3.117   0.681   1.064
 3821TIP3    H111420   3.195   0.652   1.016
 3821TIP3    H211421   3.056   0.608   1.056
 3822TIP3   OH211422   6.102   6.549   1.985
 3822TIP3    H111423   6.193   6.543   1.957
 3822TIP3    H211424   6.104   6.603   2.064
 3823TIP3   OH211425   6.283   3.711  -0.005
 3823TIP3    H111426   6.320   3.675  -0.086
 3823TIP3    H211427   6.334   3.671   0.065
 3824TIP3   OH211428   7.447   1.267   4.617
 3824TIP3    H111429   7.503   1.229   4.549
 3824TIP3    H211430   7.421   1.352   4.581
 3825TIP3   OH211431   1.794   1.215   2.917
 3825TIP3    H111432   1.726   1.282   2.917
 3825TIP3    H211433   1.796   1.183   3.007
 3826TIP3   OH211434   1.622   3.594   4.583
 3826TIP3    H111435   1.555   3.526   4.572
 3826TIP3    H211436   1.629   3.636   4.498
 3827TIP3   OH211437   4.216   6.586   4.145
 3827TIP3    H111438   4.171   6.614   4.065
 3827TIP3    H211439   4.295   6.542   4.115
 3828TIP3   OH211440   2.260   1.823   0.180
 3828TIP3    H111441   2.266   1.728   0.189
 3828TIP3    H211442   2.237   1.854   0.267
 3829TIP3   OH211443   7.019   3.513   2.665
 3829TIP3    H111444   7.033   3.455   2.590
 3829TIP3    H211445   7.106   3.527   2.701
 3830TIP3   OH211446   2.965   6.865   3.121
 3830TIP3    H111447   2.985   6.809   3.045
 3830TIP3    H211448   2.894   6.820   3.166
 3831TIP3   OH211449   1.103   4.415   4.974
 3831TIP3    H111450   1.186   4.391   4.932
 3831TIP3    H211451   1.076   4.336   5.021
 3832TIP3   OH211452   3.281   6.287   0.592
 3832TIP3    H111453   3.352   6.280   0.528
 3832TIP3    H211454   3.249   6.376   0.582
 3833TIP3   OH211455   1.490   1.294   1.794
 3833TIP3    H111456   1.546   1.348   1.739
 3833TIP3    H211457   1.491   1.208   1.753
 3834TIP3   OH211458   0.371   4.777   0.180
 3834TIP3    H111459   0.386   4.683   0.168
 3834TIP3    H211460   0.454   4.811   0.213
 3835TIP3   OH211461   4.392   2.079   3.302
 3835TIP3    H111462   4.429   2.071   3.390
 3835TIP3    H211463   4.362   2.170   3.297
 3836TIP3   OH211464   6.481   5.918   2.646
 3836TIP3    H111465   6.502   5.829   2.616
 3836TIP3    H211466   6.415   5.905   2.715
 3837TIP3   OH211467   0.617   7.664   6.352
 3837TIP3    H111468   0.584   7.592   6.299
 3837TIP3    H211469   0.559   7.666   6.429
 3838TIP3   OH211470   6.549   7.020   3.671
 3838TIP3    H111471   6.510   6.964   3.604
 3838TIP3    H211472   6.636   6.983   3.685
 3839TIP3   OH211473   4.949   5.331   0.218
 3839TIP3    H111474   4.991   5.271   0.157
 3839TIP3    H211475   5.019   5.361   0.276
 3840TIP3   OH211476   1.271   5.287   0.924
 3840TIP3    H111477   1.277   5.371   0.877
 3840TIP3    H211478   1.363   5.261   0.936
 3841TIP3   OH211479   5.892   1.512   0.107
 3841TIP3    H111480   5.877   1.417   0.108
 3841TIP3    H211481   5.834   1.546   0.175
 3842TIP3   OH211482   5.331   1.267   5.523
 3842TIP3    H111483   5.259   1.311   5.568
 3842TIP3    H211484   5.293   1.240   5.439
 3843TIP3   OH211485   3.304   6.212   4.134
 3843TIP3    H111486   3.314   6.126   4.176
 3843TIP3    H211487   3.222   6.246   4.169
 3844TIP3   OH211488   3.650   0.170   2.518
 3844TIP3    H111489   3.704   0.206   2.447
 3844TIP3    H211490   3.574   0.132   2.473
 3845TIP3   OH211491   4.006   4.242   0.850
 3845TIP3    H111492   3.918   4.208   0.867
 3845TIP3    H211493   4.062   4.165   0.852
 3846TIP3   OH211494   6.591   3.019   6.013
 3846TIP3    H111495   6.658   2.953   5.992
 3846TIP3    H211496   6.616   3.095   5.960
 3847TIP3   OH211497   5.802   6.790   5.683
 3847TIP3    H111498   5.875   6.734   5.656
 3847TIP3    H211499   5.753   6.807   5.603
 3848TIP3   OH211500   8.116   2.035   3.427
 3848TIP3    H111501   8.062   2.089   3.370
 3848TIP3    H211502   8.063   1.958   3.446
 3849TIP3   OH211503   6.547   6.004   3.074
 3849TIP3    H111504   6.619   6.019   3.014
 3849TIP3    H211505   6.564   6.062   3.148
 3850TIP3   OH211506   6.879   0.580   5.469
 3850TIP3    H111507   6.907   0.659   5.514
 3850TIP3    H211508   6.917   0.508   5.520
 3851TIP3   OH211509   6.147   4.395   3.805
 3851TIP3    H111510   6.238   4.380   3.828
 3851TIP3    H211511   6.126   4.481   3.844
 3852TIP3   OH211512   6.888   7.421   2.364
 3852TIP3    H111513   6.855   7.361   2.430
 3852TIP3    H211514   6.956   7.471   2.408
 3853TIP3   OH211515   7.168   5.337   3.756
 3853TIP3    H111516   7.195   5.372   3.840
 3853TIP3    H211517   7.073   5.337   3.759
 3854TIP3   OH211518   0.705   0.778   3.275
 3854TIP3    H111519   0.789   0.815   3.301
 3854TIP3    H211520   0.641   0.821   3.332
 3855TIP3   OH211521   2.943   7.187   1.094
 3855TIP3    H111522   3.001   7.162   1.166
 3855TIP3    H211523   2.970   7.130   1.021
 3856TIP3   OH211524   6.634   4.343   1.108
 3856TIP3    H111525   6.619   4.392   1.027
 3856TIP3    H211526   6.546   4.325   1.142
 3857TIP3   OH211527   5.384   6.010   2.285
 3857TIP3    H111528   5.371   6.105   2.281
 3857TIP3    H211529   5.312   5.974   2.232
 3858TIP3   OH211530   2.729   5.180   3.364
 3858TIP3    H111531   2.676   5.206   3.439
 3858TIP3    H211532   2.738   5.260   3.312
 3859TIP3   OH211533   4.654   6.729   2.376
 3859TIP3    H111534   4.682   6.818   2.397
 3859TIP3    H211535   4.736   6.679   2.372
 3860TIP3   OH211536   2.581   6.879   0.096
 3860TIP3    H111537   2.516   6.822   0.054
 3860TIP3    H211538   2.600   6.836   0.180
 3861TIP3   OH211539   3.949   6.454   2.244
 3861TIP3    H111540   3.913   6.376   2.202
 3861TIP3    H211541   3.910   6.527   2.196
 3862TIP3   OH211542   7.081   6.242   0.388
 3862TIP3    H111543   7.134   6.207   0.316
 3862TIP3    H211544   7.099   6.336   0.387
 3863TIP3   OH211545   7.604   2.710   1.534
 3863TIP3    H111546   7.677   2.653   1.561
 3863TIP3    H211547   7.556   2.727   1.615
 3864TIP3   OH211548   2.725   5.009   3.838
 3864TIP3    H111549   2.685   5.053   3.912
 3864TIP3    H211550   2.651   4.984   3.782
 3865TIP3   OH211551   0.719   7.162   5.527
 3865TIP3    H111552   0.669   7.122   5.597
 3865TIP3    H211553   0.721   7.097   5.457
 3866TIP3   OH211554   2.474   3.618   5.751
 3866TIP3    H111555   2.498   3.537   5.705
 3866TIP3    H211556   2.475   3.593   5.844
 3867TIP3   OH211557   1.684   5.921   2.979
 3867TIP3    H111558   1.762   5.892   3.026
 3867TIP3    H211559   1.715   5.937   2.889
 3868TIP3   OH211560   7.566   4.981   1.798
 3868TIP3    H111561   7.577   5.005   1.706
 3868TIP3    H211562   7.648   5.009   1.840
 3869TIP3   OH211563   6.094   2.478   6.040
 3869TIP3    H111564   6.042   2.556   6.023
 3869TIP3    H211565   6.149   2.468   5.962
 3870TIP3   OH211566   7.599   2.774   0.697
 3870TIP3    H111567   7.535   2.768   0.767
 3870TIP3    H211568   7.552   2.748   0.618
 3871TIP3   OH211569   2.083   3.293   4.723
 3871TIP3    H111570   1.997   3.261   4.696
 3871TIP3    H211571   2.108   3.235   4.795
 3872TIP3   OH211572   4.385   0.753   4.491
 3872TIP3    H111573   4.430   0.836   4.481
 3872TIP3    H211574   4.417   0.717   4.574
 3873TIP3   OH211575   8.286   0.860   4.141
 3873TIP3    H111576   8.348   0.932   4.158
 3873TIP3    H211577   8.277   0.859   4.046
 3874TIP3   OH211578   1.838   4.086   2.209
 3874TIP3    H111579   1.923   4.086   2.254
 3874TIP3    H211580   1.831   4.174   2.172
 3875TIP3   OH211581   5.447   3.697   6.144
 3875TIP3    H111582   5.402   3.777   6.172
 3875TIP3    H211583   5.476   3.716   6.055
 3876TIP3   OH211584   2.768   6.256   6.123
 3876TIP3    H111585   2.739   6.213   6.204
 3876TIP3    H211586   2.796   6.343   6.151
 3877TIP3   OH211587   4.126   2.100   1.753
 3877TIP3    H111588   4.093   2.171   1.698
 3877TIP3    H211589   4.059   2.090   1.821
 3878TIP3   OH211590   2.159   0.601   1.467
 3878TIP3    H111591   2.253   0.604   1.447
 3878TIP3    H211592   2.142   0.682   1.514
 3879TIP3   OH211593   8.275   3.904   0.238
 3879TIP3    H111594   8.277   3.882   0.145
 3879TIP3    H211595   8.195   3.864   0.271
 3880TIP3   OH211596   2.395   4.062   5.904
 3880TIP3    H111597   2.343   3.997   5.857
 3880TIP3    H211598   2.333   4.105   5.962
 3881TIP3   OH211599   1.964   5.979   6.490
 3881TIP3    H111600   2.016   6.036   6.432
 3881TIP3    H211601   1.873   5.999   6.468
 3882TIP3   OH211602   7.481   6.703   1.757
 3882TIP3    H111603   7.405   6.753   1.786
 3882TIP3    H211604   7.446   6.617   1.736
 3883TIP3   OH211605   6.871   6.269   3.865
 3883TIP3    H111606   6.820   6.269   3.784
 3883TIP3    H211607   6.876   6.361   3.891
 3884TIP3   OH211608   0.335   3.070   3.067
 3884TIP3    H111609   0.354   3.068   3.161
 3884TIP3    H211610   0.293   3.156   3.054
 3885TIP3   OH211611   0.933   2.523   1.756
 3885TIP3    H111612   1.003   2.587   1.751
 3885TIP3    H211613   0.877   2.542   1.680
 3886TIP3   OH211614   1.254   2.093   3.563
 3886TIP3    H111615   1.188   2.111   3.496
 3886TIP3    H211616   1.303   2.175   3.571
 3887TIP3   OH211617   5.382   4.291   0.827
 3887TIP3    H111618   5.297   4.305   0.784
 3887TIP3    H211619   5.400   4.198   0.815
 3888TIP3   OH211620   6.432   2.429   6.052
 3888TIP3    H111621   6.342   2.427   6.020
 3888TIP3    H211622   6.448   2.521   6.071
 3889TIP3   OH211623   0.828   1.193   0.623
 3889TIP3    H111624   0.756   1.256   0.614
 3889TIP3    H211625   0.806   1.123   0.562
 3890TIP3   OH211626   8.046   3.789   0.399
 3890TIP3    H111627   7.961   3.805   0.441
 3890TIP3    H211628   8.105   3.766   0.471
 3891TIP3   OH211629   8.118   6.572   2.344
 3891TIP3    H111630   8.132   6.564   2.250
 3891TIP3    H211631   8.026   6.598   2.353
 3892TIP3   OH211632   0.667   4.489   3.942
 3892TIP3    H111633   0.632   4.458   4.025
 3892TIP3    H211634   0.639   4.580   3.936
 3893TIP3   OH211635   7.979   0.323   0.606
 3893TIP3    H111636   7.901   0.295   0.655
 3893TIP3    H211637   8.047   0.261   0.631
 3894TIP3   OH211638   2.126   4.801   2.873
 3894TIP3    H111639   2.210   4.788   2.916
 3894TIP3    H211640   2.083   4.870   2.924
 3895TIP3   OH211641   2.076   0.205   4.931
 3895TIP3    H111642   2.165   0.225   4.905
 3895TIP3    H211643   2.084   0.164   5.016
 3896TIP3   OH211644   2.024   4.478   0.639
 3896TIP3    H111645   1.956   4.411   0.634
 3896TIP3    H211646   1.986   4.547   0.693
 3897TIP3   OH211647   3.529   3.451   5.252
 3897TIP3    H111648   3.521   3.380   5.188
 3897TIP3    H211649   3.581   3.518   5.207
 3898TIP3   OH211650   3.609   4.820   3.858
 3898TIP3    H111651   3.587   4.820   3.951
 3898TIP3    H211652   3.549   4.757   3.820
 3899TIP3   OH211653   0.982   6.147   4.175
 3899TIP3    H111654   0.917   6.081   4.152
 3899TIP3    H211655   1.064   6.112   4.141
 3900TIP3   OH211656   2.794   2.850   6.060
 3900TIP3    H111657   2.758   2.833   6.147
 3900TIP3    H211658   2.857   2.780   6.045
 3901TIP3   OH211659   5.510   7.372   1.600
 3901TIP3    H111660   5.580   7.438   1.601
 3901TIP3    H211661   5.429   7.424   1.590
 3902TIP3   OH211662   1.201   3.444   6.594
 3902TIP3    H111663   1.199   3.390   6.515
 3902TIP3    H211664   1.226   3.531   6.564
 3903TIP3   OH211665   7.822   3.416   5.255
 3903TIP3    H111666   7.854   3.439   5.342
 3903TIP3    H211667   7.897   3.430   5.197
 3904TIP3   OH211668   1.492   4.846   2.108
 3904TIP3    H111669   1.413   4.876   2.154
 3904TIP3    H211670   1.466   4.843   2.016
 3905TIP3   OH211671   5.391   6.130   6.127
 3905TIP3    H111672   5.417   6.221   6.115
 3905TIP3    H211673   5.346   6.128   6.211
 3906TIP3   OH211674   5.988   7.059   1.838
 3906TIP3    H111675   5.907   7.090   1.796
 3906TIP3    H211676   6.058   7.096   1.785
 3907TIP3   OH211677   1.818   2.369   6.133
 3907TIP3    H111678   1.727   2.370   6.102
 3907TIP3    H211679   1.846   2.461   6.127
 3908TIP3   OH211680   7.537   1.084   3.873
 3908TIP3    H111681   7.580   1.053   3.953
 3908TIP3    H211682   7.609   1.114   3.817
 3909TIP3   OH211683   5.572   3.838   6.398
 3909TIP3    H111684   5.554   3.809   6.488
 3909TIP3    H211685   5.534   3.925   6.393
 3910TIP3   OH211686   3.962   4.654   0.622
 3910TIP3    H111687   3.898   4.725   0.632
 3910TIP3    H211688   4.003   4.646   0.708
 3911TIP3   OH211689   3.376   1.478   2.963
 3911TIP3    H111690   3.455   1.436   2.928
 3911TIP3    H211691   3.338   1.411   3.021
 3912TIP3   OH211692   0.891   2.197   6.050
 3912TIP3    H111693   0.810   2.245   6.065
 3912TIP3    H211694   0.892   2.177   5.957
 3913TIP3   OH211695   6.936   3.778   0.913
 3913TIP3    H111696   6.926   3.684   0.932
 3913TIP3    H211697   6.976   3.779   0.826
 3914TIP3   OH211698   1.698   6.358   1.468
 3914TIP3    H111699   1.640   6.327   1.399
 3914TIP3    H211700   1.654   6.333   1.549
 3915TIP3   OH211701   2.045   2.109   3.706
 3915TIP3    H111702   2.025   2.155   3.624
 3915TIP3    H211703   1.984   2.036   3.707
 3916TIP3   OH211704   3.004   6.427   1.068
 3916TIP3    H111705   3.016   6.505   1.123
 3916TIP3    H211706   3.051   6.357   1.115
 3917TIP3   OH211707   6.418   3.864   6.376
 3917TIP3    H111708   6.409   3.841   6.468
 3917TIP3    H211709   6.442   3.957   6.376
 3918TIP3   OH211710   0.190   2.449   2.893
 3918TIP3    H111711   0.155   2.365   2.865
 3918TIP3    H211712   0.123   2.512   2.869
 3919TIP3   OH211713   3.234   3.230   5.792
 3919TIP3    H111714   3.239   3.275   5.708
 3919TIP3    H211715   3.146   3.192   5.794
 3920TIP3   OH211716   7.737   3.725   0.502
 3920TIP3    H111717   7.796   3.711   0.577
 3920TIP3    H211718   7.752   3.649   0.446
 3921TIP3   OH211719   5.796   6.689   6.133
 3921TIP3    H111720   5.750   6.697   6.049
 3921TIP3    H211721   5.837   6.603   6.129
 3922TIP3   OH211722   6.288   2.317   2.906
 3922TIP3    H111723   6.356   2.249   2.907
 3922TIP3    H211724   6.236   2.300   2.984
 3923TIP3   OH211725   5.658   2.487   0.695
 3923TIP3    H111726   5.635   2.535   0.616
 3923TIP3    H211727   5.681   2.555   0.758
 3924TIP3   OH211728   5.909   4.769   2.558
 3924TIP3    H111729   5.986   4.776   2.615
 3924TIP3    H211730   5.928   4.693   2.502
 3925TIP3   OH211731   5.852   6.571   6.771
 3925TIP3    H111732   5.771   6.557   6.721
 3925TIP3    H211733   5.914   6.604   6.706
 3926TIP3   OH211734   6.854   2.814   0.339
 3926TIP3    H111735   6.788   2.792   0.405
 3926TIP3    H211736   6.834   2.756   0.265
 3927TIP3   OH211737   4.226   3.512   1.411
 3927TIP3    H111738   4.274   3.572   1.354
 3927TIP3    H211739   4.237   3.548   1.498
 3928TIP3   OH211740   7.186   2.965   6.684
 3928TIP3    H111741   7.177   3.014   6.602
 3928TIP3    H211742   7.138   3.017   6.748
 3929TIP3   OH211743   0.680   7.561   2.337
 3929TIP3    H111744   0.710   7.504   2.266
 3929TIP3    H211745   0.755   7.566   2.397
 3930TIP3   OH211746   8.078   4.055   3.606
 3930TIP3    H111747   8.067   4.049   3.511
 3930TIP3    H211748   8.050   3.969   3.639
 3931TIP3   OH211749   6.202   4.830   3.810
 3931TIP3    H111750   6.161   4.893   3.868
 3931TIP3    H211751   6.293   4.826   3.840
 3932TIP3   OH211752   2.869   0.893   0.125
 3932TIP3    H111753   2.964   0.898   0.136
 3932TIP3    H211754   2.845   0.981   0.097
 3933TIP3   OH211755   6.223   3.604   5.904
 3933TIP3    H111756   6.237   3.511   5.887
 3933TIP3    H211757   6.311   3.641   5.903
 3934TIP3   OH211758   5.703   6.208   5.448
 3934TIP3    H111759   5.663   6.265   5.382
 3934TIP3    H211760   5.699   6.259   5.529
 3935TIP3   OH211761   0.254   1.621   2.291
 3935TIP3    H111762   0.221   1.540   2.330
 3935TIP3    H211763   0.198   1.634   2.214
 3936TIP3   OH211764   4.064   2.211   5.790
 3936TIP3    H111765   4.140   2.158   5.814
 3936TIP3    H211766   4.053   2.197   5.696
 3937TIP3   OH211767   2.970   6.866   5.909
 3937TIP3    H111768   3.038   6.801   5.896
 3937TIP3    H211769   3.014   6.939   5.953
 3938TIP3   OH211770   2.391   2.854   2.738
 3938TIP3    H111771   2.408   2.797   2.813
 3938TIP3    H211772   2.475   2.899   2.723
 3939TIP3   OH211773   5.726   7.196   2.467
 3939TIP3    H111774   5.644   7.161   2.431
 3939TIP3    H211775   5.704   7.226   2.554
 3940TIP3   OH211776   3.890   2.773   1.974
 3940TIP3    H111777   3.811   2.737   1.933
 3940TIP3    H211778   3.934   2.821   1.904
 3941TIP3   OH211779   7.499   6.018   0.959
 3941TIP3    H111780   7.419   6.032   1.011
 3941TIP3    H211781   7.535   6.105   0.946
 3942TIP3   OH211782   3.964   1.540   3.928
 3942TIP3    H111783   3.908   1.578   3.996
 3942TIP3    H211784   4.006   1.465   3.970
 3943TIP3   OH211785   4.252   6.638   3.213
 3943TIP3    H111786   4.255   6.685   3.297
 3943TIP3    H211787   4.290   6.699   3.150
 3944TIP3   OH211788   0.953   1.614   0.635
 3944TIP3    H111789   0.903   1.585   0.710
 3944TIP3    H211790   0.903   1.687   0.598
 3945TIP3   OH211791   7.598   2.204   5.635
 3945TIP3    H111792   7.663   2.159   5.581
 3945TIP3    H211793   7.603   2.295   5.607
 3946TIP3   OH211794   3.538   2.338   4.030
 3946TIP3    H111795   3.579   2.419   4.058
 3946TIP3    H211796   3.462   2.328   4.088
 3947TIP3   OH211797   8.052   1.901   6.032
 3947TIP3    H111798   7.987   1.945   5.978
 3947TIP3    H211799   8.119   1.873   5.970
 3948TIP3   OH211800   5.011   2.890   0.759
 3948TIP3    H111801   5.005   2.823   0.826
 3948TIP3    H211802   5.032   2.842   0.679
 3949TIP3   OH211803   3.158   4.421   2.243
 3949TIP3    H111804   3.227   4.356   2.231
 3949TIP3    H211805   3.111   4.422   2.160
 3950TIP3   OH211806   6.464   6.737   4.504
 3950TIP3    H111807   6.403   6.809   4.513
 3950TIP3    H211808   6.435   6.690   4.426
 3951TIP3   OH211809   4.008   6.909   2.110
 3951TIP3    H111810   4.087   6.933   2.061
 3951TIP3    H211811   4.016   6.957   2.193
 3952TIP3   OH211812   4.800   3.537   5.428
 3952TIP3    H111813   4.814   3.552   5.522
 3952TIP3    H211814   4.710   3.504   5.423
 3953TIP3   OH211815   2.748   2.412   1.030
 3953TIP3    H111816   2.722   2.320   1.031
 3953TIP3    H211817   2.843   2.411   1.021
 3954TIP3   OH211818   7.445   5.270   6.577
 3954TIP3    H111819   7.491   5.269   6.661
 3954TIP3    H211820   7.377   5.203   6.585
 3955TIP3   OH211821   2.390   6.997   0.370
 3955TIP3    H111822   2.439   7.052   0.309
 3955TIP3    H211823   2.455   6.964   0.432
 3956TIP3   OH211824   1.384   1.583   5.834
 3956TIP3    H111825   1.462   1.636   5.816
 3956TIP3    H211826   1.347   1.565   5.747
 3957TIP3   OH211827   1.308   2.023   0.736
 3957TIP3    H111828   1.273   2.038   0.824
 3957TIP3    H211829   1.267   1.941   0.708
 3958TIP3   OH211830   0.727   2.791   0.793
 3958TIP3    H111831   0.683   2.852   0.734
 3958TIP3    H211832   0.818   2.789   0.764
 3959TIP3   OH211833   4.168   6.982   2.764
 3959TIP3    H111834   4.087   6.992   2.715
 3959TIP3    H211835   4.170   6.889   2.788
 3960TIP3   OH211836   3.340   6.710   1.828
 3960TIP3    H111837   3.357   6.674   1.915
 3960TIP3    H211838   3.338   6.805   1.841
 3961TIP3   OH211839   8.151   5.556   5.977
 3961TIP3    H111840   8.192   5.578   5.893
 3961TIP3    H211841   8.132   5.641   6.017
 3962TIP3   OH211842   8.210   0.756   0.101
 3962TIP3    H111843   8.284   0.815   0.086
 3962TIP3    H211844   8.167   0.791   0.179
 3963TIP3   OH211845   4.873   1.145   1.428
 3963TIP3    H111846   4.847   1.235   1.448
 3963TIP3    H211847   4.943   1.154   1.363
 3964TIP3   OH211848   0.380   5.305   6.008
 3964TIP3    H111849   0.311   5.368   5.985
 3964TIP3    H211850   0.461   5.354   5.998
 3965TIP3   OH211851   7.297   6.320   5.710
 3965TIP3    H111852   7.310   6.384   5.780
 3965TIP3    H211853   7.299   6.372   5.629
 3966TIP3   OH211854   5.589   4.184   3.644
 3966TIP3    H111855   5.580   4.164   3.738
 3966TIP3    H211856   5.654   4.121   3.613
 3967TIP3   OH211857   4.735   4.307   3.766
 3967TIP3    H111858   4.709   4.368   3.835
 3967TIP3    H211859   4.791   4.359   3.708
 3968TIP3   OH211860   2.075   1.207   6.497
 3968TIP3    H111861   2.098   1.222   6.406
 3968TIP3    H211862   2.157   1.213   6.545
 3969TIP3   OH211863   6.373   4.329   3.560
 3969TIP3    H111864   6.315   4.394   3.600
 3969TIP3    H211865   6.455   4.337   3.609
 3970TIP3   OH211866   3.368   4.356   6.023
 3970TIP3    H111867   3.423   4.422   5.982
 3970TIP3    H211868   3.425   4.313   6.087
 3971TIP3   OH211869   4.623   3.073   1.161
 3971TIP3    H111870   4.545   3.102   1.208
 3971TIP3    H211871   4.594   3.067   1.070
 3972TIP3   OH211872   0.375   5.563   5.348
 3972TIP3    H111873   0.384   5.474   5.382
 3972TIP3    H211874   0.295   5.596   5.390
 3973TIP3   OH211875   1.094   4.276   4.152
 3973TIP3    H111876   1.015   4.330   4.150
 3973TIP3    H211877   1.161   4.334   4.188
 3974TIP3   OH211878   1.573   1.242   6.053
 3974TIP3    H111879   1.591   1.257   6.146
 3974TIP3    H211880   1.569   1.146   6.044
 3975TIP3   OH211881   1.436   0.568   4.333
 3975TIP3    H111882   1.486   0.627   4.389
 3975TIP3    H211883   1.503   0.517   4.287
 3976TIP3   OH211884   4.125   4.904   2.271
 3976TIP3    H111885   4.187   4.923   2.200
 3976TIP3    H211886   4.180   4.883   2.346
 3977TIP3   OH211887   0.789   6.595   5.517
 3977TIP3    H111888   0.884   6.598   5.525
 3977TIP3    H211889   0.772   6.612   5.425
 3978TIP3   OH211890   6.573   1.645   0.548
 3978TIP3    H111891   6.625   1.565   0.561
 3978TIP3    H211892   6.628   1.715   0.585
 3979TIP3   OH211893   7.660   0.080   1.481
 3979TIP3    H111894   7.665   0.065   1.575
 3979TIP3    H211895   7.588   0.024   1.452
 3980TIP3   OH211896   4.396   2.078   3.028
 3980TIP3    H111897   4.370   2.078   3.120
 3980TIP3    H211898   4.473   2.134   3.024
 3981TIP3   OH211899   0.820   4.152   2.205
 3981TIP3    H111900   0.883   4.127   2.136
 3981TIP3    H211901   0.743   4.098   2.187
 3982TIP3   OH211902   2.527   1.966   2.141
 3982TIP3    H111903   2.485   1.966   2.227
 3982TIP3    H211904   2.532   1.873   2.117
 3983TIP3   OH211905   0.493   5.730   5.802
 3983TIP3    H111906   0.430   5.787   5.759
 3983TIP3    H211907   0.541   5.689   5.730
 3984TIP3   OH211908   3.675   2.121   3.619
 3984TIP3    H111909   3.607   2.188   3.628
 3984TIP3    H211910   3.741   2.144   3.684
 3985TIP3   OH211911   2.336   6.397   5.214
 3985TIP3    H111912   2.426   6.365   5.226
 3985TIP3    H211913   2.285   6.317   5.200
 3986TIP3   OH211914   2.017   6.170   2.183
 3986TIP3    H111915   1.943   6.220   2.217
 3986TIP3    H211916   2.079   6.167   2.256
 3987TIP3   OH211917   7.351   4.214   6.135
 3987TIP3    H111918   7.290   4.187   6.066
 3987TIP3    H211919   7.322   4.301   6.160
 3988TIP3   OH211920   4.640   5.191   4.770
 3988TIP3    H111921   4.625   5.240   4.851
 3988TIP3    H211922   4.595   5.242   4.702
 3989TIP3   OH211923   5.452   5.209   4.875
 3989TIP3    H111924   5.512   5.271   4.833
 3989TIP3    H211925   5.503   5.128   4.883
 3990TIP3   OH211926   5.430   5.980   1.846
 3990TIP3    H111927   5.361   5.916   1.828
 3990TIP3    H211928   5.488   5.935   1.908
 3991TIP3   OH211929   7.180   7.253   2.357
 3991TIP3    H111930   7.264   7.214   2.383
 3991TIP3    H211931   7.166   7.324   2.420
 3992TIP3   OH211932   2.935   3.647   5.549
 3992TIP3    H111933   2.859   3.683   5.595
 3992TIP3    H211934   2.982   3.724   5.517
 3993TIP3   OH211935   6.867   6.859   1.165
 3993TIP3    H111936   6.961   6.863   1.179
 3993TIP3    H211937   6.851   6.912   1.087
 3994TIP3   OH211938   3.620   1.850   2.465
 3994TIP3    H111939   3.701   1.895   2.442
 3994TIP3    H211940   3.575   1.910   2.524
 3995TIP3   OH211941   1.789   5.973   1.700
 3995TIP3    H111942   1.881   5.972   1.674
 3995TIP3    H211943   1.771   6.065   1.721
 3996TIP3   OH211944   2.792   4.030   3.243
 3996TIP3    H111945   2.744   3.982   3.175
 3996TIP3    H211946   2.733   4.027   3.319
 3997TIP3   OH211947   4.871   0.718   4.245
 3997TIP3    H111948   4.827   0.686   4.167
 3997TIP3    H211949   4.938   0.652   4.264
 3998TIP3   OH211950   5.402   6.684   0.409
 3998TIP3    H111951   5.401   6.656   0.318
 3998TIP3    H211952   5.448   6.768   0.408
 3999TIP3   OH211953   1.297   7.545   6.510
 3999TIP3    H111954   1.391   7.559   6.518
 3999TIP3    H211955   1.278   7.560   6.418
 4000TIP3   OH211956   6.651   4.205   5.524
 4000TIP3    H111957   6.707   4.138   5.484
 4000TIP3    H211958   6.574   4.210   5.467
 4001TIP3   OH211959   3.960   5.144   0.342
 4001TIP3    H111960   4.034   5.084   0.340
 4001TIP3    H211961   3.984   5.214   0.281
 4002TIP3   OH211962   5.086   2.837   3.802
 4002TIP3    H111963   5.148   2.845   3.730
 4002TIP3    H211964   5.061   2.745   3.801
 4003TIP3   OH211965   6.710   1.320   5.308
 4003TIP3    H111966   6.793   1.292   5.268
 4003TIP3    H211967   6.651   1.332   5.233
 4004TIP3   OH211968   7.497   3.124   5.718
 4004TIP3    H111969   7.588   3.126   5.749
 4004TIP3    H211970   7.452   3.064   5.778
 4005TIP3   OH211971   4.209   2.658   0.222
 4005TIP3    H111972   4.259   2.717   0.278
 4005TIP3    H211973   4.124   2.650   0.266
 4006TIP3   OH211974   0.870   4.071   3.456
 4006TIP3    H111975   0.952   4.120   3.451
 4006TIP3    H211976   0.882   3.998   3.395
 4007TIP3   OH211977   3.391   6.772   2.674
 4007TIP3    H111978   3.334   6.796   2.601
 4007TIP3    H211979   3.333   6.767   2.750
 4008TIP3   OH211980   7.448   7.259   5.040
 4008TIP3    H111981   7.540   7.235   5.034
 4008TIP3    H211982   7.428   7.300   4.955
 4009TIP3   OH211983   7.360   0.933   3.518
 4009TIP3    H111984   7.315   0.851   3.543
 4009TIP3    H211985   7.325   0.998   3.579
 4010TIP3   OH211986   2.056   3.610   2.801
 4010TIP3    H111987   2.104   3.616   2.883
 4010TIP3    H211988   2.020   3.521   2.801
 4011TIP3   OH211989   2.682   4.007   1.246
 4011TIP3    H111990   2.746   4.024   1.177
 4011TIP3    H211991   2.695   3.915   1.269
 4012TIP3   OH211992   6.906   2.847   3.270
 4012TIP3    H111993   6.854   2.819   3.194
 4012TIP3    H211994   6.991   2.806   3.257
 4013TIP3   OH211995   3.339   5.361   5.449
 4013TIP3    H111996   3.418   5.318   5.417
 4013TIP3    H211997   3.346   5.451   5.419
 4014TIP3   OH211998   3.696   2.891   4.064
 4014TIP3    H111999   3.611   2.936   4.059
 4014TIP3    H212000   3.728   2.912   4.152
 4015TIP3   OH212001   7.201   5.356   2.687
 4015TIP3    H112002   7.216   5.392   2.599
 4015TIP3    H212003   7.260   5.280   2.691
 4016TIP3   OH212004   3.639   7.207   4.064
 4016TIP3    H112005   3.645   7.302   4.066
 4016TIP3    H212006   3.575   7.185   4.131
 4017TIP3   OH212007   6.226   1.399   1.602
 4017TIP3    H112008   6.187   1.401   1.689
 4017TIP3    H212009   6.307   1.350   1.613
 4018TIP3   OH212010   2.351   2.480   0.364
 4018TIP3    H112011   2.333   2.390   0.337
 4018TIP3    H212012   2.303   2.534   0.302
 4019TIP3   OH212013   6.549   0.695   0.823
 4019TIP3    H112014   6.497   0.756   0.876
 4019TIP3    H212015   6.639   0.726   0.832
 4020TIP3   OH212016   3.506   0.872   2.802
 4020TIP3    H112017   3.435   0.888   2.740
 4020TIP3    H212018   3.586   0.895   2.754
 4021TIP3   OH212019   0.555   5.361   6.647
 4021TIP3    H112020   0.482   5.409   6.608
 4021TIP3    H212021   0.537   5.363   6.741
 4022TIP3   OH212022   4.654   2.545   5.226
 4022TIP3    H112023   4.642   2.471   5.166
 4022TIP3    H212024   4.749   2.555   5.233
 4023TIP3   OH212025   3.115   1.133   3.573
 4023TIP3    H112026   3.122   1.047   3.612
 4023TIP3    H212027   3.021   1.151   3.571
 4024TIP3   OH212028   3.509   3.209   3.055
 4024TIP3    H112029   3.526   3.176   3.143
 4024TIP3    H212030   3.501   3.130   3.001
 4025TIP3   OH212031   0.300   6.686   1.489
 4025TIP3    H112032   0.337   6.758   1.438
 4025TIP3    H212033   0.216   6.668   1.446
 4026TIP3   OH212034   7.870   1.827   4.426
 4026TIP3    H112035   7.943   1.765   4.425
 4026TIP3    H212036   7.839   1.826   4.517
 4027TIP3   OH212037   1.788   2.697   2.987
 4027TIP3    H112038   1.721   2.681   3.053
 4027TIP3    H212039   1.824   2.610   2.968
 4028TIP3   OH212040   6.467   2.089   2.371
 4028TIP3    H112041   6.540   2.044   2.414
 4028TIP3    H212042   6.453   2.039   2.291
 4029TIP3   OH212043   0.553   0.264   5.892
 4029TIP3    H112044   0.625   0.237   5.949
 4029TIP3    H212045   0.515   0.181   5.861
 4030TIP3   OH212046   2.734   2.268   4.352
 4030TIP3    H112047   2.648   2.299   4.325
 4030TIP3    H212048   2.790   2.345   4.350
 4031TIP3   OH212049   0.703   6.221   5.593
 4031TIP3    H112050   0.719   6.221   5.688
 4031TIP3    H212051   0.612   6.247   5.584
 4032TIP3   OH212052   0.610   4.755   3.962
 4032TIP3    H112053   0.516   4.752   3.946
 4032TIP3    H212054   0.637   4.841   3.930
 4033TIP3   OH212055   5.146   1.251   0.389
 4033TIP3    H112056   5.116   1.182   0.449
 4033TIP3    H212057   5.221   1.212   0.344
 4034TIP3   OH212058   7.917   5.819   5.017
 4034TIP3    H112059   7.899   5.798   5.109
 4034TIP3    H212060   7.991   5.880   5.021
 4035TIP3   OH212061   4.433   4.326   1.497
 4035TIP3    H112062   4.360   4.384   1.475
 4035TIP3    H212063   4.501   4.346   1.433
 4036TIP3   OH212064   4.838   6.006   2.244
 4036TIP3    H112065   4.898   6.071   2.208
 4036TIP3    H212066   4.843   6.018   2.339
 4037TIP3   OH212067   0.509   6.085   5.160
 4037TIP3    H112068   0.484   6.159   5.216
 4037TIP3    H212069   0.525   6.124   5.074
 4038TIP3   OH212070   1.749   7.868   4.262
 4038TIP3    H112071   1.698   7.948   4.274
 4038TIP3    H212072   1.725   7.837   4.175
 4039TIP3   OH212073   7.583   6.055   2.327
 4039TIP3    H112074   7.558   5.975   2.281
 4039TIP3    H212075   7.617   6.025   2.411
 4040TIP3   OH212076   4.725   7.051   0.258
 4040TIP3    H112077   4.675   7.030   0.336
 4040TIP3    H212078   4.756   7.141   0.272
 4041TIP3   OH212079   0.619   1.372   5.562
 4041TIP3    H112080   0.683   1.361   5.492
 4041TIP3    H212081   0.598   1.282   5.589
 4042TIP3   OH212082   7.293   1.794   4.931
 4042TIP3    H112083   7.239   1.733   4.981
 4042TIP3    H212084   7.306   1.750   4.846
 4043TIP3   OH212085   3.831   3.290   1.127
 4043TIP3    H112086   3.910   3.341   1.148
 4043TIP3    H212087   3.766   3.320   1.191
 4044TIP3   OH212088   1.956   7.497   6.128
 4044TIP3    H112089   1.861   7.505   6.122
 4044TIP3    H212090   1.972   7.404   6.144
 4045TIP3   OH212091   1.343   5.167   0.418
 4045TIP3    H112092   1.327   5.129   0.505
 4045TIP3    H212093   1.439   5.175   0.414
 4046TIP3   OH212094   3.615   1.202   3.523
 4046TIP3    H112095   3.571   1.254   3.590
 4046TIP3    H212096   3.571   1.225   3.441
 4047TIP3   OH212097   7.732   0.093   5.676
 4047TIP3    H112098   7.643   0.064   5.696
 4047TIP3    H212099   7.759   0.142   5.754
 4048TIP3   OH212100   7.387   1.527   4.455
 4048TIP3    H112101   7.447   1.540   4.381
 4048TIP3    H212102   7.332   1.453   4.428
 4049TIP3   OH212103   2.861   1.800   5.171
 4049TIP3    H112104   2.871   1.869   5.106
 4049TIP3    H212105   2.826   1.844   5.248
 4050TIP3   OH212106   4.133   6.559   3.885
 4050TIP3    H112107   4.167   6.550   3.796
 4050TIP3    H212108   4.058   6.500   3.889
 4051TIP3   OH212109   6.266   7.808   2.114
 4051TIP3    H112110   6.359   7.787   2.124
 4051TIP3    H212111   6.221   7.725   2.131
 4052TIP3   OH212112   4.418   3.012   3.738
 4052TIP3    H112113   4.482   3.032   3.806
 4052TIP3    H212114   4.470   2.978   3.665
 4053TIP3   OH212115   5.821   4.577   1.867
 4053TIP3    H112116   5.828   4.651   1.927
 4053TIP3    H212117   5.857   4.609   1.784
 4054TIP3   OH212118   6.810   5.066   1.332
 4054TIP3    H112119   6.889   5.030   1.291
 4054TIP3    H212120   6.799   5.015   1.412
 4055TIP3   OH212121   5.121   1.805   4.262
 4055TIP3    H112122   5.127   1.743   4.189
 4055TIP3    H212123   5.064   1.875   4.229
 4056TIP3   OH212124   2.116   5.622   1.419
 4056TIP3    H112125   2.131   5.685   1.349
 4056TIP3    H212126   2.058   5.666   1.480
 4057TIP3   OH212127   1.383   4.244   4.434
 4057TIP3    H112128   1.343   4.167   4.474
 4057TIP3    H212129   1.466   4.213   4.399
 4058TIP3   OH212130   0.234   3.489   4.484
 4058TIP3    H112131   0.282   3.561   4.527
 4058TIP3    H212132   0.171   3.461   4.550
 4059TIP3   OH212133   2.263   3.458   6.264
 4059TIP3    H112134   2.182   3.416   6.292
 4059TIP3    H212135   2.272   3.434   6.171
 4060TIP3   OH212136   4.749   1.391   4.036
 4060TIP3    H112137   4.729   1.300   4.016
 4060TIP3    H212138   4.841   1.401   4.011
 4061TIP3   OH212139   5.508   5.420   6.462
 4061TIP3    H112140   5.550   5.339   6.491
 4061TIP3    H212141   5.577   5.487   6.468
 4062TIP3   OH212142   5.247   4.740   5.315
 4062TIP3    H112143   5.272   4.793   5.390
 4062TIP3    H212144   5.225   4.654   5.352
 4063TIP3   OH212145   7.825   0.849   2.188
 4063TIP3    H112146   7.764   0.825   2.258
 4063TIP3    H212147   7.879   0.770   2.175
 4064TIP3   OH212148   3.891   5.712   3.702
 4064TIP3    H112149   3.845   5.633   3.733
 4064TIP3    H212150   3.939   5.683   3.625
 4065TIP3   OH212151   0.681   4.472   5.162
 4065TIP3    H112152   0.700   4.565   5.151
 4065TIP3    H212153   0.667   4.462   5.257
 4066TIP3   OH212154   6.185   1.782   1.034
 4066TIP3    H112155   6.107   1.773   1.088
 4066TIP3    H212156   6.252   1.818   1.092
 4067TIP3   OH212157   3.178   4.787   3.557
 4067TIP3    H112158   3.253   4.780   3.498
 4067TIP3    H212159   3.205   4.849   3.624
 4068TIP3   OH212160   5.929   6.422   0.065
 4068TIP3    H112161   5.967   6.354   0.010
 4068TIP3    H212162   6.000   6.450   0.123
 4069TIP3   OH212163   5.627   6.553   4.499
 4069TIP3    H112164   5.665   6.618   4.440
 4069TIP3    H212165   5.691   6.481   4.500
 4070TIP3   OH212166   6.930   5.635   3.738
 4070TIP3    H112167   6.909   5.637   3.644
 4070TIP3    H212168   6.964   5.547   3.753
 4071TIP3   OH212169   0.197   0.570   3.843
 4071TIP3    H112170   0.259   0.512   3.799
 4071TIP3    H212171   0.191   0.646   3.784
 4072TIP3   OH212172   0.049   1.052   1.246
 4072TIP3    H112173   0.051   0.956   1.243
 4072TIP3    H212174  -0.044   1.073   1.254
 4073TIP3   OH212175   5.759   4.724   6.143
 4073TIP3    H112176   5.746   4.811   6.182
 4073TIP3    H212177   5.812   4.677   6.208
 4074TIP3   OH212178   6.784   1.810   1.639
 4074TIP3    H112179   6.850   1.874   1.612
 4074TIP3    H212180   6.826   1.762   1.710
 4075TIP3   OH212181   7.419   3.604   5.286
 4075TIP3    H112182   7.355   3.673   5.271
 4075TIP3    H212183   7.396   3.535   5.223
 4076TIP3   OH212184   0.091   7.787   4.229
 4076TIP3    H112185   0.036   7.834   4.292
 4076TIP3    H212186   0.168   7.760   4.278
 4077TIP3   OH212187   6.253   2.758   6.706
 4077TIP3    H112188   6.208   2.703   6.641
 4077TIP3    H212189   6.278   2.697   6.775
 4078TIP3   OH212190   7.597   5.248   6.002
 4078TIP3    H112191   7.580   5.293   5.919
 4078TIP3    H212192   7.646   5.170   5.977
 4079TIP3   OH212193   4.142   5.189   2.499
 4079TIP3    H112194   4.181   5.109   2.536
 4079TIP3    H212195   4.048   5.180   2.518
 4080TIP3   OH212196   7.961   0.514   5.271
 4080TIP3    H112197   7.875   0.473   5.282
 4080TIP3    H212198   8.013   0.448   5.225
 4081TIP3   OH212199   5.711   6.938   5.055
 4081TIP3    H112200   5.745   6.855   5.021
 4081TIP3    H212201   5.746   6.943   5.144
 4082TIP3   OH212202   2.670   5.856   1.740
 4082TIP3    H112203   2.643   5.769   1.711
 4082TIP3    H212204   2.749   5.875   1.690
 4083TIP3   OH212205   7.652   7.393   0.189
 4083TIP3    H112206   7.742   7.402   0.221
 4083TIP3    H212207   7.643   7.300   0.169
 4084TIP3   OH212208   6.831   1.559   0.431
 4084TIP3    H112209   6.788   1.480   0.466
 4084TIP3    H212210   6.909   1.570   0.486
 4085TIP3   OH212211   7.390   0.525   3.385
 4085TIP3    H112212   7.315   0.579   3.359
 4085TIP3    H212213   7.400   0.542   3.479
 4086TIP3   OH212214   4.154   5.961   2.588
 4086TIP3    H112215   4.154   6.008   2.505
 4086TIP3    H212216   4.069   5.982   2.627
 4087TIP3   OH212217   0.118   5.010   3.904
 4087TIP3    H112218   0.203   5.052   3.893
 4087TIP3    H212219   0.072   5.026   3.822
 4088TIP3   OH212220   2.393   0.068   3.402
 4088TIP3    H112221   2.386   0.134   3.471
 4088TIP3    H212222   2.467   0.013   3.429
 4089TIP3   OH212223   3.282   5.902   1.584
 4089TIP3    H112224   3.346   5.953   1.635
 4089TIP3    H212225   3.335   5.853   1.522
 4090TIP3   OH212226   3.785   1.283   1.397
 4090TIP3    H112227   3.832   1.272   1.480
 4090TIP3    H212228   3.837   1.234   1.333
 4091TIP3   OH212229   3.530   4.749   2.870
 4091TIP3    H112230   3.525   4.668   2.819
 4091TIP3    H212231   3.622   4.754   2.898
 4092TIP3   OH212232   5.704   5.101   2.990
 4092TIP3    H112233   5.689   5.008   2.974
 4092TIP3    H212234   5.636   5.125   3.053
 4093TIP3   OH212235   2.800   0.427   5.948
 4093TIP3    H112236   2.872   0.465   5.998
 4093TIP3    H212237   2.842   0.367   5.886
 4094TIP3   OH212238   0.453   3.988   1.366
 4094TIP3    H112239   0.358   3.997   1.371
 4094TIP3    H212240   0.482   4.061   1.312
 4095TIP3   OH212241   0.990   2.713   0.751
 4095TIP3    H112242   1.042   2.664   0.815
 4095TIP3    H212243   1.051   2.777   0.715
 4096TIP3   OH212244   5.026   3.597   4.035
 4096TIP3    H112245   4.956   3.548   3.992
 4096TIP3    H212246   5.099   3.593   3.973
 4097TIP3   OH212247   5.794   2.753   0.549
 4097TIP3    H112248   5.875   2.768   0.599
 4097TIP3    H212249   5.811   2.673   0.499
 4098TIP3   OH212250   2.064   2.761   5.490
 4098TIP3    H112251   2.089   2.760   5.398
 4098TIP3    H212252   1.997   2.829   5.497
 4099TIP3   OH212253   2.657   3.769   5.446
 4099TIP3    H112254   2.731   3.735   5.396
 4099TIP3    H212255   2.688   3.774   5.536
 4100TIP3   OH212256   3.814   4.845   1.386
 4100TIP3    H112257   3.747   4.885   1.441
 4100TIP3    H212258   3.768   4.819   1.307
 4101TIP3   OH212259   2.810   0.939   2.176
 4101TIP3    H112260   2.777   0.851   2.193
 4101TIP3    H212261   2.735   0.987   2.140
 4102TIP3   OH212262   4.658   4.982   3.471
 4102TIP3    H112263   4.663   5.076   3.486
 4102TIP3    H212264   4.727   4.945   3.525
 4103TIP3   OH212265   0.998   3.259   2.456
 4103TIP3    H112266   0.912   3.287   2.424
 4103TIP3    H212267   0.988   3.165   2.472
 4104TIP3   OH212268   5.101   5.632   0.068
 4104TIP3    H112269   5.124   5.711   0.018
 4104TIP3    H212270   5.036   5.663   0.132
 4105TIP3   OH212271   3.460   3.862   4.951
 4105TIP3    H112272   3.540   3.909   4.977
 4105TIP3    H212273   3.489   3.801   4.884
 4106TIP3   OH212274   7.560   1.291   4.873
 4106TIP3    H112275   7.542   1.287   4.779
 4106TIP3    H212276   7.476   1.313   4.912
 4107TIP3   OH212277   3.227   3.746   5.410
 4107TIP3    H112278   3.304   3.799   5.393
 4107TIP3    H212279   3.163   3.807   5.446
 4108TIP3   OH212280   2.344   4.408   4.706
 4108TIP3    H112281   2.383   4.433   4.623
 4108TIP3    H212282   2.375   4.473   4.769
 4109TIP3   OH212283   4.979   4.645   1.659
 4109TIP3    H112284   5.028   4.563   1.667
 4109TIP3    H212285   4.906   4.635   1.720
 4110TIP3   OH212286   4.817   1.063   5.823
 4110TIP3    H112287   4.900   1.078   5.779
 4110TIP3    H212288   4.753   1.110   5.770
 4111TIP3   OH212289   5.616   6.517   4.175
 4111TIP3    H112290   5.527   6.535   4.205
 4111TIP3    H212291   5.607   6.441   4.117
 4112TIP3   OH212292   2.189   7.124   0.748
 4112TIP3    H112293   2.151   7.198   0.794
 4112TIP3    H212294   2.228   7.161   0.668
 4113TIP3   OH212295   5.365   4.617   1.031
 4113TIP3    H112296   5.394   4.550   1.092
 4113TIP3    H212297   5.410   4.596   0.949
 4114TIP3   OH212298   5.380   0.857   0.148
 4114TIP3    H112299   5.311   0.791   0.156
 4114TIP3    H212300   5.458   0.807   0.121
 4115TIP3   OH212301   4.652   4.513   3.930
 4115TIP3    H112302   4.568   4.489   3.969
 4115TIP3    H212303   4.630   4.580   3.865
 4116TIP3   OH212304   3.033   4.891   1.327
 4116TIP3    H112305   2.949   4.886   1.280
 4116TIP3    H212306   3.022   4.832   1.401
 4117TIP3   OH212307   8.167   0.421   1.881
 4117TIP3    H112308   8.224   0.475   1.828
 4117TIP3    H212309   8.090   0.476   1.898
 4118TIP3   OH212310   7.207   1.128   6.249
 4118TIP3    H112311   7.257   1.156   6.325
 4118TIP3    H212312   7.255   1.164   6.174
 4119TIP3   OH212313   8.302   4.642   1.187
 4119TIP3    H112314   8.242   4.716   1.194
 4119TIP3    H212315   8.324   4.620   1.277
 4120TIP3   OH212316   4.875   2.047   2.441
 4120TIP3    H112317   4.802   1.986   2.433
 4120TIP3    H212318   4.932   2.026   2.367
 4121TIP3   OH212319   1.529   0.574   4.844
 4121TIP3    H112320   1.569   0.542   4.925
 4121TIP3    H212321   1.448   0.524   4.836
 4122TIP3   OH212322   6.585   3.429   1.408
 4122TIP3    H112323   6.609   3.359   1.469
 4122TIP3    H212324   6.541   3.494   1.463
 4123TIP3   OH212325   1.343   3.043   4.096
 4123TIP3    H112326   1.249   3.047   4.080
 4123TIP3    H212327   1.384   3.063   4.012
 4124TIP3   OH212328   3.400   5.005   5.602
 4124TIP3    H112329   3.322   5.041   5.643
 4124TIP3    H212330   3.389   4.910   5.609
 4125TIP3   OH212331   3.696   3.633   5.114
 4125TIP3    H112332   3.738   3.549   5.130
 4125TIP3    H212333   3.717   3.653   5.023
 4126TIP3   OH212334   3.142   2.653   2.631
 4126TIP3    H112335   3.160   2.561   2.653
 4126TIP3    H212336   3.075   2.680   2.694
 4127TIP3   OH212337   5.263   7.426   5.141
 4127TIP3    H112338   5.307   7.475   5.210
 4127TIP3    H212339   5.193   7.484   5.111
 4128TIP3   OH212340   2.341   3.576   1.310
 4128TIP3    H112341   2.395   3.614   1.240
 4128TIP3    H212342   2.271   3.530   1.264
 4129TIP3   OH212343   7.157   3.424   3.338
 4129TIP3    H112344   7.154   3.332   3.362
 4129TIP3    H212345   7.094   3.433   3.266
 4130TIP3   OH212346   6.376   7.569   4.437
 4130TIP3    H112347   6.406   7.547   4.349
 4130TIP3    H212348   6.440   7.632   4.469
 4131TIP3   OH212349   1.560   5.994   6.499
 4131TIP3    H112350   1.476   6.022   6.534
 4131TIP3    H212351   1.618   6.069   6.514
 4132TIP3   OH212352   4.869   3.841   3.467
 4132TIP3    H112353   4.841   3.822   3.557
 4132TIP3    H212354   4.860   3.936   3.459
 4133TIP3   OH212355   7.972   6.360   5.669
 4133TIP3    H112356   7.915   6.330   5.740
 4133TIP3    H212357   8.060   6.334   5.696
 4134TIP3   OH212358   1.410   7.491   1.485
 4134TIP3    H112359   1.392   7.397   1.476
 4134TIP3    H212360   1.419   7.522   1.395
 4135TIP3   OH212361   7.597   3.786   6.530
 4135TIP3    H112362   7.602   3.828   6.616
 4135TIP3    H212363   7.660   3.713   6.536
 4136TIP3   OH212364   1.826   0.894   1.458
 4136TIP3    H112365   1.760   0.963   1.466
 4136TIP3    H212366   1.904   0.930   1.502
 4137TIP3   OH212367   7.195   0.308   5.181
 4137TIP3    H112368   7.209   0.393   5.220
 4137TIP3    H212369   7.275   0.259   5.200
 4138TIP3   OH212370   1.692   2.721   0.124
 4138TIP3    H112371   1.736   2.668   0.191
 4138TIP3    H212372   1.625   2.663   0.088
 4139TIP3   OH212373   4.278   3.636   1.653
 4139TIP3    H112374   4.237   3.719   1.629
 4139TIP3    H212375   4.371   3.649   1.635
 4140TIP3   OH212376   5.932   2.870   6.462
 4140TIP3    H112377   5.869   2.938   6.440
 4140TIP3    H212378   5.878   2.793   6.484
 4141TIP3   OH212379   0.917   2.287   3.571
 4141TIP3    H112380   0.947   2.315   3.658
 4141TIP3    H212381   0.977   2.331   3.510
 4142TIP3   OH212382   5.128   4.751   0.872
 4142TIP3    H112383   5.205   4.730   0.924
 4142TIP3    H212384   5.091   4.829   0.913
 4143TIP3   OH212385   3.836   1.711   6.521
 4143TIP3    H112386   3.810   1.803   6.518
 4143TIP3    H212387   3.930   1.712   6.503
 4144TIP3   OH212388   7.731   4.611   2.443
 4144TIP3    H112389   7.687   4.534   2.478
 4144TIP3    H212390   7.663   4.657   2.393
 4145TIP3   OH212391   3.394   3.388   6.411
 4145TIP3    H112392   3.482   3.422   6.428
 4145TIP3    H212393   3.398   3.356   6.321
 4146TIP3   OH212394   1.439   6.523   4.444
 4146TIP3    H112395   1.433   6.533   4.349
 4146TIP3    H212396   1.517   6.468   4.457
 4147TIP3   OH212397   1.181   0.281   2.901
 4147TIP3    H112398   1.159   0.353   2.959
 4147TIP3    H212399   1.111   0.281   2.835
 4148TIP3   OH212400   0.012   3.168   0.093
 4148TIP3    H112401   0.028   3.228   0.166
 4148TIP3    H212402   0.089   3.178   0.037
 4149TIP3   OH212403   0.322   2.587   1.348
 4149TIP3    H112404   0.289   2.673   1.377
 4149TIP3    H212405   0.344   2.600   1.256
 4150TIP3   OH212406   3.473   1.389   6.515
 4150TIP3    H112407   3.480   1.306   6.467
 4150TIP3    H212408   3.469   1.363   6.607
 4151TIP3   OH212409   1.170   3.307   0.096
 4151TIP3    H112410   1.214   3.257   0.165
 4151TIP3    H212411   1.084   3.328   0.133
 4152TIP3   OH212412   1.676   0.185   5.635
 4152TIP3    H112413   1.717   0.152   5.715
 4152TIP3    H212414   1.649   0.275   5.657
 4153TIP3   OH212415   1.290   3.180   3.703
 4153TIP3    H112416   1.333   3.241   3.643
 4153TIP3    H212417   1.197   3.203   3.697
 4154TIP3   OH212418   4.597   5.392   6.635
 4154TIP3    H112419   4.522   5.421   6.687
 4154TIP3    H212420   4.564   5.388   6.546
 4155TIP3   OH212421   7.316   6.976   5.936
 4155TIP3    H112422   7.244   7.006   5.991
 4155TIP3    H212423   7.311   6.881   5.939
 4156TIP3   OH212424   7.429   6.832   3.088
 4156TIP3    H112425   7.524   6.842   3.095
 4156TIP3    H212426   7.417   6.758   3.029
 4157TIP3   OH212427   3.630   2.529   0.316
 4157TIP3    H112428   3.687   2.589   0.268
 4157TIP3    H212429   3.594   2.582   0.387
 4158TIP3   OH212430   4.408   7.712   1.764
 4158TIP3    H112431   4.316   7.732   1.780
 4158TIP3    H212432   4.409   7.673   1.676
 4159TIP3   OH212433   7.979  -0.027   5.662
 4159TIP3    H112434   8.017   0.041   5.717
 4159TIP3    H212435   7.893   0.008   5.638
 4160TIP3   OH212436   0.861   3.218   3.969
 4160TIP3    H112437   0.825   3.292   3.920
 4160TIP3    H212438   0.793   3.150   3.962
 4161TIP3   OH212439   1.339   6.066   2.393
 4161TIP3    H112440   1.320   5.973   2.407
 4161TIP3    H212441   1.434   6.068   2.380
 4162TIP3   OH212442   6.254   0.288   0.402
 4162TIP3    H112443   6.325   0.352   0.405
 4162TIP3    H212444   6.190   0.326   0.341
 4163TIP3   OH212445   5.392   7.242   3.589
 4163TIP3    H112446   5.445   7.217   3.665
 4163TIP3    H212447   5.311   7.276   3.627
 4164TIP3   OH212448   1.390   3.405   3.588
 4164TIP3    H112449   1.348   3.401   3.502
 4164TIP3    H212450   1.333   3.460   3.641
 4165TIP3   OH212451   5.458   0.695   1.130
 4165TIP3    H112452   5.381   0.731   1.087
 4165TIP3    H212453   5.456   0.733   1.218
 4166TIP3   OH212454   1.407   7.524   3.580
 4166TIP3    H112455   1.393   7.597   3.519
 4166TIP3    H212456   1.320   7.485   3.592
 4167TIP3   OH212457   5.407   5.227   1.978
 4167TIP3    H112458   5.337   5.204   1.917
 4167TIP3    H212459   5.371   5.207   2.064
 4168TIP3   OH212460   5.665   2.549   0.379
 4168TIP3    H112461   5.708   2.601   0.311
 4168TIP3    H212462   5.583   2.520   0.339
 4169TIP3   OH212463   2.706   2.641   4.404
 4169TIP3    H112464   2.633   2.583   4.426
 4169TIP3    H212465   2.686   2.672   4.315
 4170TIP3   OH212466   6.655   7.191   6.710
 4170TIP3    H112467   6.669   7.279   6.675
 4170TIP3    H212468   6.636   7.205   6.803
 4171TIP3   OH212469   5.651   2.290   2.159
 4171TIP3    H112470   5.600   2.279   2.079
 4171TIP3    H212471   5.738   2.256   2.137
 4172TIP3   OH212472   5.701   5.178   4.606
 4172TIP3    H112473   5.691   5.231   4.527
 4172TIP3    H212474   5.791   5.145   4.601
 4173TIP3   OH212475   4.197   5.838   4.578
 4173TIP3    H112476   4.130   5.898   4.609
 4173TIP3    H212477   4.264   5.894   4.539
 4174TIP3   OH212478   7.548   6.666   5.702
 4174TIP3    H112479   7.571   6.750   5.662
 4174TIP3    H212480   7.534   6.607   5.628
 4175TIP3   OH212481   6.842   1.200   0.910
 4175TIP3    H112482   6.790   1.132   0.868
 4175TIP3    H212483   6.798   1.216   0.994
 4176TIP3   OH212484   5.854   2.375   6.822
 4176TIP3    H112485   5.901   2.347   6.744
 4176TIP3    H212486   5.775   2.320   6.823
 4177TIP3   OH212487   4.114   3.998   4.037
 4177TIP3    H112488   4.162   4.032   4.113
 4177TIP3    H212489   4.140   3.906   4.032
 4178TIP3   OH212490   0.497   5.846   0.978
 4178TIP3    H112491   0.592   5.839   0.987
 4178TIP3    H212492   0.465   5.756   0.991
 4179TIP3   OH212493   1.452   4.133   6.568
 4179TIP3    H112494   1.517   4.123   6.498
 4179TIP3    H212495   1.434   4.044   6.597
 4180TIP3   OH212496   7.589   5.748   5.563
 4180TIP3    H112497   7.610   5.826   5.512
 4180TIP3    H212498   7.657   5.684   5.539
 4181TIP3   OH212499   4.643   5.964  -0.025
 4181TIP3    H112500   4.617   5.932  -0.111
 4181TIP3    H212501   4.565   5.955   0.029
 4182TIP3   OH212502   2.899   0.002   1.199
 4182TIP3    H112503   2.833  -0.011   1.132
 4182TIP3    H212504   2.941   0.085   1.176
 4183TIP3   OH212505   1.401   0.000   3.443
 4183TIP3    H112506   1.311  -0.031   3.437
 4183TIP3    H212507   1.398   0.088   3.404
 4184TIP3   OH212508   7.269   3.944   0.211
 4184TIP3    H112509   7.238   3.968   0.298
 4184TIP3    H212510   7.265   3.849   0.209
 4185TIP3   OH212511   4.213   4.036   2.228
 4185TIP3    H112512   4.170   3.983   2.296
 4185TIP3    H212513   4.145   4.048   2.162
 4186TIP3   OH212514   5.783   5.913   2.564
 4186TIP3    H112515   5.723   5.890   2.494
 4186TIP3    H212516   5.731   5.967   2.624
 4187TIP3   OH212517   7.427   7.367   6.387
 4187TIP3    H112518   7.450   7.319   6.467
 4187TIP3    H212519   7.331   7.362   6.383
 4188TIP3   OH212520   2.390   2.329   3.209
 4188TIP3    H112521   2.431   2.404   3.167
 4188TIP3    H212522   2.359   2.275   3.136
 4189TIP3   OH212523   8.122   6.245   6.080
 4189TIP3    H112524   8.058   6.302   6.122
 4189TIP3    H212525   8.075   6.162   6.068
 4190TIP3   OH212526   5.404   0.657   6.688
 4190TIP3    H112527   5.389   0.752   6.686
 4190TIP3    H212528   5.337   0.624   6.747
 4191TIP3   OH212529   3.698   6.465   5.209
 4191TIP3    H112530   3.745   6.394   5.253
 4191TIP3    H212531   3.663   6.518   5.280
 4192TIP3   OH212532  -0.007   5.302   3.127
 4192TIP3    H112533   0.038   5.362   3.069
 4192TIP3    H212534  -0.044   5.236   3.069
 4193TIP3   OH212535   5.100   1.265   6.437
 4193TIP3    H112536   5.024   1.287   6.384
 4193TIP3    H212537   5.175   1.279   6.380
 4194TIP3   OH212538   6.570   4.559   0.189
 4194TIP3    H112539   6.534   4.506   0.260
 4194TIP3    H212540   6.659   4.578   0.216
 4195TIP3   OH212541   8.271   3.004   2.901
 4195TIP3    H112542   8.353   2.996   2.853
 4195TIP3    H212543   8.296   2.999   2.993
 4196TIP3   OH212544   4.100   3.001   3.567
 4196TIP3    H112545   4.187   2.980   3.535
 4196TIP3    H212546   4.057   3.047   3.495
 4197TIP3   OH212547   3.492   0.093   2.025
 4197TIP3    H112548   3.556   0.138   1.971
 4197TIP3    H212549   3.528   0.005   2.037
 4198TIP3   OH212550   4.157   5.093   5.682
 4198TIP3    H112551   4.194   5.010   5.713
 4198TIP3    H212552   4.077   5.067   5.636
 4199TIP3   OH212553   7.469   5.253   4.969
 4199TIP3    H112554   7.409   5.305   5.024
 4199TIP3    H212555   7.411   5.206   4.909
 4200TIP3   OH212556   6.837   4.169   6.396
 4200TIP3    H112557   6.915   4.114   6.403
 4200TIP3    H212558   6.837   4.198   6.305
 4201TIP3   OH212559   4.186   1.424   0.141
 4201TIP3    H112560   4.209   1.480   0.214
 4201TIP3    H212561   4.141   1.349   0.181
 4202TIP3   OH212562   8.050   0.805   5.905
 4202TIP3    H112563   7.965   0.761   5.909
 4202TIP3    H212564   8.029   0.898   5.910
 4203TIP3   OH212565   1.058   0.607   3.766
 4203TIP3    H112566   0.987   0.549   3.794
 4203TIP3    H212567   1.021   0.655   3.692
 4204TIP3   OH212568   7.240   5.654   0.342
 4204TIP3    H112569   7.285   5.570   0.341
 4204TIP3    H212570   7.182   5.649   0.418
 4205TIP3   OH212571   2.185   3.159   1.398
 4205TIP3    H112572   2.222   3.089   1.452
 4205TIP3    H212573   2.209   3.240   1.445
 4206TIP3   OH212574   2.860   6.878   0.006
 4206TIP3    H112575   2.774   6.875   0.047
 4206TIP3    H212576   2.874   6.790  -0.028
 4207TIP3   OH212577   6.266   2.227   6.489
 4207TIP3    H112578   6.244   2.306   6.539
 4207TIP3    H212579   6.187   2.174   6.491
 4208TIP3   OH212580   3.483   1.598   5.312
 4208TIP3    H112581   3.482   1.589   5.407
 4208TIP3    H212582   3.405   1.650   5.292
 4209TIP3   OH212583   6.690   7.677   1.860
 4209TIP3    H112584   6.731   7.590   1.861
 4209TIP3    H212585   6.750   7.732   1.810
 4210TIP3   OH212586   1.383   0.538   1.216
 4210TIP3    H112587   1.384   0.525   1.121
 4210TIP3    H212588   1.464   0.586   1.234
 4211TIP3   OH212589   7.983   5.138   4.569
 4211TIP3    H112590   8.056   5.191   4.602
 4211TIP3    H212591   7.916   5.201   4.545
 4212TIP3   OH212592   1.781   3.848   1.828
 4212TIP3    H112593   1.798   3.802   1.910
 4212TIP3    H212594   1.829   3.931   1.836
 4213TIP3   OH212595   2.771   4.883   1.233
 4213TIP3    H112596   2.718   4.959   1.254
 4213TIP3    H212597   2.715   4.828   1.178
 4214TIP3   OH212598   6.613   2.213   5.510
 4214TIP3    H112599   6.620   2.129   5.556
 4214TIP3    H212600   6.692   2.261   5.537
 4215TIP3   OH212601   3.736   3.406   2.550
 4215TIP3    H112602   3.772   3.444   2.630
 4215TIP3    H212603   3.739   3.311   2.565
 4216TIP3   OH212604   3.386   3.848   1.737
 4216TIP3    H112605   3.384   3.898   1.820
 4216TIP3    H212606   3.479   3.847   1.713
 4217TIP3   OH212607   6.905   1.197   2.375
 4217TIP3    H112608   6.825   1.225   2.420
 4217TIP3    H212609   6.896   1.233   2.287
 4218TIP3   OH212610   6.067   1.557   1.424
 4218TIP3    H112611   6.106   1.504   1.493
 4218TIP3    H212612   6.069   1.646   1.458
 4219TIP3   OH212613   6.841   5.132   3.007
 4219TIP3    H112614   6.872   5.059   2.954
 4219TIP3    H212615   6.899   5.205   2.986
 4220TIP3   OH212616   1.471   5.655   3.452
 4220TIP3    H112617   1.558   5.691   3.469
 4220TIP3    H212618   1.453   5.678   3.361
 4221TIP3   OH212619   6.240   6.752   6.185
 4221TIP3    H112620   6.162   6.787   6.142
 4221TIP3    H212621   6.254   6.809   6.260
 4222TIP3   OH212622   5.491   3.109   3.597
 4222TIP3    H112623   5.441   3.104   3.678
 4222TIP3    H212624   5.427   3.097   3.528
 4223TIP3   OH212625   7.196   6.523   3.135
 4223TIP3    H112626   7.277   6.541   3.182
 4223TIP3    H212627   7.177   6.604   3.087
 4224TIP3   OH212628   2.682   1.010   6.306
 4224TIP3    H112629   2.756   0.982   6.359
 4224TIP3    H212630   2.654   0.931   6.260
 4225TIP3   OH212631   7.322   5.925   1.478
 4225TIP3    H112632   7.377   5.878   1.415
 4225TIP3    H212633   7.278   5.856   1.528
 4226TIP3   OH212634   1.708   6.960   4.983
 4226TIP3    H112635   1.766   6.921   4.917
 4226TIP3    H212636   1.647   6.890   5.007
 4227TIP3   OH212637   1.613   6.662   6.309
 4227TIP3    H112638   1.563   6.667   6.227
 4227TIP3    H212639   1.547   6.660   6.378
 4228TIP3   OH212640   8.052   4.714   3.583
 4228TIP3    H112641   8.052   4.618   3.579
 4228TIP3    H212642   8.063   4.741   3.492
 4229TIP3   OH212643   2.691   3.487   3.318
 4229TIP3    H112644   2.712   3.579   3.337
 4229TIP3    H212645   2.595   3.485   3.315
 4230TIP3   OH212646   6.816   1.734   3.246
 4230TIP3    H112647   6.766   1.703   3.321
 4230TIP3    H212648   6.905   1.704   3.262
 4231TIP3   OH212649   7.662   4.441   0.056
 4231TIP3    H112650   7.650   4.347   0.039
 4231TIP3    H212651   7.655   4.449   0.151
 4232TIP3   OH212652   4.869   4.726   1.427
 4232TIP3    H112653   4.778   4.734   1.456
 4232TIP3    H212654   4.915   4.693   1.504
 4233TIP3   OH212655   4.567   2.601   1.182
 4233TIP3    H112656   4.519   2.528   1.143
 4233TIP3    H212657   4.512   2.630   1.255
 4234TIP3   OH212658   6.614   6.350   0.147
 4234TIP3    H112659   6.687   6.353   0.209
 4234TIP3    H212660   6.622   6.432   0.098
 4235TIP3   OH212661   2.676   6.246   1.912
 4235TIP3    H112662   2.733   6.310   1.869
 4235TIP3    H212663   2.671   6.275   2.003
 4236TIP3   OH212664   2.501   6.346   3.545
 4236TIP3    H112665   2.579   6.349   3.490
 4236TIP3    H212666   2.480   6.437   3.562
 4237TIP3   OH212667   1.327   1.424   6.368
 4237TIP3    H112668   1.334   1.329   6.359
 4237TIP3    H212669   1.237   1.444   6.340
 4238TIP3   OH212670   1.840   7.691   3.662
 4238TIP3    H112671   1.769   7.627   3.655
 4238TIP3    H212672   1.851   7.726   3.574
 4239TIP3   OH212673   6.352   1.300   2.794
 4239TIP3    H112674   6.430   1.276   2.743
 4239TIP3    H212675   6.353   1.395   2.794
 4240TIP3   OH212676   0.572   6.838   3.347
 4240TIP3    H112677   0.566   6.908   3.282
 4240TIP3    H212678   0.509   6.772   3.318
 4241TIP3   OH212679   4.139   5.588   0.791
 4241TIP3    H112680   4.069   5.528   0.817
 4241TIP3    H212681   4.097   5.674   0.787
 4242TIP3   OH212682   5.142   3.887   0.250
 4242TIP3    H112683   5.215   3.868   0.310
 4242TIP3    H212684   5.180   3.944   0.183
 4243TIP3   OH212685   4.903   0.963   5.429
 4243TIP3    H112686   4.809   0.968   5.445
 4243TIP3    H212687   4.926   0.873   5.449
 4244TIP3   OH212688   5.605   3.778   5.585
 4244TIP3    H112689   5.582   3.686   5.599
 4244TIP3    H212690   5.521   3.824   5.584
 4245TIP3   OH212691   2.861   0.011   5.377
 4245TIP3    H112692   2.837   0.044   5.464
 4245TIP3    H212693   2.787  -0.044   5.352
 4246TIP3   OH212694   6.571   2.924   1.368
 4246TIP3    H112695   6.653   2.942   1.322
 4246TIP3    H212696   6.506   2.913   1.299
 4247TIP3   OH212697   3.740   2.278   2.893
 4247TIP3    H112698   3.686   2.285   2.815
 4247TIP3    H212699   3.728   2.188   2.922
 4248TIP3   OH212700   1.669   3.395   2.348
 4248TIP3    H112701   1.732   3.384   2.419
 4248TIP3    H212702   1.587   3.359   2.383
 4249TIP3   OH212703   5.059   4.189   2.431
 4249TIP3    H112704   5.059   4.121   2.363
 4249TIP3    H212705   5.150   4.217   2.437
 4250TIP3   OH212706   7.645   3.401   5.889
 4250TIP3    H112707   7.624   3.466   5.957
 4250TIP3    H212708   7.685   3.452   5.819
 4251TIP3   OH212709   1.826   0.438   3.806
 4251TIP3    H112710   1.765   0.401   3.742
 4251TIP3    H212711   1.834   0.371   3.873
 4252TIP3   OH212712   4.954   0.074   0.359
 4252TIP3    H112713   5.016   0.146   0.363
 4252TIP3    H212714   4.999   0.006   0.309
 4253TIP3   OH212715   6.274   6.304   2.655
 4253TIP3    H112716   6.343   6.276   2.595
 4253TIP3    H212717   6.203   6.242   2.641
 4254TIP3   OH212718   7.377   7.156   1.110
 4254TIP3    H112719   7.441   7.092   1.080
 4254TIP3    H212720   7.357   7.208   1.033
 4255TIP3   OH212721   5.819   4.582   5.290
 4255TIP3    H112722   5.808   4.561   5.197
 4255TIP3    H212723   5.850   4.500   5.329
 4256TIP3   OH212724   4.155   1.381   4.410
 4256TIP3    H112725   4.125   1.437   4.482
 4256TIP3    H212726   4.220   1.434   4.364
 4257TIP3   OH212727   4.464   4.243   1.793
 4257TIP3    H112728   4.371   4.225   1.802
 4257TIP3    H212729   4.477   4.256   1.699
 4258TIP3   OH212730   2.331   4.609   3.947
 4258TIP3    H112731   2.255   4.617   4.005
 4258TIP3    H212732   2.337   4.694   3.903
 4259TIP3   OH212733   5.654   1.915   1.165
 4259TIP3    H112734   5.559   1.901   1.164
 4259TIP3    H212735   5.668   1.981   1.233
 4260TIP3   OH212736   7.402   3.623   1.931
 4260TIP3    H112737   7.326   3.680   1.917
 4260TIP3    H212738   7.373   3.537   1.901
 4261TIP3   OH212739   2.188   7.139   2.816
 4261TIP3    H112740   2.222   7.113   2.731
 4261TIP3    H212741   2.265   7.171   2.864
 4262TIP3   OH212742   1.409   4.694   2.544
 4262TIP3    H112743   1.353   4.623   2.575
 4262TIP3    H212744   1.479   4.700   2.608
 4263TIP3   OH212745   7.070   1.889   3.336
 4263TIP3    H112746   7.069   1.870   3.430
 4263TIP3    H212747   7.079   1.803   3.294
 4264TIP3   OH212748   4.485   0.051   3.990
 4264TIP3    H112749   4.516   0.094   3.910
 4264TIP3    H212750   4.394   0.027   3.971
 4265TIP3   OH212751   4.386   5.504   1.473
 4265TIP3    H112752   4.379   5.597   1.452
 4265TIP3    H212753   4.348   5.459   1.398
 4266TIP3   OH212754   0.969   5.984   0.069
 4266TIP3    H112755   0.953   6.067   0.025
 4266TIP3    H212756   0.938   5.998   0.159
 4267TIP3   OH212757   8.162   6.907   1.866
 4267TIP3    H112758   8.084   6.933   1.915
 4267TIP3    H212759   8.145   6.817   1.838
 4268TIP3   OH212760   6.302   1.575   0.919
 4268TIP3    H112761   6.396   1.593   0.915
 4268TIP3    H212762   6.267   1.640   0.980
 4269TIP3   OH212763   6.440   4.125   1.849
 4269TIP3    H112764   6.445   4.220   1.840
 4269TIP3    H212765   6.510   4.091   1.795
 4270TIP3   OH212766   2.909   3.319   2.233
 4270TIP3    H112767   2.977   3.379   2.263
 4270TIP3    H212768   2.955   3.239   2.209
 4271TIP3   OH212769   2.068   3.651   1.619
 4271TIP3    H112770   2.116   3.688   1.693
 4271TIP3    H212771   1.978   3.680   1.631
 4272TIP3   OH212772   0.694   1.921   6.701
 4272TIP3    H112773   0.696   1.971   6.783
 4272TIP3    H212774   0.765   1.958   6.648
 4273TIP3   OH212775   3.338   5.026   4.822
 4273TIP3    H112776   3.246   5.040   4.800
 4273TIP3    H212777   3.339   4.945   4.873
 4274TIP3   OH212778   3.786   1.245   5.518
 4274TIP3    H112779   3.719   1.178   5.532
 4274TIP3    H212780   3.760   1.317   5.575
 4275TIP3   OH212781   1.723   1.098   4.442
 4275TIP3    H112782   1.817   1.104   4.424
 4275TIP3    H212783   1.701   1.007   4.421
 4276TIP3   OH212784   4.977   3.729   0.073
 4276TIP3    H112785   5.031   3.750   0.149
 4276TIP3    H212786   5.040   3.712   0.003
 4277TIP3   OH212787   2.053   6.096   3.441
 4277TIP3    H112788   1.975   6.150   3.452
 4277TIP3    H212789   2.110   6.122   3.513
 4278TIP3   OH212790   0.059   2.910   1.326
 4278TIP3    H112791   0.106   2.983   1.285
 4278TIP3    H212792   0.026   2.858   1.252
 4279TIP3   OH212793   4.914   2.510   3.447
 4279TIP3    H112794   4.878   2.530   3.534
 4279TIP3    H212795   4.937   2.595   3.410
 4280TIP3   OH212796   3.731   1.908   5.622
 4280TIP3    H112797   3.818   1.876   5.649
 4280TIP3    H212798   3.744   2.001   5.606
 4281TIP3   OH212799   5.711   6.296   3.686
 4281TIP3    H112800   5.749   6.374   3.727
 4281TIP3    H212801   5.701   6.233   3.757
 4282TIP3   OH212802   7.592   4.346   1.786
 4282TIP3    H112803   7.686   4.358   1.794
 4282TIP3    H212804   7.564   4.415   1.726
 4283TIP3   OH212805   6.118   0.112   0.559
 4283TIP3    H112806   6.100   0.113   0.653
 4283TIP3    H212807   6.170   0.192   0.544
 4284TIP3   OH212808   7.962   4.951   6.527
 4284TIP3    H112809   8.030   4.909   6.474
 4284TIP3    H212810   7.880   4.925   6.486
 4285TIP3   OH212811   6.264   4.865   0.023
 4285TIP3    H112812   6.173   4.855  -0.003
 4285TIP3    H212813   6.262   4.862   0.119
 4286TIP3   OH212814   3.306   6.354   0.876
 4286TIP3    H112815   3.292   6.302   0.797
 4286TIP3    H212816   3.248   6.314   0.941
 4287TIP3   OH212817   2.377   1.994   2.381
 4287TIP3    H112818   2.344   2.069   2.331
 4287TIP3    H212819   2.306   1.971   2.440
 4288TIP3   OH212820   7.813   0.290   0.869
 4288TIP3    H112821   7.743   0.225   0.876
 4288TIP3    H212822   7.872   0.270   0.942
 4289TIP3   OH212823   1.738   2.501   3.766
 4289TIP3    H112824   1.667   2.561   3.788
 4289TIP3    H212825   1.731   2.431   3.832
 4290TIP3   OH212826   6.337   0.710   1.226
 4290TIP3    H112827   6.276   0.776   1.195
 4290TIP3    H212828   6.326   0.636   1.166
 4291TIP3   OH212829   4.889   2.459   0.822
 4291TIP3    H112830   4.956   2.488   0.761
 4291TIP3    H212831   4.914   2.500   0.905
 4292TIP3   OH212832   7.058   0.179   0.809
 4292TIP3    H112833   7.090   0.262   0.773
 4292TIP3    H212834   7.127   0.116   0.791
 4293TIP3   OH212835   4.905   3.119   1.088
 4293TIP3    H112836   4.883   3.150   1.000
 4293TIP3    H212837   4.821   3.113   1.133
 4294TIP3   OH212838   4.694   0.748   1.303
 4294TIP3    H112839   4.705   0.795   1.220
 4294TIP3    H212840   4.617   0.788   1.343
 4295TIP3   OH212841   2.720   5.344   1.341
 4295TIP3    H112842   2.739   5.268   1.395
 4295TIP3    H212843   2.694   5.306   1.256
 4296TIP3   OH212844   5.205   6.785   1.356
 4296TIP3    H112845   5.240   6.874   1.362
 4296TIP3    H212846   5.134   6.791   1.293
 4297TIP3   OH212847   5.362   1.388   3.446
 4297TIP3    H112848   5.442   1.437   3.465
 4297TIP3    H212849   5.294   1.455   3.437
 4298TIP3   OH212850   0.975   6.065   5.977
 4298TIP3    H112851   1.015   5.991   6.022
 4298TIP3    H212852   0.880   6.052   5.988
 4299TIP3   OH212853   4.659   0.929   3.217
 4299TIP3    H112854   4.581   0.890   3.256
 4299TIP3    H212855   4.630   0.964   3.133
 4300TIP3   OH212856   6.410   3.974   3.092
 4300TIP3    H112857   6.459   4.017   3.022
 4300TIP3    H212858   6.457   3.996   3.172
 4301TIP3   OH212859   1.702   5.083   3.217
 4301TIP3    H112860   1.710   5.091   3.122
 4301TIP3    H212861   1.710   4.989   3.233
 4302TIP3   OH212862   7.700   1.067   4.790
 4302TIP3    H112863   7.674   1.148   4.835
 4302TIP3    H212864   7.795   1.071   4.786
 4303TIP3   OH212865   7.178   7.656   1.134
 4303TIP3    H112866   7.119   7.689   1.067
 4303TIP3    H212867   7.223   7.735   1.167
 4304TIP3   OH212868   5.605   0.469   2.312
 4304TIP3    H112869   5.535   0.451   2.250
 4304TIP3    H212870   5.660   0.534   2.267
 4305TIP3   OH212871   2.550   2.847   5.275
 4305TIP3    H112872   2.526   2.907   5.345
 4305TIP3    H212873   2.612   2.897   5.220
 4306TIP3   OH212874   7.521   0.602   2.694
 4306TIP3    H112875   7.525   0.507   2.685
 4306TIP3    H212876   7.482   0.633   2.612
 4307TIP3   OH212877   3.543   2.404   0.646
 4307TIP3    H112878   3.515   2.386   0.736
 4307TIP3    H212879   3.479   2.467   0.614
 4308TIP3   OH212880   0.324   6.287   5.308
 4308TIP3    H112881   0.245   6.336   5.287
 4308TIP3    H212882   0.395   6.337   5.268
 4309TIP3   OH212883   8.326   2.999   1.601
 4309TIP3    H112884   8.246   3.052   1.605
 4309TIP3    H212885   8.319   2.950   1.519
 4310TIP3   OH212886   3.984   6.851   5.307
 4310TIP3    H112887   3.983   6.810   5.221
 4310TIP3    H212888   3.897   6.834   5.343
 4311TIP3   OH212889   4.221   0.338   3.830
 4311TIP3    H112890   4.258   0.420   3.796
 4311TIP3    H212891   4.236   0.274   3.760
 4312TIP3   OH212892   6.509   5.654   5.122
 4312TIP3    H112893   6.527   5.562   5.103
 4312TIP3    H212894   6.445   5.651   5.194
 4313TIP3   OH212895   4.623   5.327   2.294
 4313TIP3    H112896   4.688   5.308   2.361
 4313TIP3    H212897   4.539   5.304   2.335
 4314TIP3   OH212898   1.091   7.678   2.842
 4314TIP3    H112899   1.084   7.628   2.924
 4314TIP3    H212900   1.117   7.614   2.776
 4315TIP3   OH212901   3.678   7.650   6.153
 4315TIP3    H112902   3.593   7.696   6.153
 4315TIP3    H212903   3.699   7.640   6.060
 4316TIP3   OH212904   6.853   3.943   3.145
 4316TIP3    H112905   6.839   3.898   3.062
 4316TIP3    H212906   6.908   3.883   3.196
 4317TIP3   OH212907   5.643   2.539   2.828
 4317TIP3    H112908   5.656   2.499   2.742
 4317TIP3    H212909   5.622   2.630   2.810
 4318TIP3   OH212910   7.991   7.239   2.570
 4318TIP3    H112911   7.922   7.300   2.595
 4318TIP3    H212912   8.045   7.287   2.508
 4319TIP3   OH212913   7.995   3.399   4.318
 4319TIP3    H112914   7.985   3.383   4.224
 4319TIP3    H212915   7.927   3.463   4.338
 4320TIP3   OH212916   7.880   4.227   0.103
 4320TIP3    H112917   7.942   4.154   0.105
 4320TIP3    H212918   7.817   4.202   0.035
 4321TIP3   OH212919   2.805   0.859   6.020
 4321TIP3    H112920   2.753   0.871   5.940
 4321TIP3    H212921   2.874   0.924   6.014
 4322TIP3   OH212922   3.391   0.137   6.511
 4322TIP3    H112923   3.476   0.094   6.525
 4322TIP3    H212924   3.351   0.140   6.598
 4323TIP3   OH212925   0.725   1.402   6.518
 4323TIP3    H112926   0.714   1.471   6.583
 4323TIP3    H212927   0.640   1.359   6.514
 4324TIP3   OH212928   1.304   1.086   0.725
 4324TIP3    H112929   1.219   1.098   0.684
 4324TIP3    H212930   1.364   1.064   0.653
 4325TIP3   OH212931   1.235   0.074   5.706
 4325TIP3    H112932   1.226   0.001   5.645
 4325TIP3    H212933   1.315   0.054   5.755
 4326TIP3   OH212934   6.163   5.315   4.085
 4326TIP3    H112935   6.113   5.359   4.016
 4326TIP3    H212936   6.209   5.385   4.130
 4327TIP3   OH212937   8.184   3.459   2.517
 4327TIP3    H112938   8.090   3.471   2.508
 4327TIP3    H212939   8.212   3.422   2.433
 4328TIP3   OH212940   6.115   4.445   4.192
 4328TIP3    H112941   6.080   4.405   4.272
 4328TIP3    H212942   6.099   4.539   4.204
 4329TIP3   OH212943   1.699   3.535   1.230
 4329TIP3    H112944   1.736   3.450   1.204
 4329TIP3    H212945   1.773   3.586   1.261
 4330TIP3   OH212946   6.731   1.215   1.428
 4330TIP3    H112947   6.808   1.176   1.387
 4330TIP3    H212948   6.715   1.159   1.505
 4331TIP3   OH212949   3.347   4.684   4.600
 4331TIP3    H112950   3.318   4.618   4.663
 4331TIP3    H212951   3.272   4.743   4.592
 4332TIP3   OH212952   7.084   0.924   5.398
 4332TIP3    H112953   7.150   0.883   5.452
 4332TIP3    H212954   7.118   0.917   5.309
 4333TIP3   OH212955   4.799   0.485   6.324
 4333TIP3    H112956   4.810   0.554   6.389
 4333TIP3    H212957   4.816   0.404   6.372
 4334TIP3   OH212958   0.142   5.697   1.644
 4334TIP3    H112959   0.178   5.716   1.731
 4334TIP3    H212960   0.114   5.782   1.611
 4335TIP3   OH212961   6.475   3.245   2.127
 4335TIP3    H112962   6.491   3.284   2.213
 4335TIP3    H212963   6.492   3.152   2.139
 4336TIP3   OH212964   3.453   4.000   1.958
 4336TIP3    H112965   3.439   4.091   1.984
 4336TIP3    H212966   3.512   3.964   2.024
 4337TIP3   OH212967   4.086   0.779   6.299
 4337TIP3    H112968   4.071   0.684   6.302
 4337TIP3    H212969   4.132   0.793   6.217
 4338TIP3   OH212970   3.361   7.711   0.406
 4338TIP3    H112971   3.374   7.673   0.493
 4338TIP3    H212972   3.388   7.803   0.417
 4339TIP3   OH212973   2.928   3.350   4.640
 4339TIP3    H112974   2.931   3.445   4.632
 4339TIP3    H212975   2.966   3.318   4.558
 4340TIP3   OH212976   1.026   1.430   1.578
 4340TIP3    H112977   1.023   1.525   1.583
 4340TIP3    H212978   1.052   1.411   1.488
 4341TIP3   OH212979   4.377   1.121   1.968
 4341TIP3    H112980   4.365   1.070   1.888
 4341TIP3    H212981   4.462   1.093   2.002
 4342TIP3   OH212982   1.159   5.489   1.789
 4342TIP3    H112983   1.229   5.552   1.807
 4342TIP3    H212984   1.135   5.506   1.698
 4343TIP3   OH212985   3.452   4.359   4.617
 4343TIP3    H112986   3.522   4.301   4.648
 4343TIP3    H212987   3.387   4.357   4.687
 4344TIP3   OH212988   7.588   2.529   3.846
 4344TIP3    H112989   7.623   2.590   3.780
 4344TIP3    H212990   7.494   2.546   3.846
 4345TIP3   OH212991   7.513   4.487   5.530
 4345TIP3    H112992   7.541   4.578   5.522
 4345TIP3    H212993   7.427   4.493   5.571
 4346TIP3   OH212994   3.843   0.439   3.441
 4346TIP3    H112995   3.809   0.394   3.364
 4346TIP3    H212996   3.938   0.425   3.438
 4347TIP3   OH212997   4.385   3.843   2.092
 4347TIP3    H112998   4.331   3.783   2.040
 4347TIP3    H212999   4.322   3.896   2.140
 4348TIP3   OH213000   3.114   0.141   3.697
 4348TIP3    H113001   3.197   0.102   3.668
 4348TIP3    H213002   3.136   0.183   3.780
 4349TIP3   OH213003   5.490   2.580   5.239
 4349TIP3    H113004   5.487   2.492   5.202
 4349TIP3    H213005   5.404   2.592   5.279
 4350TIP3   OH213006   7.834   1.404   0.941
 4350TIP3    H113007   7.809   1.312   0.934
 4350TIP3    H213008   7.865   1.427   0.853
 4351TIP3   OH213009   4.762   7.470   4.665
 4351TIP3    H113010   4.772   7.502   4.575
 4351TIP3    H213011   4.819   7.394   4.670
 4352TIP3   OH213012   6.896   5.771   3.149
 4352TIP3    H113013   6.905   5.680   3.121
 4352TIP3    H213014   6.925   5.823   3.073
 4353TIP3   OH213015   3.235   0.642   1.322
 4353TIP3    H113016   3.256   0.550   1.309
 4353TIP3    H213017   3.195   0.670   1.240
 4354TIP3   OH213018   5.231   2.791   5.779
 4354TIP3    H113019   5.192   2.781   5.866
 4354TIP3    H213020   5.216   2.883   5.757
 4355TIP3   OH213021   4.716   6.765   1.357
 4355TIP3    H113022   4.652   6.699   1.329
 4355TIP3    H213023   4.724   6.750   1.452
 4356TIP3   OH213024   2.713   5.467   2.633
 4356TIP3    H113025   2.646   5.511   2.580
 4356TIP3    H213026   2.683   5.376   2.639
 4357TIP3   OH213027   6.591   1.536   5.963
 4357TIP3    H113028   6.659   1.476   5.934
 4357TIP3    H213029   6.530   1.541   5.890
 4358TIP3   OH213030   2.261   0.053   4.099
 4358TIP3    H113031   2.253   0.104   4.180
 4358TIP3    H213032   2.248   0.117   4.029
 4359TIP3   OH213033   0.977   2.136   2.371
 4359TIP3    H113034   0.915   2.064   2.385
 4359TIP3    H213035   0.937   2.211   2.414
 4360TIP3   OH213036   4.808   3.112   6.225
 4360TIP3    H113037   4.764   3.027   6.235
 4360TIP3    H213038   4.863   3.120   6.303
 4361TIP3   OH213039   2.907   2.754   1.089
 4361TIP3    H113040   2.837   2.717   1.143
 4361TIP3    H213041   2.875   2.744   0.999
 4362TIP3   OH213042   1.245   4.825   0.063
 4362TIP3    H113043   1.159   4.865   0.078
 4362TIP3    H213044   1.274   4.798   0.150
 4363TIP3   OH213045   2.432   5.439   2.842
 4363TIP3    H113046   2.463   5.381   2.772
 4363TIP3    H213047   2.477   5.522   2.826
 4364TIP3   OH213048   2.347   2.674   5.435
 4364TIP3    H113049   2.263   2.716   5.455
 4364TIP3    H213050   2.398   2.742   5.391
 4365TIP3   OH213051   3.105   6.314   0.074
 4365TIP3    H113052   3.076   6.280   0.158
 4365TIP3    H213053   3.199   6.295   0.072
 4366TIP3   OH213054   6.902   3.822   0.375
 4366TIP3    H113055   6.922   3.730   0.356
 4366TIP3    H213056   6.947   3.839   0.458
 4367TIP3   OH213057   1.608   4.625   2.378
 4367TIP3    H113058   1.591   4.559   2.311
 4367TIP3    H213059   1.522   4.651   2.409
 4368TIP3   OH213060   1.236   6.191   4.361
 4368TIP3    H113061   1.319   6.214   4.403
 4368TIP3    H213062   1.256   6.187   4.268
 4369TIP3   OH213063   0.578   2.125   1.885
 4369TIP3    H113064   0.619   2.134   1.799
 4369TIP3    H213065   0.490   2.094   1.867
 4370TIP3   OH213066   3.005   4.504   4.567
 4370TIP3    H113067   3.042   4.517   4.480
 4370TIP3    H213068   3.078   4.522   4.627
 4371TIP3   OH213069   7.048   2.058   0.648
 4371TIP3    H113070   7.075   2.147   0.670
 4371TIP3    H213071   7.067   2.007   0.726
 4372TIP3   OH213072   0.880   7.105   3.326
 4372TIP3    H113073   0.828   7.128   3.403
 4372TIP3    H213074   0.875   7.009   3.322
 4373TIP3   OH213075   4.018   5.807   5.350
 4373TIP3    H113076   4.020   5.878   5.415
 4373TIP3    H213077   3.925   5.800   5.325
 4374TIP3   OH213078   7.541   3.678   4.576
 4374TIP3    H113079   7.519   3.652   4.666
 4374TIP3    H213080   7.636   3.682   4.575
 4375TIP3   OH213081   6.933   1.091   5.759
 4375TIP3    H113082   6.867   1.026   5.732
 4375TIP3    H213083   6.883   1.155   5.809
 4376TIP3   OH213084   6.705   2.030   4.769
 4376TIP3    H113085   6.678   2.068   4.685
 4376TIP3    H213086   6.795   2.062   4.782
 4377TIP3   OH213087   4.711   4.262   4.835
 4377TIP3    H113088   4.623   4.227   4.849
 4377TIP3    H213089   4.768   4.206   4.888
 4378TIP3   OH213090   2.534   0.499   2.783
 4378TIP3    H113091   2.601   0.567   2.776
 4378TIP3    H213092   2.453   0.543   2.755
 4379TIP3   OH213093   1.750   7.915   1.272
 4379TIP3    H113094   1.842   7.889   1.280
 4379TIP3    H213095   1.701   7.847   1.319
 4380TIP3   OH213096   5.263   3.828   1.804
 4380TIP3    H113097   5.356   3.848   1.811
 4380TIP3    H213098   5.251   3.748   1.854
 4381TIP3   OH213099   4.750   0.770   2.918
 4381TIP3    H113100   4.712   0.836   2.861
 4381TIP3    H213101   4.716   0.687   2.886
 4382TIP3   OH213102   6.876   4.923   3.653
 4382TIP3    H113103   6.805   4.888   3.599
 4382TIP3    H213104   6.955   4.908   3.600
 4383TIP3   OH213105   7.037   7.722   5.004
 4383TIP3    H113106   7.077   7.741   4.919
 4383TIP3    H213107   7.022   7.628   5.004
 4384TIP3   OH213108   3.874   3.072   2.044
 4384TIP3    H113109   3.820   3.086   1.966
 4384TIP3    H213110   3.889   3.159   2.080
 4385TIP3   OH213111   6.451   4.796   5.462
 4385TIP3    H113112   6.525   4.767   5.515
 4385TIP3    H213113   6.448   4.891   5.475
 4386TIP3   OH213114   7.823   3.302   3.722
 4386TIP3    H113115   7.730   3.280   3.714
 4386TIP3    H213116   7.832   3.384   3.675
 4387TIP3   OH213117   5.359   2.515   6.524
 4387TIP3    H113118   5.344   2.592   6.469
 4387TIP3    H213119   5.273   2.493   6.558
 4388TIP3   OH213120   5.414   0.515   4.292
 4388TIP3    H113121   5.341   0.477   4.341
 4388TIP3    H213122   5.492   0.473   4.329
 4389TIP3   OH213123   3.605   1.747   5.990
 4389TIP3    H113124   3.568   1.756   6.077
 4389TIP3    H213125   3.655   1.827   5.977
 4390TIP3   OH213126   0.651   0.274   0.117
 4390TIP3    H113127   0.697   0.322   0.186
 4390TIP3    H213128   0.709   0.280   0.041
 4391TIP3   OH213129   2.397   5.213   1.334
 4391TIP3    H113130   2.415   5.249   1.247
 4391TIP3    H213131   2.349   5.283   1.379
 4392TIP3   OH213132   1.334   5.788   4.894
 4392TIP3    H113133   1.370   5.722   4.953
 4392TIP3    H213134   1.310   5.739   4.815
 4393TIP3   OH213135   1.037   4.753   3.605
 4393TIP3    H113136   0.971   4.690   3.576
 4393TIP3    H213137   1.084   4.708   3.675
 4394TIP3   OH213138   3.078   4.215   3.506
 4394TIP3    H113139   3.055   4.242   3.417
 4394TIP3    H213140   3.104   4.296   3.550
 4395TIP3   OH213141   4.183   7.660   5.426
 4395TIP3    H113142   4.145   7.587   5.376
 4395TIP3    H213143   4.124   7.733   5.410
 4396TIP3   OH213144   4.473   1.946   6.095
 4396TIP3    H113145   4.525   1.874   6.060
 4396TIP3    H213146   4.432   1.986   6.018
 4397TIP3   OH213147   3.533   6.065   5.648
 4397TIP3    H113148   3.565   6.114   5.573
 4397TIP3    H213149   3.438   6.062   5.636
 4398TIP3   OH213150   4.937   6.028   6.068
 4398TIP3    H113151   5.014   5.973   6.063
 4398TIP3    H213152   4.876   5.978   6.122
 4399TIP3   OH213153   4.440   1.605   3.175
 4399TIP3    H113154   4.395   1.677   3.220
 4399TIP3    H213155   4.423   1.529   3.231
 4400TIP3   OH213156   1.298   6.767   4.527
 4400TIP3    H113157   1.310   6.676   4.499
 4400TIP3    H213158   1.369   6.782   4.590
 4401TIP3   OH213159   7.069   2.957   0.234
 4401TIP3    H113160   6.986   2.918   0.261
 4401TIP3    H213161   7.056   3.051   0.248
 4402TIP3   OH213162   3.662   7.685   5.895
 4402TIP3    H113163   3.703   7.698   5.809
 4402TIP3    H213164   3.592   7.622   5.878
 4403TIP3   OH213165   6.543   3.148   3.594
 4403TIP3    H113166   6.486   3.164   3.520
 4403TIP3    H213167   6.620   3.204   3.578
 4404TIP3   OH213168   7.202   3.921   4.069
 4404TIP3    H113169   7.202   3.825   4.068
 4404TIP3    H213170   7.282   3.945   4.022
 4405TIP3   OH213171   5.734   4.538   5.606
 4405TIP3    H113172   5.802   4.599   5.632
 4405TIP3    H213173   5.754   4.458   5.655
 4406TIP3   OH213174   3.251   2.841   6.705
 4406TIP3    H113175   3.282   2.871   6.791
 4406TIP3    H213176   3.280   2.750   6.699
 4407TIP3   OH213177   0.576   4.046   6.397
 4407TIP3    H113178   0.495   4.009   6.361
 4407TIP3    H213179   0.548   4.126   6.441
 4408TIP3   OH213180   8.289   6.648   5.993
 4408TIP3    H113181   8.223   6.709   6.025
 4408TIP3    H213182   8.300   6.585   6.063
 4409TIP3   OH213183   6.988   3.610   3.615
 4409TIP3    H113184   6.999   3.529   3.664
 4409TIP3    H213185   7.064   3.613   3.556
 4410TIP3   OH213186   4.942   3.297   0.110
 4410TIP3    H113187   4.890   3.359   0.162
 4410TIP3    H213188   4.894   3.291   0.026
 4411TIP3   OH213189   0.415   6.926   3.585
 4411TIP3    H113190   0.493   6.882   3.551
 4411TIP3    H213191   0.393   6.877   3.665
 4412TIP3   OH213192   1.171   4.684   6.398
 4412TIP3    H113193   1.206   4.668   6.486
 4412TIP3    H213194   1.229   4.751   6.361
 4413TIP3   OH213195   1.397   3.818   2.199
 4413TIP3    H113196   1.481   3.855   2.171
 4413TIP3    H213197   1.417   3.774   2.282
 4414TIP3   OH213198   0.841   3.098   3.277
 4414TIP3    H113199   0.897   3.065   3.346
 4414TIP3    H213200   0.783   3.025   3.256
 4415TIP3   OH213201   5.919   5.583   3.658
 4415TIP3    H113202   6.000   5.581   3.606
 4415TIP3    H213203   5.931   5.656   3.719
 4416TIP3   OH213204   5.867   6.101   0.191
 4416TIP3    H113205   5.884   6.156   0.267
 4416TIP3    H213206   5.887   6.012   0.221
 4417TIP3   OH213207   2.204   4.647   5.363
 4417TIP3    H113208   2.279   4.615   5.413
 4417TIP3    H213209   2.217   4.742   5.358
 4418TIP3   OH213210   4.520   5.373   4.364
 4418TIP3    H113211   4.442   5.333   4.401
 4418TIP3    H213212   4.589   5.359   4.429
 4419TIP3   OH213213   4.841   4.426   4.449
 4419TIP3    H113214   4.899   4.351   4.465
 4419TIP3    H213215   4.775   4.420   4.518
 4420TIP3   OH213216   1.724   7.237   6.309
 4420TIP3    H113217   1.683   7.260   6.392
 4420TIP3    H213218   1.675   7.161   6.278
 4421TIP3   OH213219   0.070   7.743   0.433
 4421TIP3    H113220   0.054   7.650   0.450
 4421TIP3    H213221  -0.015   7.785   0.450
 4422TIP3   OH213222   3.269   6.480   3.098
 4422TIP3    H113223   3.252   6.520   3.183
 4422TIP3    H213224   3.259   6.552   3.036
 4423TIP3   OH213225   3.680   0.364   4.583
 4423TIP3    H113226   3.732   0.442   4.561
 4423TIP3    H213227   3.596   0.379   4.540
 4424TIP3   OH213228   7.551   0.366   0.381
 4424TIP3    H113229   7.639   0.399   0.401
 4424TIP3    H213230   7.524   0.321   0.461
 4425TIP3   OH213231   0.539   0.638   1.714
 4425TIP3    H113232   0.558   0.631   1.807
 4425TIP3    H213233   0.590   0.568   1.674
 4426TIP3   OH213234   2.032   2.209   6.401
 4426TIP3    H113235   1.993   2.268   6.466
 4426TIP3    H213236   1.970   2.137   6.393
 4427TIP3   OH213237   7.427   3.125   0.283
 4427TIP3    H113238   7.507   3.175   0.265
 4427TIP3    H213239   7.418   3.067   0.207
 4428TIP3   OH213240   7.303   3.553   0.704
 4428TIP3    H113241   7.382   3.529   0.655
 4428TIP3    H213242   7.233   3.502   0.663
 4429TIP3   OH213243   6.998   0.931   2.452
 4429TIP3    H113244   6.921   0.892   2.411
 4429TIP3    H213245   6.992   1.025   2.431
 4430TIP3   OH213246   6.690   3.094   5.703
 4430TIP3    H113247   6.640   3.172   5.679
 4430TIP3    H213248   6.643   3.022   5.660
 4431TIP3   OH213249   6.483   7.784   2.433
 4431TIP3    H113250   6.484   7.738   2.349
 4431TIP3    H213251   6.568   7.829   2.436
 4432TIP3   OH213252   5.882   2.923   5.289
 4432TIP3    H113253   5.949   2.855   5.286
 4432TIP3    H213254   5.916   2.993   5.233
 4433TIP3   OH213255   0.467   6.534   2.388
 4433TIP3    H113256   0.484   6.449   2.348
 4433TIP3    H213257   0.422   6.585   2.320
 4434TIP3   OH213258   1.980   3.543   5.479
 4434TIP3    H113259   2.054   3.556   5.538
 4434TIP3    H213260   2.000   3.596   5.402
 4435TIP3   OH213261   0.383   0.081   1.765
 4435TIP3    H113262   0.431   0.154   1.806
 4435TIP3    H213263   0.395   0.008   1.826
 4436TIP3   OH213264   1.129   1.965   3.909
 4436TIP3    H113265   1.168   1.888   3.869
 4436TIP3    H213266   1.036   1.960   3.888
 4437TIP3   OH213267   7.411   6.869   6.734
 4437TIP3    H113268   7.375   6.904   6.653
 4437TIP3    H213269   7.428   6.946   6.789
 4438TIP3   OH213270   6.247   7.273   6.575
 4438TIP3    H113271   6.214   7.324   6.649
 4438TIP3    H213272   6.181   7.205   6.561
 4439TIP3   OH213273   7.274   1.270   3.112
 4439TIP3    H113274   7.199   1.267   3.052
 4439TIP3    H213275   7.336   1.207   3.075
 4440TIP3   OH213276   2.657   4.601   3.182
 4440TIP3    H113277   2.727   4.536   3.189
 4440TIP3    H213278   2.616   4.583   3.097
 4441TIP3   OH213279   4.050   3.989   6.639
 4441TIP3    H113280   4.036   3.963   6.549
 4441TIP3    H213281   3.991   3.933   6.690
 4442TIP3   OH213282   6.548   2.813   6.370
 4442TIP3    H113283   6.515   2.888   6.322
 4442TIP3    H213284   6.510   2.822   6.458
 4443TIP3   OH213285   0.844   7.769   1.705
 4443TIP3    H113286   0.823   7.826   1.779
 4443TIP3    H213287   0.913   7.711   1.737
 4444TIP3   OH213288   1.053   7.575   4.903
 4444TIP3    H113289   1.047   7.619   4.988
 4444TIP3    H213290   1.141   7.596   4.872
 4445TIP3   OH213291   5.671   0.327   6.463
 4445TIP3    H113292   5.634   0.239   6.464
 4445TIP3    H213293   5.760   0.315   6.430
 4446TIP3   OH213294   0.085   4.146   5.249
 4446TIP3    H113295   0.004   4.096   5.249
 4446TIP3    H213296   0.111   4.150   5.157
 4447TIP3   OH213297   5.537   5.650   4.994
 4447TIP3    H113298   5.490   5.575   5.029
 4447TIP3    H213299   5.527   5.718   5.061
 4448TIP3   OH213300   4.237   2.730   2.701
 4448TIP3    H113301   4.189   2.648   2.682
 4448TIP3    H213302   4.300   2.737   2.629
 4449TIP3   OH213303   3.102   6.409   5.330
 4449TIP3    H113304   3.083   6.471   5.260
 4449TIP3    H213305   3.184   6.367   5.303
 4450TIP3   OH213306   1.966   1.596   3.796
 4450TIP3    H113307   1.940   1.603   3.888
 4450TIP3    H213308   2.006   1.509   3.789
 4451TIP3   OH213309   7.682   3.129   2.923
 4451TIP3    H113310   7.689   3.167   3.010
 4451TIP3    H213311   7.742   3.181   2.869
 4452TIP3   OH213312   8.106   2.178   4.011
 4452TIP3    H113313   8.179   2.171   3.950
 4452TIP3    H213314   8.091   2.089   4.042
 4453TIP3   OH213315   3.672   0.726   5.120
 4453TIP3    H113316   3.625   0.808   5.135
 4453TIP3    H213317   3.739   0.747   5.055
 4454TIP3   OH213318   0.620   4.772   6.650
 4454TIP3    H113319   0.642   4.813   6.733
 4454TIP3    H213320   0.696   4.788   6.594
 4455TIP3   OH213321   0.935   4.724   5.634
 4455TIP3    H113322   0.863   4.728   5.571
 4455TIP3    H213323   0.961   4.632   5.636
 4456TIP3   OH213324   5.938   6.676   2.234
 4456TIP3    H113325   5.948   6.683   2.329
 4456TIP3    H213326   5.941   6.766   2.202
 4457TIP3   OH213327   0.964   1.287   5.632
 4457TIP3    H113328   0.877   1.270   5.669
 4457TIP3    H213329   0.995   1.365   5.678
 4458TIP3   OH213330   5.472   7.149   2.992
 4458TIP3    H113331   5.400   7.089   3.011
 4458TIP3    H213332   5.542   7.121   3.051
 4459TIP3   OH213333   2.962   7.045   2.570
 4459TIP3    H113334   2.914   7.120   2.536
 4459TIP3    H213335   3.001   7.076   2.652
 4460TIP3   OH213336   4.652   0.937   2.750
 4460TIP3    H113337   4.588   1.007   2.764
 4460TIP3    H213338   4.661   0.931   2.655
 4461TIP3   OH213339   7.947   1.802   2.202
 4461TIP3    H113340   8.011   1.776   2.135
 4461TIP3    H213341   7.993   1.865   2.256
 4462TIP3   OH213342   3.987   0.483   1.767
 4462TIP3    H113343   4.029   0.566   1.787
 4462TIP3    H213344   3.906   0.507   1.723
 4463TIP3   OH213345   3.350   5.597   0.480
 4463TIP3    H113346   3.382   5.644   0.557
 4463TIP3    H213347   3.426   5.588   0.423
 4464TIP3   OH213348   1.230   4.914   6.730
 4464TIP3    H113349   1.247   4.823   6.704
 4464TIP3    H213350   1.201   4.956   6.649
 4465TIP3   OH213351   6.500   4.859   2.288
 4465TIP3    H113352   6.480   4.870   2.381
 4465TIP3    H213353   6.414   4.850   2.246
 4466TIP3   OH213354   6.110   2.257   3.568
 4466TIP3    H113355   6.189   2.308   3.550
 4466TIP3    H213356   6.049   2.320   3.608
 4467TIP3   OH213357   0.537   4.511   4.209
 4467TIP3    H113358   0.520   4.518   4.303
 4467TIP3    H213359   0.465   4.557   4.167
 4468TIP3   OH213360   2.103   0.089   6.291
 4468TIP3    H113361   2.105   0.176   6.329
 4468TIP3    H213362   2.092   0.030   6.366
 4469TIP3   OH213363   4.450   5.700   3.115
 4469TIP3    H113364   4.454   5.703   3.211
 4469TIP3    H213365   4.403   5.780   3.090
 4470TIP3   OH213366   0.426   2.796   0.945
 4470TIP3    H113367   0.484   2.822   0.873
 4470TIP3    H213368   0.479   2.735   0.996
 4471TIP3   OH213369   7.719   5.058   3.976
 4471TIP3    H113370   7.756   4.972   3.996
 4471TIP3    H213371   7.794   5.117   3.976
 4472TIP3   OH213372   6.115   4.189   4.905
 4472TIP3    H113373   6.164   4.271   4.910
 4472TIP3    H213374   6.106   4.160   4.995
 4473TIP3   OH213375   1.986   4.294   4.416
 4473TIP3    H113376   1.974   4.298   4.321
 4473TIP3    H213377   1.905   4.331   4.453
 4474TIP3   OH213378   1.017   7.692   6.165
 4474TIP3    H113379   1.073   7.624   6.129
 4474TIP3    H213380   0.928   7.669   6.137
 4475TIP3   OH213381   1.080   4.752   1.240
 4475TIP3    H113382   0.995   4.753   1.197
 4475TIP3    H213383   1.142   4.775   1.171
 4476TIP3   OH213384   5.295   1.580   6.311
 4476TIP3    H113385   5.366   1.523   6.339
 4476TIP3    H213386   5.286   1.644   6.381
 4477TIP3   OH213387   0.464   4.889   2.337
 4477TIP3    H113388   0.404   4.816   2.349
 4477TIP3    H213389   0.544   4.863   2.383
 4478TIP3   OH213390   8.159   7.574   1.155
 4478TIP3    H113391   8.212   7.596   1.078
 4478TIP3    H213392   8.213   7.511   1.203
 4479TIP3   OH213393   4.243   2.530   2.472
 4479TIP3    H113394   4.298   2.455   2.449
 4479TIP3    H213395   4.287   2.605   2.432
 4480TIP3   OH213396   5.663   6.024   3.601
 4480TIP3    H113397   5.658   6.120   3.591
 4480TIP3    H213398   5.733   5.998   3.541
 4481TIP3   OH213399   4.285   7.545   4.535
 4481TIP3    H113400   4.209   7.554   4.477
 4481TIP3    H213401   4.349   7.495   4.485
 4482TIP3   OH213402   6.540   2.131   0.196
 4482TIP3    H113403   6.579   2.107   0.279
 4482TIP3    H213404   6.517   2.048   0.154
 4483TIP3   OH213405   1.400   6.263   4.835
 4483TIP3    H113406   1.474   6.211   4.867
 4483TIP3    H213407   1.330   6.245   4.898
 4484TIP3   OH213408   3.838   7.664   0.485
 4484TIP3    H113409   3.853   7.715   0.405
 4484TIP3    H213410   3.833   7.574   0.454
 4485TIP3   OH213411   4.195   2.273   5.103
 4485TIP3    H113412   4.230   2.359   5.124
 4485TIP3    H213413   4.261   2.234   5.045
 4486TIP3   OH213414   0.099   5.581   5.186
 4486TIP3    H113415   0.184   5.601   5.227
 4486TIP3    H213416   0.037   5.583   5.259
 4487TIP3   OH213417   6.899   6.526   3.541
 4487TIP3    H113418   6.961   6.510   3.469
 4487TIP3    H213419   6.943   6.591   3.595
 4488TIP3   OH213420   7.041   5.469   6.558
 4488TIP3    H113421   7.079   5.406   6.619
 4488TIP3    H213422   6.957   5.493   6.597
 4489TIP3   OH213423   2.960   5.443   1.132
 4489TIP3    H113424   2.988   5.358   1.097
 4489TIP3    H213425   2.878   5.425   1.177
 4490TIP3   OH213426   5.612   4.880   2.605
 4490TIP3    H113427   5.623   4.970   2.573
 4490TIP3    H213428   5.683   4.831   2.562
 4491TIP3   OH213429   6.895   1.386   3.017
 4491TIP3    H113430   6.964   1.384   3.083
 4491TIP3    H213431   6.924   1.324   2.950
 4492TIP3   OH213432   5.384   5.117   4.611
 4492TIP3    H113433   5.367   5.140   4.703
 4492TIP3    H213434   5.465   5.066   4.614
 4493TIP3   OH213435   2.262   1.723   5.787
 4493TIP3    H113436   2.354   1.707   5.766
 4493TIP3    H213437   2.225   1.760   5.707
 4494TIP3   OH213438   5.128   4.142   3.719
 4494TIP3    H113439   5.049   4.133   3.773
 4494TIP3    H213440   5.195   4.093   3.766
 4495TIP3   OH213441   3.863   4.247   2.335
 4495TIP3    H113442   3.841   4.161   2.299
 4495TIP3    H213443   3.933   4.228   2.399
 4496TIP3   OH213444   7.425   2.518   3.562
 4496TIP3    H113445   7.485   2.568   3.507
 4496TIP3    H213446   7.451   2.427   3.551
 4497TIP3   OH213447   1.487   4.991   4.330
 4497TIP3    H113448   1.428   4.939   4.384
 4497TIP3    H213449   1.431   5.055   4.286
 4498TIP3   OH213450   2.143   4.935   2.570
 4498TIP3    H113451   2.100   4.988   2.638
 4498TIP3    H213452   2.184   4.999   2.512
 4499TIP3   OH213453   4.789   0.034   3.154
 4499TIP3    H113454   4.763   0.124   3.134
 4499TIP3    H213455   4.707  -0.015   3.154
 4500TIP3   OH213456   2.653   1.432   3.388
 4500TIP3    H113457   2.640   1.442   3.294
 4500TIP3    H213458   2.680   1.518   3.418
 4501TIP3   OH213459   0.914   1.210   5.962
 4501TIP3    H113460   0.846   1.188   5.898
 4501TIP3    H213461   0.940   1.125   5.998
 4502TIP3   OH213462   0.250   3.892   1.997
 4502TIP3    H113463   0.331   3.847   1.976
 4502TIP3    H213464   0.221   3.931   1.914
 4503TIP3   OH213465   5.093   2.028   2.794
 4503TIP3    H113466   5.181   2.048   2.825
 4503TIP3    H213467   5.038   2.096   2.832
 4504TIP3   OH213468   1.446   0.996   3.368
 4504TIP3    H113469   1.381   1.008   3.437
 4504TIP3    H213470   1.530   1.002   3.413
 4505TIP3   OH213471   3.914   3.611   4.381
 4505TIP3    H113472   3.910   3.696   4.338
 4505TIP3    H213473   3.825   3.577   4.376
 4506TIP3   OH213474   7.707   6.407   3.686
 4506TIP3    H113475   7.725   6.316   3.710
 4506TIP3    H213476   7.625   6.403   3.636
 4507TIP3   OH213477   4.036   0.329   0.097
 4507TIP3    H113478   4.046   0.243   0.056
 4507TIP3    H213479   4.126   0.360   0.109
 4508TIP3   OH213480   5.315   7.697   2.682
 4508TIP3    H113481   5.309   7.711   2.588
 4508TIP3    H213482   5.224   7.690   2.712
 4509TIP3   OH213483   4.535   7.466   4.404
 4509TIP3    H113484   4.630   7.460   4.394
 4509TIP3    H213485   4.517   7.560   4.398
 4510TIP3   OH213486   7.674   4.060   6.276
 4510TIP3    H113487   7.588   4.039   6.313
 4510TIP3    H213488   7.717   3.975   6.265
 4511TIP3   OH213489   4.480   4.267   5.453
 4511TIP3    H113490   4.485   4.192   5.512
 4511TIP3    H213491   4.567   4.307   5.458
 4512TIP3   OH213492   1.105   5.943   4.311
 4512TIP3    H113493   1.140   6.023   4.351
 4512TIP3    H213494   1.179   5.905   4.264
 4513TIP3   OH213495   0.808   5.963   2.374
 4513TIP3    H113496   0.770   5.928   2.454
 4513TIP3    H213497   0.790   5.896   2.308
 4514TIP3   OH213498   1.759   6.726   5.780
 4514TIP3    H113499   1.852   6.712   5.800
 4514TIP3    H213500   1.712   6.675   5.846
 4515TIP3   OH213501   3.265   1.124   4.401
 4515TIP3    H113502   3.187   1.179   4.409
 4515TIP3    H213503   3.338   1.185   4.407
 4516TIP3   OH213504   2.977   0.392   3.590
 4516TIP3    H113505   3.047   0.456   3.583
 4516TIP3    H213506   3.016   0.318   3.637
 4517TIP3   OH213507   1.429   5.107   3.770
 4517TIP3    H113508   1.500   5.155   3.813
 4517TIP3    H213509   1.385   5.061   3.841
 4518TIP3   OH213510   0.323   1.781   0.431
 4518TIP3    H113511   0.335   1.718   0.502
 4518TIP3    H213512   0.411   1.812   0.412
 4519TIP3   OH213513   6.294   4.421   4.911
 4519TIP3    H113514   6.292   4.506   4.868
 4519TIP3    H213515   6.360   4.371   4.863
 4520TIP3   OH213516   3.934   5.017   5.457
 4520TIP3    H113517   3.869   4.971   5.404
 4520TIP3    H213518   3.884   5.052   5.531
 4521TIP3   OH213519   4.193   6.397   1.168
 4521TIP3    H113520   4.217   6.359   1.253
 4521TIP3    H213521   4.113   6.350   1.144
 4522TIP3   OH213522   2.066   4.650   4.704
 4522TIP3    H113523   2.026   4.564   4.713
 4522TIP3    H213524   2.101   4.669   4.792
 4523TIP3   OH213525   7.424   6.155   3.102
 4523TIP3    H113526   7.462   6.196   3.180
 4523TIP3    H213527   7.368   6.223   3.064
 4524TIP3   OH213528   0.420   6.677   2.122
 4524TIP3    H113529   0.514   6.686   2.108
 4524TIP3    H213530   0.380   6.726   2.050
 4525TIP3   OH213531   4.334   4.075   1.559
 4525TIP3    H113532   4.418   4.032   1.544
 4525TIP3    H213533   4.351   4.168   1.541
 4526TIP3   OH213534   5.110   2.946   4.305
 4526TIP3    H113535   5.194   2.947   4.258
 4526TIP3    H213536   5.044   2.959   4.236
 4527TIP3   OH213537   5.544   5.525   6.035
 4527TIP3    H113538   5.636   5.526   6.059
 4527TIP3    H213539   5.529   5.611   5.994
 4528TIP3   OH213540   4.089   4.707   6.362
 4528TIP3    H113541   4.122   4.753   6.284
 4528TIP3    H213542   4.062   4.621   6.329
 4529TIP3   OH213543   0.716   5.495   5.859
 4529TIP3    H113544   0.750   5.409   5.834
 4529TIP3    H213545   0.729   5.550   5.782
 4530TIP3   OH213546   1.059   5.519   2.325
 4530TIP3    H113547   1.058   5.438   2.376
 4530TIP3    H213548   1.114   5.579   2.376
 4531TIP3   OH213549   1.258   4.471   0.203
 4531TIP3    H113550   1.187   4.527   0.235
 4531TIP3    H213551   1.304   4.526   0.139
 4532TIP3   OH213552   3.197   4.694   5.951
 4532TIP3    H113553   3.105   4.709   5.972
 4532TIP3    H213554   3.196   4.634   5.876
 4533TIP3   OH213555   6.760   0.749   6.587
 4533TIP3    H113556   6.748   0.663   6.546
 4533TIP3    H213557   6.691   0.755   6.653
 4534TIP3   OH213558   2.169   6.929   2.135
 4534TIP3    H113559   2.088   6.977   2.121
 4534TIP3    H213560   2.178   6.873   2.058
 4535TIP3   OH213561   5.339   1.181   4.991
 4535TIP3    H113562   5.403   1.148   4.929
 4535TIP3    H213563   5.271   1.113   4.995
 4536TIP3   OH213564   2.223   4.463   1.565
 4536TIP3    H113565   2.249   4.420   1.647
 4536TIP3    H213566   2.219   4.556   1.587
 4537TIP3   OH213567   5.383   3.803   1.359
 4537TIP3    H113568   5.421   3.882   1.399
 4537TIP3    H213569   5.458   3.747   1.341
 4538TIP3   OH213570   6.444   6.299   2.049
 4538TIP3    H113571   6.491   6.215   2.059
 4538TIP3    H213572   6.390   6.305   2.128
 4539TIP3   OH213573   1.102   3.015   3.960
 4539TIP3    H113574   1.094   3.042   3.868
 4539TIP3    H213575   1.017   2.976   3.981
 4540TIP3   OH213576   5.526   0.571   6.462
 4540TIP3    H113577   5.601   0.514   6.477
 4540TIP3    H213578   5.498   0.597   6.550
 4541TIP3   OH213579   5.533   2.412   5.509
 4541TIP3    H113580   5.611   2.362   5.535
 4541TIP3    H213581   5.543   2.424   5.415
 4542TIP3   OH213582   1.971   0.651   3.756
 4542TIP3    H113583   1.916   0.577   3.784
 4542TIP3    H213584   2.042   0.653   3.820
 4543TIP3   OH213585   2.082   3.460   3.153
 4543TIP3    H113586   2.142   3.529   3.124
 4543TIP3    H213587   2.115   3.381   3.110
 4544TIP3   OH213588   4.627   1.873   5.477
 4544TIP3    H113589   4.656   1.842   5.391
 4544TIP3    H213590   4.707   1.907   5.518
 4545TIP3   OH213591   0.222   1.322   1.580
 4545TIP3    H113592   0.167   1.374   1.521
 4545TIP3    H213593   0.197   1.231   1.562
 4546TIP3   OH213594   3.222   4.979   5.356
 4546TIP3    H113595   3.181   5.039   5.294
 4546TIP3    H213596   3.238   5.033   5.434
 4547TIP3   OH213597   4.921   7.221   3.279
 4547TIP3    H113598   4.921   7.286   3.350
 4547TIP3    H213599   4.830   7.192   3.273
 4548TIP3   OH213600   7.753   2.518   0.361
 4548TIP3    H113601   7.768   2.611   0.344
 4548TIP3    H213602   7.714   2.516   0.448
 4549TIP3   OH213603   7.740   2.594   1.106
 4549TIP3    H113604   7.789   2.543   1.042
 4549TIP3    H213605   7.778   2.682   1.101
 4550TIP3   OH213606   5.204   5.927   6.089
 4550TIP3    H113607   5.230   5.852   6.142
 4550TIP3    H213608   5.273   5.992   6.105
 4551TIP3   OH213609   0.378   5.613   1.045
 4551TIP3    H113610   0.443   5.544   1.032
 4551TIP3    H213611   0.325   5.582   1.118
 4552TIP3   OH213612   4.373   2.309   1.736
 4552TIP3    H113613   4.281   2.314   1.713
 4552TIP3    H213614   4.415   2.376   1.683
 4553TIP3   OH213615   1.846   6.731   6.162
 4553TIP3    H113616   1.769   6.728   6.220
 4553TIP3    H213617   1.843   6.647   6.116
 4554TIP3   OH213618   0.865   7.345   0.142
 4554TIP3    H113619   0.780   7.314   0.110
 4554TIP3    H213620   0.893   7.277   0.204
 4555TIP3   OH213621   8.328   6.453   6.180
 4555TIP3    H113622   8.256   6.404   6.141
 4555TIP3    H213623   8.388   6.385   6.214
 4556TIP3   OH213624   1.995   5.484   6.600
 4556TIP3    H113625   2.020   5.490   6.693
 4556TIP3    H213626   2.028   5.564   6.561
 4557TIP3   OH213627   2.245   6.731   4.907
 4557TIP3    H113628   2.322   6.759   4.857
 4557TIP3    H213629   2.256   6.636   4.915
 4558TIP3   OH213630   3.357   3.677   3.531
 4558TIP3    H113631   3.396   3.716   3.609
 4558TIP3    H213632   3.299   3.745   3.496
 4559TIP3   OH213633   0.415   3.414   3.533
 4559TIP3    H113634   0.338   3.466   3.554
 4559TIP3    H213635   0.393   3.370   3.451
 4560TIP3   OH213636   2.312   5.646   2.973
 4560TIP3    H113637   2.407   5.657   2.975
 4560TIP3    H213638   2.297   5.576   2.909
 4561TIP3   OH213639   6.641   1.101   0.758
 4561TIP3    H113640   6.590   1.116   0.838
 4561TIP3    H213641   6.575   1.098   0.688
 4562TIP3   OH213642   6.342   2.519   5.259
 4562TIP3    H113643   6.435   2.532   5.279
 4562TIP3    H213644   6.335   2.428   5.231
 4563TIP3   OH213645   3.406   4.757   6.733
 4563TIP3    H113646   3.473   4.709   6.684
 4563TIP3    H213647   3.404   4.714   6.819
 4564TIP3   OH213648   2.170   1.465   5.766
 4564TIP3    H113649   2.093   1.453   5.821
 4564TIP3    H213650   2.207   1.549   5.794
 4565TIP3   OH213651   0.328   4.878   0.430
 4565TIP3    H113652   0.382   4.957   0.427
 4565TIP3    H213653   0.346   4.833   0.348
 4566TIP3   OH213654   5.099   4.572   3.777
 4566TIP3    H113655   5.039   4.579   3.852
 4566TIP3    H213656   5.186   4.591   3.814
 4567TIP3   OH213657   6.537   3.658   6.213
 4567TIP3    H113658   6.532   3.743   6.258
 4567TIP3    H213659   6.472   3.604   6.259
 4568TIP3   OH213660   2.928   5.611   2.801
 4568TIP3    H113661   2.888   5.670   2.864
 4568TIP3    H213662   2.857   5.586   2.742
 4569TIP3   OH213663   2.026   3.001   3.967
 4569TIP3    H113664   2.048   3.068   4.031
 4569TIP3    H213665   1.971   3.046   3.903
 4570TIP3   OH213666   1.624   1.648   0.191
 4570TIP3    H113667   1.559   1.718   0.189
 4570TIP3    H213668   1.598   1.588   0.121
 4571TIP3   OH213669   2.305   1.497   4.397
 4571TIP3    H113670   2.222   1.534   4.366
 4571TIP3    H213671   2.279   1.422   4.450
 4572TIP3   OH213672   5.236   0.118   0.125
 4572TIP3    H113673   5.300   0.190   0.122
 4572TIP3    H213674   5.249   0.078   0.211
 4573TIP3   OH213675   6.227   3.921   1.658
 4573TIP3    H113676   6.263   3.977   1.727
 4573TIP3    H213677   6.184   3.981   1.598
 4574TIP3   OH213678   8.367   6.580   1.949
 4574TIP3    H113679   8.313   6.610   2.022
 4574TIP3    H213680   8.363   6.652   1.886
 4575TIP3   OH213681   4.091   6.817   1.003
 4575TIP3    H113682   4.103   6.722   1.002
 4575TIP3    H213683   4.064   6.837   1.093
 4576TIP3   OH213684   6.181   3.098   1.844
 4576TIP3    H113685   6.260   3.145   1.816
 4576TIP3    H213686   6.211   3.010   1.866
 4577TIP3   OH213687   5.003   7.036   6.669
 4577TIP3    H113688   4.951   7.060   6.593
 4577TIP3    H213689   5.091   7.070   6.651
 4578TIP3   OH213690   2.882   7.377   3.056
 4578TIP3    H113691   2.819   7.448   3.068
 4578TIP3    H213692   2.873   7.353   2.963
 4579TIP3   OH213693   3.711   3.745   5.364
 4579TIP3    H113694   3.805   3.751   5.383
 4579TIP3    H213695   3.707   3.731   5.269
 4580TIP3   OH213696   0.218   5.695   0.436
 4580TIP3    H113697   0.274   5.715   0.512
 4580TIP3    H213698   0.139   5.746   0.451
 4581TIP3   OH213699   2.949   4.612   5.801
 4581TIP3    H113700   3.012   4.625   5.730
 4581TIP3    H213701   2.933   4.517   5.801
 4582TIP3   OH213702   5.850   5.371   4.406
 4582TIP3    H113703   5.898   5.309   4.351
 4582TIP3    H213704   5.909   5.445   4.418
 4583TIP3   OH213705   3.029   1.792   3.651
 4583TIP3    H113706   3.112   1.812   3.694
 4583TIP3    H213707   2.962   1.825   3.711
 4584TIP3   OH213708   7.912   7.776   5.906
 4584TIP3    H113709   7.818   7.794   5.905
 4584TIP3    H213710   7.951   7.852   5.952
 4585TIP3   OH213711   1.348   7.226  -0.034
 4585TIP3    H113712   1.426   7.208   0.020
 4585TIP3    H213713   1.280   7.249   0.030
 4586TIP3   OH213714   5.926   4.225   3.747
 4586TIP3    H113715   5.995   4.287   3.771
 4586TIP3    H213716   5.937   4.212   3.653
 4587TIP3   OH213717   2.008   1.070   4.929
 4587TIP3    H113718   1.955   1.028   4.861
 4587TIP3    H213719   1.945   1.112   4.986
 4588TIP3   OH213720   1.279   7.798   2.366
 4588TIP3    H113721   1.204   7.765   2.316
 4588TIP3    H213722   1.268   7.893   2.366
 4589TIP3   OH213723   6.890   0.524   0.151
 4589TIP3    H113724   6.966   0.568   0.112
 4589TIP3    H213725   6.918   0.433   0.160
 4590TIP3   OH213726   6.254   4.902   6.387
 4590TIP3    H113727   6.280   4.911   6.295
 4590TIP3    H213728   6.330   4.932   6.437
 4591TIP3   OH213729   5.429   1.263   2.254
 4591TIP3    H113730   5.366   1.253   2.325
 4591TIP3    H213731   5.443   1.173   2.222
 4592TIP3   OH213732   4.062   4.752   4.658
 4592TIP3    H113733   4.152   4.773   4.632
 4592TIP3    H213734   4.008   4.815   4.610
 4593TIP3   OH213735   7.823   5.584   5.478
 4593TIP3    H113736   7.895   5.583   5.541
 4593TIP3    H213737   7.856   5.635   5.405
 4594TIP3   OH213738   1.396   5.298   5.840
 4594TIP3    H113739   1.481   5.342   5.848
 4594TIP3    H213740   1.370   5.313   5.749
 4595TIP3   OH213741   0.059   3.859   6.429
 4595TIP3    H113742   0.053   3.781   6.485
 4595TIP3    H213743   0.105   3.924   6.483
 4596TIP3   OH213744   2.646   6.494   5.779
 4596TIP3    H113745   2.561   6.480   5.738
 4596TIP3    H213746   2.631   6.564   5.843
 4597TIP3   OH213747   0.946   6.416   2.743
 4597TIP3    H113748   0.855   6.444   2.750
 4597TIP3    H213749   0.953   6.339   2.799
 4598TIP3   OH213750   2.745   7.172   0.738
 4598TIP3    H113751   2.713   7.151   0.826
 4598TIP3    H213752   2.804   7.246   0.751
 4599TIP3   OH213753   2.246   1.946   4.816
 4599TIP3    H113754   2.194   1.998   4.755
 4599TIP3    H213755   2.315   2.005   4.845
 4600TIP3   OH213756   7.108   3.317   1.118
 4600TIP3    H113757   7.049   3.273   1.179
 4600TIP3    H213758   7.049   3.365   1.059
 4601TIP3   OH213759   2.085   3.446   2.141
 4601TIP3    H113760   2.057   3.384   2.208
 4601TIP3    H213761   2.040   3.528   2.165
 4602TIP3   OH213762   4.729   7.087   2.972
 4602TIP3    H113763   4.788   7.161   2.954
 4602TIP3    H213764   4.779   7.029   3.029
 4603TIP3   OH213765   3.285   0.299   0.164
 4603TIP3    H113766   3.366   0.309   0.113
 4603TIP3    H213767   3.270   0.205   0.167
 4604TIP3   OH213768   6.160   6.006   1.970
 4604TIP3    H113769   6.146   5.919   2.006
 4604TIP3    H213770   6.078   6.028   1.926
 4605TIP3   OH213771   3.845   1.966   2.406
 4605TIP3    H113772   3.903   1.991   2.478
 4605TIP3    H213773   3.892   1.993   2.327
 4606TIP3   OH213774   3.981   4.080   2.066
 4606TIP3    H113775   4.043   4.139   2.023
 4606TIP3    H213776   3.916   4.061   1.998
 4607TIP3   OH213777   6.319   1.465   0.633
 4607TIP3    H113778   6.322   1.541   0.575
 4607TIP3    H213779   6.301   1.502   0.720
 4608TIP3   OH213780   2.644   5.152   6.302
 4608TIP3    H113781   2.617   5.065   6.274
 4608TIP3    H213782   2.683   5.139   6.389
 4609TIP3   OH213783   7.463   1.829   4.356
 4609TIP3    H113784   7.396   1.760   4.356
 4609TIP3    H213785   7.438   1.886   4.429
 4610TIP3   OH213786   1.088   1.006   3.750
 4610TIP3    H113787   1.094   1.066   3.824
 4610TIP3    H213788   1.001   0.965   3.759
 4611TIP3   OH213789   6.946   0.315   4.837
 4611TIP3    H113790   6.868   0.303   4.891
 4611TIP3    H213791   6.939   0.404   4.803
 4612TIP3   OH213792   0.448   6.928   5.797
 4612TIP3    H113793   0.394   6.890   5.728
 4612TIP3    H213794   0.408   7.013   5.815
 4613TIP3   OH213795   4.548   3.350   6.669
 4613TIP3    H113796   4.558   3.356   6.764
 4613TIP3    H213797   4.635   3.325   6.638
 4614TIP3   OH213798   7.082   4.319   2.893
 4614TIP3    H113799   7.047   4.238   2.930
 4614TIP3    H213800   7.177   4.304   2.890
 4615TIP3   OH213801   5.840   1.537   1.762
 4615TIP3    H113802   5.795   1.531   1.846
 4615TIP3    H213803   5.910   1.601   1.776
 4616TIP3   OH213804   6.579   1.070   3.037
 4616TIP3    H113805   6.537   1.142   2.991
 4616TIP3    H213806   6.599   1.105   3.124
 4617TIP3   OH213807   4.374   0.242   6.489
 4617TIP3    H113808   4.329   0.298   6.552
 4617TIP3    H213809   4.306   0.184   6.454
 4618TIP3   OH213810   3.694   6.819   0.360
 4618TIP3    H113811   3.753   6.788   0.292
 4618TIP3    H213812   3.698   6.915   0.354
 4619TIP3   OH213813   0.603   2.497   4.988
 4619TIP3    H113814   0.637   2.506   4.899
 4619TIP3    H213815   0.576   2.586   5.012
 4620TIP3   OH213816   7.813   2.896   2.466
 4620TIP3    H113817   7.718   2.905   2.473
 4620TIP3    H213818   7.827   2.850   2.383
 4621TIP3   OH213819   0.894   2.915   1.870
 4621TIP3    H113820   0.938   2.930   1.786
 4621TIP3    H213821   0.822   2.979   1.871
 4622TIP3   OH213822   5.462   7.558   3.569
 4622TIP3    H113823   5.509   7.478   3.546
 4622TIP3    H213824   5.393   7.565   3.503
 4623TIP3   OH213825   7.716   7.107   5.020
 4623TIP3    H113826   7.715   7.129   4.926
 4623TIP3    H213827   7.644   7.045   5.031
 4624TIP3   OH213828   0.257   0.477   1.745
 4624TIP3    H113829   0.249   0.393   1.789
 4624TIP3    H213830   0.349   0.502   1.757
 4625TIP3   OH213831   8.025   1.290   5.824
 4625TIP3    H113832   7.965   1.237   5.876
 4625TIP3    H213833   7.971   1.325   5.752
 4626TIP3   OH213834   1.437   2.909   0.455
 4626TIP3    H113835   1.524   2.915   0.494
 4626TIP3    H213836   1.446   2.955   0.371
 4627TIP3   OH213837   5.668   0.192   2.740
 4627TIP3    H113838   5.578   0.183   2.770
 4627TIP3    H213839   5.692   0.104   2.711
 4628TIP3   OH213840   5.515   6.492   0.580
 4628TIP3    H113841   5.491   6.412   0.534
 4628TIP3    H213842   5.469   6.562   0.533
 4629TIP3   OH213843   3.021   1.744   5.611
 4629TIP3    H113844   3.100   1.772   5.657
 4629TIP3    H213845   2.952   1.746   5.678
 4630TIP3   OH213846   3.597   3.477   0.261
 4630TIP3    H113847   3.583   3.548   0.324
 4630TIP3    H213848   3.568   3.513   0.177
 4631TIP3   OH213849   5.135   2.023   5.608
 4631TIP3    H113850   5.191   1.970   5.551
 4631TIP3    H213851   5.196   2.061   5.672
 4632TIP3   OH213852   0.704   4.302   4.624
 4632TIP3    H113853   0.704   4.272   4.714
 4632TIP3    H213854   0.749   4.386   4.626
 4633TIP3   OH213855   3.134   7.287   5.454
 4633TIP3    H113856   3.075   7.250   5.520
 4633TIP3    H213857   3.191   7.346   5.503
 4634TIP3   OH213858   5.037   1.936   3.292
 4634TIP3    H113859   4.980   1.921   3.217
 4634TIP3    H213860   4.982   1.916   3.368
 4635TIP3   OH213861   2.563   5.690   2.874
 4635TIP3    H113862   2.647   5.716   2.912
 4635TIP3    H213863   2.545   5.757   2.808
 4636TIP3   OH213864   7.149   4.407   0.803
 4636TIP3    H113865   7.082   4.338   0.809
 4636TIP3    H213866   7.212   4.385   0.871
 4637TIP3   OH213867   1.635   6.231   3.764
 4637TIP3    H113868   1.547   6.269   3.770
 4637TIP3    H213869   1.623   6.150   3.714
 4638TIP3   OH213870   4.860   2.006   5.535
 4638TIP3    H113871   4.949   1.979   5.558
 4638TIP3    H213872   4.872   2.085   5.482
 4639TIP3   OH213873   4.803   7.510   4.382
 4639TIP3    H113874   4.800   7.580   4.316
 4639TIP3    H213875   4.886   7.465   4.364
 4640TIP3   OH213876   3.202   5.854   3.549
 4640TIP3    H113877   3.169   5.768   3.577
 4640TIP3    H213878   3.297   5.843   3.548
 4641TIP3   OH213879   3.543   1.148   4.899
 4641TIP3    H113880   3.627   1.149   4.946
 4641TIP3    H213881   3.479   1.178   4.964
 4642TIP3   OH213882   4.133   6.164   1.332
 4642TIP3    H113883   4.060   6.122   1.377
 4642TIP3    H213884   4.108   6.166   1.240
 4643TIP3   OH213885   7.155   3.338   1.954
 4643TIP3    H113886   7.159   3.407   2.020
 4643TIP3    H213887   7.069   3.349   1.913
 4644TIP3   OH213888   6.735   5.786   3.861
 4644TIP3    H113889   6.812   5.770   3.807
 4644TIP3    H213890   6.702   5.699   3.882
 4645TIP3   OH213891   3.528   0.376   2.062
 4645TIP3    H113892   3.471   0.300   2.053
 4645TIP3    H213893   3.535   0.411   1.973
 4646TIP3   OH213894   2.311   0.879   0.354
 4646TIP3    H113895   2.392   0.832   0.337
 4646TIP3    H213896   2.242   0.813   0.344
 4647TIP3   OH213897   1.066   0.705   0.900
 4647TIP3    H113898   1.037   0.762   0.829
 4647TIP3    H213899   0.987   0.689   0.952
 4648TIP3   OH213900   5.227   0.729   6.117
 4648TIP3    H113901   5.153   0.743   6.176
 4648TIP3    H213902   5.265   0.646   6.144
 4649TIP3   OH213903   1.501   7.374   0.679
 4649TIP3    H113904   1.479   7.334   0.594
 4649TIP3    H213905   1.576   7.430   0.660
 4650TIP3   OH213906   0.789   7.177   4.731
 4650TIP3    H113907   0.864   7.139   4.777
 4650TIP3    H213908   0.775   7.261   4.774
 4651TIP3   OH213909   6.077   6.576   0.860
 4651TIP3    H113910   6.025   6.603   0.936
 4651TIP3    H213911   6.158   6.541   0.896
 4652TIP3   OH213912   0.622   5.426   3.954
 4652TIP3    H113913   0.629   5.380   4.038
 4652TIP3    H213914   0.529   5.420   3.932
 4653TIP3   OH213915   6.698   0.057   2.786
 4653TIP3    H113916   6.623   0.003   2.813
 4653TIP3    H213917   6.659   0.140   2.759
 4654TIP3   OH213918   5.653   7.423   3.376
 4654TIP3    H113919   5.615   7.419   3.289
 4654TIP3    H213920   5.658   7.332   3.405
 4655TIP3   OH213921   1.283   3.257   0.394
 4655TIP3    H113922   1.326   3.320   0.337
 4655TIP3    H213923   1.332   3.261   0.476
 4656TIP3   OH213924   0.009   6.179   4.902
 4656TIP3    H113925   0.003   6.227   4.985
 4656TIP3    H213926   0.078   6.223   4.853
 4657TIP3   OH213927   4.807   3.246   0.467
 4657TIP3    H113928   4.745   3.187   0.511
 4657TIP3    H213929   4.760   3.280   0.392
 4658TIP3   OH213930   3.402   5.734   2.185
 4658TIP3    H113931   3.362   5.674   2.122
 4658TIP3    H213932   3.327   5.773   2.230
 4659TIP3   OH213933   7.157   5.911   0.299
 4659TIP3    H113934   7.186   5.825   0.326
 4659TIP3    H213935   7.227   5.970   0.326
 4660TIP3   OH213936   6.933   6.045   4.631
 4660TIP3    H113937   6.969   6.103   4.563
 4660TIP3    H213938   6.991   6.059   4.706
 4661TIP3   OH213939   4.725   7.185   2.533
 4661TIP3    H113940   4.689   7.105   2.494
 4661TIP3    H213941   4.660   7.211   2.598
 4662TIP3   OH213942   7.205   7.012   2.925
 4662TIP3    H113943   7.234   7.091   2.879
 4662TIP3    H213944   7.204   7.037   3.017
 4663TIP3   OH213945   4.386   6.291   0.268
 4663TIP3    H113946   4.331   6.242   0.329
 4663TIP3    H213947   4.366   6.254   0.182
 4664TIP3   OH213948   5.948   5.061   4.535
 4664TIP3    H113949   6.022   5.114   4.507
 4664TIP3    H213950   5.985   5.000   4.599
 4665TIP3   OH213951   7.136   3.965   2.233
 4665TIP3    H113952   7.094   4.026   2.172
 4665TIP3    H213953   7.155   4.018   2.310
 4666TIP3   OH213954   5.721   0.829   3.747
 4666TIP3    H113955   5.704   0.806   3.838
 4666TIP3    H213956   5.637   0.818   3.702
 4667TIP3   OH213957   3.416   1.934   3.104
 4667TIP3    H113958   3.372   2.016   3.129
 4667TIP3    H213959   3.362   1.866   3.143
 4668TIP3   OH213960   6.619   1.368   2.163
 4668TIP3    H113961   6.594   1.420   2.239
 4668TIP3    H213962   6.714   1.360   2.170
 4669TIP3   OH213963   3.474   2.839   3.353
 4669TIP3    H113964   3.430   2.808   3.274
 4669TIP3    H213965   3.561   2.799   3.349
 4670TIP3   OH213966   0.830   6.320   5.356
 4670TIP3    H113967   0.860   6.241   5.311
 4670TIP3    H213968   0.781   6.287   5.431
 4671TIP3   OH213969   2.125   2.313   3.867
 4671TIP3    H113970   2.213   2.278   3.882
 4671TIP3    H213971   2.091   2.258   3.796
 4672TIP3   OH213972   5.593   5.680   2.158
 4672TIP3    H113973   5.610   5.761   2.110
 4672TIP3    H213974   5.534   5.630   2.101
 4673TIP3   OH213975   6.423   7.627   3.894
 4673TIP3    H113976   6.378   7.608   3.812
 4673TIP3    H213977   6.360   7.601   3.962
 4674TIP3   OH213978   0.167   5.435   3.357
 4674TIP3    H113979   0.257   5.404   3.351
 4674TIP3    H213980   0.120   5.387   3.289
 4675TIP3   OH213981   0.584   3.755   5.991
 4675TIP3    H113982   0.602   3.738   6.084
 4675TIP3    H213983   0.645   3.825   5.967
 4676TIP3   OH213984   3.280   5.172   5.982
 4676TIP3    H113985   3.313   5.083   5.990
 4676TIP3    H213986   3.191   5.162   5.947
 4677TIP3   OH213987   1.748   5.858   5.468
 4677TIP3    H113988   1.827   5.820   5.507
 4677TIP3    H213989   1.708   5.786   5.420
 4678TIP3   OH213990   4.904   4.131   5.565
 4678TIP3    H113991   4.921   4.186   5.488
 4678TIP3    H213992   4.977   4.068   5.566
 4679TIP3   OH213993   0.622   7.467   0.327
 4679TIP3    H113994   0.615   7.378   0.361
 4679TIP3    H213995   0.611   7.457   0.232
 4680TIP3   OH213996   5.831   4.519   5.946
 4680TIP3    H113997   5.907   4.526   5.887
 4680TIP3    H213998   5.839   4.595   6.003
 4681TIP3   OH213999   1.315   7.423   5.799
 4681TIP3    H114000   1.374   7.351   5.776
 4681TIP3    H214001   1.339   7.493   5.738
 4682TIP3   OH214002   1.444   0.833   6.503
 4682TIP3    H114003   1.530   0.797   6.526
 4682TIP3    H214004   1.424   0.895   6.573
 4683TIP3   OH214005   1.697   1.930   2.138
 4683TIP3    H114006   1.706   1.847   2.184
 4683TIP3    H214007   1.665   1.991   2.206
 4684TIP3   OH214008   0.430   6.392   6.717
 4684TIP3    H114009   0.503   6.453   6.713
 4684TIP3    H214010   0.447   6.338   6.795
 4685TIP3   OH214011   1.338   7.524   0.080
 4685TIP3    H114012   1.417   7.474   0.098
 4685TIP3    H214013   1.266   7.462   0.094
 4686TIP3   OH214014   0.239   5.924   5.032
 4686TIP3    H114015   0.197   5.966   5.107
 4686TIP3    H214016   0.271   5.997   4.978
 4687TIP3   OH214017   1.200   7.597   0.729
 4687TIP3    H114018   1.144   7.627   0.657
 4687TIP3    H214019   1.279   7.651   0.723
 4688TIP3   OH214020   0.927   0.609   0.086
 4688TIP3    H114021   1.014   0.581   0.111
 4688TIP3    H214022   0.868   0.562   0.145
 4689TIP3   OH214023   6.068   0.228   3.489
 4689TIP3    H114024   6.081   0.190   3.576
 4689TIP3    H214025   6.139   0.292   3.480
 4690TIP3   OH214026   2.611   7.671   5.747
 4690TIP3    H114027   2.540   7.660   5.810
 4690TIP3    H214028   2.655   7.585   5.745
 4691TIP3   OH214029   3.866   3.550   5.931
 4691TIP3    H114030   3.784   3.502   5.920
 4691TIP3    H214031   3.915   3.501   5.997
 4692TIP3   OH214032   3.022   1.274   4.699
 4692TIP3    H114033   3.052   1.349   4.648
 4692TIP3    H214034   3.087   1.206   4.681
 4693TIP3   OH214035   1.035   5.830   1.042
 4693TIP3    H114036   1.093   5.851   1.115
 4693TIP3    H214037   1.034   5.734   1.039
 4694TIP3   OH214038   6.630   2.176   2.676
 4694TIP3    H114039   6.626   2.086   2.643
 4694TIP3    H214040   6.640   2.229   2.597
 4695TIP3   OH214041   1.331   3.343   3.961
 4695TIP3    H114042   1.246   3.303   3.977
 4695TIP3    H214043   1.312   3.423   3.913
 4696TIP3   OH214044   3.209   6.015   2.167
 4696TIP3    H114045   3.175   5.951   2.230
 4696TIP3    H214046   3.220   5.965   2.086
 4697TIP3   OH214047   2.105   5.955   1.755
 4697TIP3    H114048   2.139   6.032   1.802
 4697TIP3    H214049   2.073   5.991   1.672
 4698TIP3   OH214050   1.946   7.422   5.656
 4698TIP3    H114051   1.924   7.332   5.632
 4698TIP3    H214052   1.862   7.465   5.669
 4699TIP3   OH214053   6.277   4.843   1.542
 4699TIP3    H114054   6.336   4.895   1.486
 4699TIP3    H214055   6.273   4.758   1.499
 4700TIP3   OH214056   8.103   1.814   6.637
 4700TIP3    H114057   8.177   1.870   6.660
 4700TIP3    H214058   8.143   1.736   6.598
 4701TIP3   OH214059   6.629   4.010   4.826
 4701TIP3    H114060   6.634   3.946   4.897
 4701TIP3    H214061   6.718   4.014   4.792
 4702TIP3   OH214062   4.849   4.688   4.580
 4702TIP3    H114063   4.879   4.612   4.529
 4702TIP3    H214064   4.763   4.708   4.544
 4703TIP3   OH214065   5.667   6.741   0.888
 4703TIP3    H114066   5.685   6.809   0.953
 4703TIP3    H214067   5.622   6.672   0.937
 4704TIP3   OH214068   0.641   7.251   0.514
 4704TIP3    H114069   0.736   7.249   0.504
 4704TIP3    H214070   0.627   7.264   0.608
 4705TIP3   OH214071   6.895   6.990   6.372
 4705TIP3    H114072   6.888   7.080   6.404
 4705TIP3    H214073   6.879   6.996   6.278
 4706TIP3   OH214074   0.200   4.228   3.332
 4706TIP3    H114075   0.213   4.141   3.294
 4706TIP3    H214076   0.126   4.264   3.282
 4707TIP3   OH214077   1.141   4.029   0.484
 4707TIP3    H114078   1.221   4.034   0.433
 4707TIP3    H214079   1.123   4.120   0.509
 4708TIP3   OH214080   5.067   0.748   6.718
 4708TIP3    H114081   4.975   0.733   6.694
 4708TIP3    H214082   5.094   0.667   6.762
 4709TIP3   OH214083   4.943   0.654   5.277
 4709TIP3    H114084   5.019   0.635   5.222
 4709TIP3    H214085   4.965   0.618   5.363
 4710TIP3   OH214086   2.709   4.163   1.629
 4710TIP3    H114087   2.744   4.103   1.563
 4710TIP3    H214088   2.740   4.249   1.603
 4711TIP3   OH214089   0.989   2.141   3.040
 4711TIP3    H114090   1.026   2.223   3.073
 4711TIP3    H214091   1.011   2.141   2.947
 4712TIP3   OH214092   0.728   5.330   4.172
 4712TIP3    H114093   0.667   5.362   4.238
 4712TIP3    H214094   0.813   5.363   4.201
 4713TIP3   OH214095   7.888   5.628   3.995
 4713TIP3    H114096   7.891   5.690   3.922
 4713TIP3    H214097   7.872   5.683   4.072
 4714TIP3   OH214098   1.027   1.329   2.054
 4714TIP3    H114099   1.119   1.343   2.073
 4714TIP3    H214100   0.980   1.375   2.123
 4715TIP3   OH214101   8.312   3.635   4.073
 4715TIP3    H114102   8.285   3.552   4.035
 4715TIP3    H214103   8.345   3.612   4.160
 4716TIP3   OH214104   4.660   3.497   0.530
 4716TIP3    H114105   4.633   3.586   0.552
 4716TIP3    H214106   4.581   3.444   0.545
 4717TIP3   OH214107   6.559   2.509   0.824
 4717TIP3    H114108   6.520   2.462   0.751
 4717TIP3    H214109   6.488   2.564   0.857
 4718TIP3   OH214110   4.330   6.666   6.595
 4718TIP3    H114111   4.274   6.602   6.551
 4718TIP3    H214112   4.298   6.667   6.685
 4719TIP3   OH214113   3.199   2.085   6.366
 4719TIP3    H114114   3.244   2.141   6.430
 4719TIP3    H214115   3.241   2.106   6.282
 4720TIP3   OH214116   3.514   0.288   2.710
 4720TIP3    H114117   3.537   0.380   2.695
 4720TIP3    H214118   3.561   0.241   2.642
 4721TIP3   OH214119   0.397   1.441   4.016
 4721TIP3    H114120   0.472   1.455   3.958
 4721TIP3    H214121   0.415   1.357   4.058
 4722TIP3   OH214122   0.477   4.264   2.094
 4722TIP3    H114123   0.405   4.245   2.033
 4722TIP3    H214124   0.555   4.271   2.038
 4723TIP3   OH214125   5.267   5.631   5.739
 4723TIP3    H114126   5.350   5.663   5.774
 4723TIP3    H214127   5.221   5.594   5.815
 4724TIP3   OH214128   7.210   6.442   4.008
 4724TIP3    H114129   7.120   6.429   4.037
 4724TIP3    H214130   7.263   6.391   4.069
 4725TIP3   OH214131   3.610   6.341   1.631
 4725TIP3    H114132   3.629   6.429   1.664
 4725TIP3    H214133   3.535   6.311   1.683
 4726TIP3   OH214134   3.270   4.545   1.023
 4726TIP3    H114135   3.299   4.454   1.030
 4726TIP3    H214136   3.240   4.554   0.933
 4727TIP3   OH214137   4.433   3.181   0.951
 4727TIP3    H114138   4.402   3.269   0.932
 4727TIP3    H214139   4.364   3.143   1.006
 4728TIP3   OH214140   0.612   5.240   5.228
 4728TIP3    H114141   0.550   5.307   5.196
 4728TIP3    H214142   0.646   5.277   5.309
 4729TIP3   OH214143   6.681   1.854   4.453
 4729TIP3    H114144   6.613   1.797   4.417
 4729TIP3    H214145   6.733   1.881   4.377
 4730TIP3   OH214146   0.995   1.298   0.045
 4730TIP3    H114147   1.014   1.358  -0.027
 4730TIP3    H214148   1.060   1.228   0.036
 4731TIP3   OH214149   1.877   7.462   4.396
 4731TIP3    H114150   1.831   7.542   4.421
 4731TIP3    H214151   1.969   7.485   4.398
 4732TIP3   OH214152   4.070   1.017   1.666
 4732TIP3    H114153   4.018   1.096   1.652
 4732TIP3    H214154   4.137   1.020   1.597
 4733TIP3   OH214155   7.282   3.449   6.658
 4733TIP3    H114156   7.271   3.533   6.612
 4733TIP3    H214157   7.341   3.399   6.602
 4734TIP3   OH214158   0.196   3.322   1.435
 4734TIP3    H114159   0.219   3.281   1.352
 4734TIP3    H214160   0.143   3.398   1.409
 4735TIP3   OH214161   1.943   4.894   6.020
 4735TIP3    H114162   2.010   4.857   5.963
 4735TIP3    H214163   1.991   4.938   6.090
 4736TIP3   OH214164   1.960   7.297   3.356
 4736TIP3    H114165   1.997   7.212   3.332
 4736TIP3    H214166   1.865   7.283   3.355
 4737TIP3   OH214167   3.063   4.433   0.059
 4737TIP3    H114168   3.023   4.409   0.142
 4737TIP3    H214169   3.056   4.528   0.055
 4738TIP3   OH214170   0.388   4.593   2.721
 4738TIP3    H114171   0.445   4.563   2.650
 4738TIP3    H214172   0.311   4.628   2.676
 4739TIP3   OH214173   2.563   2.220   5.289
 4739TIP3    H114174   2.511   2.300   5.293
 4739TIP3    H214175   2.599   2.210   5.377
 4740TIP3   OH214176   8.003   0.047   3.360
 4740TIP3    H114177   7.995  -0.032   3.414
 4740TIP3    H214178   7.913   0.080   3.353
 4741TIP3   OH214179   0.163   5.751   3.037
 4741TIP3    H114180   0.163   5.731   2.943
 4741TIP3    H214181   0.181   5.845   3.042
 4742TIP3   OH214182   0.134   0.617   4.114
 4742TIP3    H114183   0.062   0.680   4.109
 4742TIP3    H214184   0.147   0.589   4.024
 4743TIP3   OH214185   2.255   1.670   3.996
 4743TIP3    H114186   2.325   1.605   3.999
 4743TIP3    H214187   2.190   1.633   3.936
 4744TIP3   OH214188   6.832   2.150   5.307
 4744TIP3    H114189   6.840   2.174   5.399
 4744TIP3    H214190   6.739   2.130   5.295
 4745TIP3   OH214191   2.938   4.030   1.114
 4745TIP3    H114192   2.931   3.967   1.042
 4745TIP3    H214193   3.015   4.000   1.163
 4746TIP3   OH214194   4.964   5.154   4.045
 4746TIP3    H114195   4.992   5.179   4.133
 4746TIP3    H214196   4.992   5.063   4.036
 4747TIP3   OH214197   3.256   1.811   5.763
 4747TIP3    H114198   3.237   1.848   5.849
 4747TIP3    H214199   3.350   1.824   5.751
 4748TIP3   OH214200   6.693   2.500   5.916
 4748TIP3    H114201   6.695   2.589   5.950
 4748TIP3    H214202   6.608   2.465   5.944
 4749TIP3   OH214203   2.081   2.324   6.063
 4749TIP3    H114204   1.996   2.337   6.105
 4749TIP3    H214205   2.129   2.405   6.080
 4750TIP3   OH214206   5.341   4.025   3.849
 4750TIP3    H114207   5.335   3.990   3.938
 4750TIP3    H214208   5.390   3.958   3.801
 4751TIP3   OH214209   6.120   3.811   3.989
 4751TIP3    H114210   6.035   3.852   3.973
 4751TIP3    H214211   6.167   3.872   4.045
 4752TIP3   OH214212   4.045   1.274   1.046
 4752TIP3    H114213   4.020   1.356   1.003
 4752TIP3    H214214   4.141   1.275   1.044
 4753TIP3   OH214215   2.362   7.527   2.743
 4753TIP3    H114216   2.339   7.510   2.652
 4753TIP3    H214217   2.300   7.595   2.771
 4754TIP3   OH214218   4.126   7.006   0.592
 4754TIP3    H114219   4.170   6.965   0.517
 4754TIP3    H214220   4.076   7.078   0.554
 4755TIP3   OH214221   3.897   1.618   3.255
 4755TIP3    H114222   3.953   1.693   3.236
 4755TIP3    H214223   3.914   1.557   3.183
 4756TIP3   OH214224   4.177   2.752   2.986
 4756TIP3    H114225   4.138   2.718   2.906
 4756TIP3    H214226   4.223   2.678   3.025
 4757TIP3   OH214227   7.349   4.093   1.733
 4757TIP3    H114228   7.320   4.175   1.774
 4757TIP3    H214229   7.444   4.093   1.744
 4758TIP3   OH214230   3.518   1.318   2.265
 4758TIP3    H114231   3.466   1.265   2.326
 4758TIP3    H214232   3.591   1.350   2.317
 4759TIP3   OH214233   6.416   3.334   5.929
 4759TIP3    H114234   6.407   3.309   5.837
 4759TIP3    H214235   6.329   3.319   5.966
 4760TIP3   OH214236   1.660   6.370   1.952
 4760TIP3    H114237   1.732   6.357   1.890
 4760TIP3    H214238   1.645   6.283   1.990
 4761TIP3   OH214239   6.732   4.030   0.749
 4761TIP3    H114240   6.736   3.935   0.752
 4761TIP3    H214241   6.652   4.050   0.702
 4762TIP3   OH214242   2.843   5.607   4.415
 4762TIP3    H114243   2.824   5.646   4.500
 4762TIP3    H214244   2.768   5.630   4.360
 4763TIP3   OH214245   5.735   0.936   1.314
 4763TIP3    H114246   5.740   0.987   1.395
 4763TIP3    H214247   5.641   0.932   1.294
 4764TIP3   OH214248   4.456   1.013   4.392
 4764TIP3    H114249   4.363   1.033   4.384
 4764TIP3    H214250   4.485   1.061   4.469
 4765TIP3   OH214251   2.322   3.898   3.497
 4765TIP3    H114252   2.356   3.893   3.587
 4765TIP3    H214253   2.240   3.849   3.500
 4766TIP3   OH214254   5.342   4.317   6.355
 4766TIP3    H114255   5.403   4.389   6.335
 4766TIP3    H214256   5.349   4.259   6.279
 4767TIP3   OH214257   5.167   5.792   6.709
 4767TIP3    H114258   5.215   5.723   6.663
 4767TIP3    H214259   5.121   5.747   6.780
 4768TIP3   OH214260   0.104   4.915   6.158
 4768TIP3    H114261   0.125   4.986   6.097
 4768TIP3    H214262   0.038   4.863   6.112
 4769TIP3   OH214263   5.052   7.080   0.416
 4769TIP3    H114264   4.961   7.069   0.388
 4769TIP3    H214265   5.057   7.033   0.499
 4770TIP3   OH214266   5.279   1.728   0.653
 4770TIP3    H114267   5.260   1.705   0.562
 4770TIP3    H214268   5.351   1.791   0.647
 4771TIP3   OH214269   4.119   4.189   1.348
 4771TIP3    H114270   4.199   4.139   1.334
 4771TIP3    H214271   4.114   4.249   1.274
 4772TIP3   OH214272   7.509   5.557   5.224
 4772TIP3    H114273   7.463   5.516   5.151
 4772TIP3    H214274   7.561   5.487   5.263
 4773TIP3   OH214275   3.929   5.794   1.516
 4773TIP3    H114276   3.905   5.838   1.435
 4773TIP3    H214277   3.903   5.703   1.502
 4774TIP3   OH214278   4.503   4.989   2.301
 4774TIP3    H114279   4.425   5.006   2.353
 4774TIP3    H214280   4.479   5.018   2.212
 4775TIP3   OH214281   3.137   6.750   4.616
 4775TIP3    H114282   3.078   6.678   4.639
 4775TIP3    H214283   3.224   6.710   4.612
 4776TIP3   OH214284   7.448   2.797   6.242
 4776TIP3    H114285   7.361   2.777   6.208
 4776TIP3    H214286   7.451   2.892   6.247
 4777TIP3   OH214287   3.176   7.212   1.763
 4777TIP3    H114288   3.227   7.134   1.739
 4777TIP3    H214289   3.207   7.280   1.704
 4778TIP3   OH214290   5.109   7.560   6.437
 4778TIP3    H114291   5.082   7.652   6.436
 4778TIP3    H214292   5.057   7.521   6.508
 4779TIP3   OH214293   3.588   3.520   6.546
 4779TIP3    H114294   3.548   3.601   6.578
 4779TIP3    H214295   3.669   3.548   6.503
 4780TIP3   OH214296   1.907   3.325   1.508
 4780TIP3    H114297   1.992   3.310   1.549
 4780TIP3    H214298   1.854   3.251   1.536
 4781TIP3   OH214299   5.643   3.518   5.344
 4781TIP3    H114300   5.697   3.441   5.329
 4781TIP3    H214301   5.611   3.508   5.434
 4782TIP3   OH214302   3.004   5.753   6.241
 4782TIP3    H114303   3.098   5.768   6.225
 4782TIP3    H214304   2.963   5.765   6.156
 4783TIP3   OH214305   7.917   2.779   2.192
 4783TIP3    H114306   7.998   2.831   2.187
 4783TIP3    H214307   7.944   2.691   2.164
 4784TIP3   OH214308   1.041   3.914   3.135
 4784TIP3    H114309   0.971   3.898   3.199
 4784TIP3    H214310   1.082   3.828   3.124
 4785TIP3   OH214311   1.375   6.860   4.120
 4785TIP3    H114312   1.307   6.845   4.054
 4785TIP3    H214313   1.332   6.843   4.203
 4786TIP3   OH214314   6.533   0.966   1.239
 4786TIP3    H114315   6.520   0.872   1.251
 4786TIP3    H214316   6.472   1.006   1.300
 4787TIP3   OH214317   4.003   5.855   3.962
 4787TIP3    H114318   4.024   5.931   3.908
 4787TIP3    H214319   3.958   5.795   3.902
 4788TIP3   OH214320   3.203   3.400   0.493
 4788TIP3    H114321   3.217   3.310   0.522
 4788TIP3    H214322   3.275   3.449   0.533
 4789TIP3   OH214323   7.108   6.388   2.088
 4789TIP3    H114324   7.100   6.361   2.180
 4789TIP3    H214325   7.049   6.329   2.041
 4790TIP3   OH214326   2.524   3.412   1.449
 4790TIP3    H114327   2.455   3.431   1.386
 4790TIP3    H214328   2.532   3.493   1.500
 4791TIP3   OH214329   7.358   0.108   2.432
 4791TIP3    H114330   7.395   0.187   2.394
 4791TIP3    H214331   7.264   0.116   2.417
 4792TIP3   OH214332   7.025   3.703   6.068
 4792TIP3    H114333   6.960   3.646   6.110
 4792TIP3    H214334   6.997   3.709   5.977
 4793TIP3   OH214335   0.527   6.652   6.483
 4793TIP3    H114336   0.435   6.661   6.508
 4793TIP3    H214337   0.569   6.610   6.559
 4794TIP3   OH214338   4.086   0.208   0.590
 4794TIP3    H114339   4.072   0.190   0.683
 4794TIP3    H214340   4.169   0.256   0.587
 4795TIP3   OH214341   1.864   4.919   0.350
 4795TIP3    H114342   1.865   5.007   0.312
 4795TIP3    H214343   1.822   4.864   0.285
 4796TIP3   OH214344   0.298   3.712   3.657
 4796TIP3    H114345   0.233   3.653   3.618
 4796TIP3    H214346   0.275   3.716   3.749
 4797TIP3   OH214347   5.846   7.011   3.866
 4797TIP3    H114348   5.838   7.040   3.957
 4797TIP3    H214349   5.901   6.933   3.870
 4798TIP3   OH214350   1.734   2.284   2.290
 4798TIP3    H114351   1.655   2.233   2.306
 4798TIP3    H214352   1.725   2.360   2.347
 4799TIP3   OH214353   6.192   4.425   6.408
 4799TIP3    H114354   6.232   4.447   6.491
 4799TIP3    H214355   6.105   4.393   6.431
 4800TIP3   OH214356   1.092   0.832   2.080
 4800TIP3    H114357   1.022   0.896   2.082
 4800TIP3    H214358   1.143   0.849   2.160
 4801TIP3   OH214359   4.425   6.534   0.731
 4801TIP3    H114360   4.472   6.461   0.692
 4801TIP3    H214361   4.358   6.494   0.786
 4802TIP3   OH214362   3.818   3.345   3.677
 4802TIP3    H114363   3.820   3.301   3.762
 4802TIP3    H214364   3.910   3.356   3.654
 4803TIP3   OH214365   5.872   7.641   6.717
 4803TIP3    H114366   5.777   7.634   6.706
 4803TIP3    H214367   5.885   7.652   6.811
 4804TIP3   OH214368   4.259   5.509   2.620
 4804TIP3    H114369   4.228   5.464   2.541
 4804TIP3    H214370   4.196   5.579   2.634
 4805TIP3   OH214371   7.339   6.096   6.780
 4805TIP3    H114372   7.394   6.172   6.761
 4805TIP3    H214373   7.260   6.109   6.728
 4806TIP3   OH214374   0.283   4.804   4.816
 4806TIP3    H114375   0.332   4.883   4.793
 4806TIP3    H214376   0.224   4.790   4.741
 4807TIP3   OH214377   5.140   1.592   3.421
 4807TIP3    H114378   5.103   1.584   3.333
 4807TIP3    H214379   5.099   1.671   3.457
 4808TIP3   OH214380   2.901   7.115   3.510
 4808TIP3    H114381   2.897   7.205   3.543
 4808TIP3    H214382   2.993   7.090   3.521
 4809TIP3   OH214383   6.434   6.014   0.318
 4809TIP3    H114384   6.488   5.984   0.391
 4809TIP3    H214385   6.458   5.958   0.245
 4810TIP3   OH214386   4.014   7.272   0.181
 4810TIP3    H114387   4.110   7.279   0.183
 4810TIP3    H214388   3.996   7.205   0.115
 4811TIP3   OH214389   1.670   6.535   5.976
 4811TIP3    H114390   1.754   6.490   5.980
 4811TIP3    H214391   1.612   6.484   6.033
 4812TIP3   OH214392   5.000   1.774   3.586
 4812TIP3    H114393   5.050   1.805   3.661
 4812TIP3    H214394   4.913   1.814   3.596
 4813TIP3   OH214395   7.318   6.908   0.924
 4813TIP3    H114396   7.353   6.968   0.859
 4813TIP3    H214397   7.336   6.821   0.889
 4814TIP3   OH214398   6.295   6.560   3.625
 4814TIP3    H114399   6.358   6.590   3.560
 4814TIP3    H214400   6.309   6.465   3.631
 4815TIP3   OH214401   1.852   6.265   0.149
 4815TIP3    H114402   1.849   6.267   0.054
 4815TIP3    H214403   1.800   6.188   0.173
 4816TIP3   OH214404   1.838   0.951   0.174
 4816TIP3    H114405   1.798   0.870   0.142
 4816TIP3    H214406   1.769   0.993   0.226
 4817TIP3   OH214407   1.105   0.878   0.348
 4817TIP3    H114408   1.120   0.955   0.403
 4817TIP3    H214409   1.052   0.911   0.275
 4818TIP3   OH214410   0.582   1.721   2.011
 4818TIP3    H114411   0.553   1.635   2.041
 4818TIP3    H214412   0.657   1.704   1.955
 4819TIP3   OH214413   3.230   1.155   0.657
 4819TIP3    H114414   3.279   1.078   0.629
 4819TIP3    H214415   3.290   1.228   0.644
 4820TIP3   OH214416   6.227   6.797   1.063
 4820TIP3    H114417   6.251   6.828   1.150
 4820TIP3    H214418   6.132   6.806   1.059
 4821TIP3   OH214419   6.536   5.068   3.299
 4821TIP3    H114420   6.462   5.127   3.289
 4821TIP3    H214421   6.557   5.041   3.209
 4822TIP3   OH214422   5.093   2.613   0.998
 4822TIP3    H114423   5.163   2.665   1.036
 4822TIP3    H214424   5.013   2.646   1.038
 4823TIP3   OH214425   5.960   1.499   5.053
 4823TIP3    H114426   5.928   1.483   4.964
 4823TIP3    H214427   5.891   1.552   5.094
 4824TIP3   OH214428   1.754   6.204   0.938
 4824TIP3    H114429   1.702   6.147   0.995
 4824TIP3    H214430   1.694   6.229   0.868
 4825TIP3   OH214431   2.430   4.945   1.784
 4825TIP3    H114432   2.414   5.024   1.732
 4825TIP3    H214433   2.523   4.950   1.806
 4826TIP3   OH214434   5.559   7.107   3.785
 4826TIP3    H114435   5.511   7.078   3.863
 4826TIP3    H214436   5.642   7.061   3.790
 4827TIP3   OH214437   3.676   7.180   2.070
 4827TIP3    H114438   3.695   7.086   2.068
 4827TIP3    H214439   3.742   7.216   2.129
 4828TIP3   OH214440   0.304   1.908   4.745
 4828TIP3    H114441   0.305   1.999   4.776
 4828TIP3    H214442   0.391   1.874   4.765
 4829TIP3   OH214443   5.710   3.424   4.360
 4829TIP3    H114444   5.692   3.518   4.352
 4829TIP3    H214445   5.716   3.410   4.455
 4830TIP3   OH214446   7.135   7.762   3.616
 4830TIP3    H114447   7.074   7.781   3.545
 4830TIP3    H214448   7.204   7.827   3.606
 4831TIP3   OH214449   5.530   0.806   4.376
 4831TIP3    H114450   5.494   0.720   4.353
 4831TIP3    H214451   5.542   0.802   4.471
 4832TIP3   OH214452   4.868   3.184   5.883
 4832TIP3    H114453   4.895   3.111   5.826
 4832TIP3    H214454   4.775   3.170   5.896
 4833TIP3   OH214455   2.162   1.751   0.609
 4833TIP3    H114456   2.249   1.772   0.576
 4833TIP3    H214457   2.149   1.659   0.585
 4834TIP3   OH214458   6.528   7.556   2.602
 4834TIP3    H114459   6.467   7.627   2.583
 4834TIP3    H214460   6.573   7.540   2.518
 4835TIP3   OH214461   2.971   6.852   4.963
 4835TIP3    H114462   2.917   6.930   4.957
 4835TIP3    H214463   3.059   6.885   4.981
 4836TIP3   OH214464   6.445   0.086   0.451
 4836TIP3    H114465   6.459   0.063   0.543
 4836TIP3    H214466   6.368   0.143   0.451
 4837TIP3   OH214467   6.188   4.914   6.756
 4837TIP3    H114468   6.212   4.916   6.849
 4837TIP3    H214469   6.269   4.935   6.710
 4838TIP3   OH214470   5.927   2.254   4.397
 4838TIP3    H114471   5.959   2.334   4.438
 4838TIP3    H214472   6.007   2.204   4.378
 4839TIP3   OH214473   5.067   6.332   2.870
 4839TIP3    H114474   5.033   6.421   2.875
 4839TIP3    H214475   4.991   6.276   2.888
 4840TIP3   OH214476   5.316   0.471   3.439
 4840TIP3    H114477   5.338   0.474   3.346
 4840TIP3    H214478   5.272   0.554   3.456
 4841TIP3   OH214479   2.712   7.429   3.333
 4841TIP3    H114480   2.807   7.439   3.333
 4841TIP3    H214481   2.697   7.339   3.304
 4842TIP3   OH214482   2.778   4.149   2.538
 4842TIP3    H114483   2.708   4.213   2.551
 4842TIP3    H214484   2.780   4.134   2.443
 4843TIP3   OH214485   5.720   6.626   5.229
 4843TIP3    H114486   5.664   6.606   5.154
 4843TIP3    H214487   5.773   6.548   5.240
 4844TIP3   OH214488   4.702   1.152   4.622
 4844TIP3    H114489   4.708   1.180   4.713
 4844TIP3    H214490   4.750   1.219   4.573
 4845TIP3   OH214491   2.715   4.612   1.408
 4845TIP3    H114492   2.767   4.683   1.446
 4845TIP3    H214493   2.772   4.535   1.413
 4846TIP3   OH214494   6.902   4.153   3.736
 4846TIP3    H114495   6.846   4.143   3.813
 4846TIP3    H214496   6.907   4.065   3.699
 4847TIP3   OH214497   8.035   0.199   2.976
 4847TIP3    H114498   8.033   0.104   2.968
 4847TIP3    H214499   7.970   0.220   3.043
 4848TIP3   OH214500   7.897   6.889   6.604
 4848TIP3    H114501   7.968   6.855   6.550
 4848TIP3    H214502   7.903   6.840   6.686
 4849TIP3   OH214503   6.868   4.375   2.536
 4849TIP3    H114504   6.919   4.394   2.615
 4849TIP3    H214505   6.906   4.295   2.501
 4850TIP3   OH214506   0.439   6.369   5.557
 4850TIP3    H114507   0.380   6.349   5.485
 4850TIP3    H214508   0.411   6.455   5.588
 4851TIP3   OH214509   1.088   2.643   5.009
 4851TIP3    H114510   1.022   2.708   4.985
 4851TIP3    H214511   1.039   2.575   5.056
 4852TIP3   OH214512   1.848   1.390   4.322
 4852TIP3    H114513   1.917   1.438   4.276
 4852TIP3    H214514   1.859   1.414   4.414
 4853TIP3   OH214515   3.701   6.371   6.417
 4853TIP3    H114516   3.796   6.358   6.417
 4853TIP3    H214517   3.686   6.438   6.350
 4854TIP3   OH214518   5.508   7.662   2.882
 4854TIP3    H114519   5.461   7.711   2.815
 4854TIP3    H214520   5.451   7.587   2.901
 4855TIP3   OH214521   3.622   7.414   2.403
 4855TIP3    H114522   3.664   7.329   2.408
 4855TIP3    H214523   3.684   7.474   2.445
 4856TIP3   OH214524   8.090   7.822   2.474
 4856TIP3    H114525   8.080   7.824   2.569
 4856TIP3    H214526   8.026   7.757   2.445
 4857TIP3   OH214527   6.204   3.797   4.686
 4857TIP3    H114528   6.224   3.852   4.762
 4857TIP3    H214529   6.139   3.847   4.637
 4858TIP3   OH214530   3.873   0.491   0.220
 4858TIP3    H114531   3.913   0.467   0.304
 4858TIP3    H214532   3.930   0.452   0.154
 4859TIP3   OH214533   3.756   2.388   1.778
 4859TIP3    H114534   3.681   2.447   1.781
 4859TIP3    H214535   3.718   2.301   1.766
 4860TIP3   OH214536   3.988   3.748   2.735
 4860TIP3    H114537   4.016   3.731   2.825
 4860TIP3    H214538   4.063   3.723   2.681
 4861TIP3   OH214539   4.623   0.121   0.066
 4861TIP3    H114540   4.600   0.134   0.158
 4861TIP3    H214541   4.561   0.056   0.034
 4862TIP3   OH214542   1.398   2.316   5.282
 4862TIP3    H114543   1.464   2.375   5.246
 4862TIP3    H214544   1.411   2.235   5.233
 4863TIP3   OH214545   5.095   0.523   3.895
 4863TIP3    H114546   5.101   0.604   3.845
 4863TIP3    H214547   5.176   0.522   3.947
 4864TIP3   OH214548   5.061   3.985   2.257
 4864TIP3    H114549   5.106   4.031   2.186
 4864TIP3    H214550   5.069   3.893   2.234
 4865TIP3   OH214551   1.709   2.773   5.293
 4865TIP3    H114552   1.665   2.847   5.336
 4865TIP3    H214553   1.673   2.772   5.204
 4866TIP3   OH214554   2.616   1.631   6.532
 4866TIP3    H114555   2.645   1.609   6.443
 4866TIP3    H214556   2.610   1.726   6.532
 4867TIP3   OH214557   2.452   0.511   6.711
 4867TIP3    H114558   2.437   0.606   6.720
 4867TIP3    H214559   2.547   0.503   6.705
 4868TIP3   OH214560   3.829   4.591   4.734
 4868TIP3    H114561   3.866   4.676   4.757
 4868TIP3    H214562   3.848   4.535   4.809
 4869TIP3   OH214563   1.516   2.589   3.922
 4869TIP3    H114564   1.503   2.646   3.998
 4869TIP3    H214565   1.448   2.522   3.930
 4870TIP3   OH214566   6.267   0.208   4.621
 4870TIP3    H114567   6.310   0.284   4.582
 4870TIP3    H214568   6.178   0.210   4.586
 4871TIP3   OH214569   4.132   3.826   0.762
 4871TIP3    H114570   4.064   3.759   0.760
 4871TIP3    H214571   4.120   3.875   0.681
 4872TIP3   OH214572   6.954   7.611   0.666
 4872TIP3    H114573   6.896   7.687   0.660
 4872TIP3    H214574   7.023   7.628   0.602
 4873TIP3   OH214575   3.114   6.632   2.437
 4873TIP3    H114576   3.188   6.573   2.422
 4873TIP3    H214577   3.080   6.649   2.349
 4874TIP3   OH214578   7.147   1.893   6.081
 4874TIP3    H114579   7.114   1.878   6.170
 4874TIP3    H214580   7.070   1.923   6.033
 4875TIP3   OH214581   2.513   5.386   4.034
 4875TIP3    H114582   2.423   5.412   4.054
 4875TIP3    H214583   2.517   5.388   3.938
 4876TIP3   OH214584   6.091   4.947   3.222
 4876TIP3    H114585   6.147   4.886   3.271
 4876TIP3    H214586   6.098   4.917   3.131
 4877TIP3   OH214587   5.410   4.127   3.114
 4877TIP3    H114588   5.357   4.097   3.040
 4877TIP3    H214589   5.410   4.054   3.176
 4878TIP3   OH214590   7.171   1.679   1.182
 4878TIP3    H114591   7.199   1.604   1.130
 4878TIP3    H214592   7.087   1.705   1.143
 4879TIP3   OH214593   7.850   4.837   1.082
 4879TIP3    H114594   7.771   4.891   1.087
 4879TIP3    H214595   7.817   4.748   1.071
 4880TIP3   OH214596   1.895   0.405   6.114
 4880TIP3    H114597   1.815   0.405   6.061
 4880TIP3    H214598   1.865   0.427   6.202
 4881TIP3   OH214599   4.092   1.503   6.179
 4881TIP3    H114600   4.063   1.447   6.107
 4881TIP3    H214601   4.179   1.533   6.153
 4882TIP3   OH214602   5.191   7.210   0.709
 4882TIP3    H114603   5.268   7.212   0.653
 4882TIP3    H214604   5.158   7.300   0.707
 4883TIP3   OH214605   5.816   3.373   0.320
 4883TIP3    H114606   5.776   3.426   0.251
 4883TIP3    H214607   5.743   3.327   0.360
 4884TIP3   OH214608   6.609   4.533   4.883
 4884TIP3    H114609   6.551   4.554   4.810
 4884TIP3    H214610   6.664   4.461   4.852
 4885TIP3   OH214611   0.735   4.597   0.290
 4885TIP3    H114612   0.737   4.577   0.384
 4885TIP3    H214613   0.691   4.522   0.250
 4886TIP3   OH214614   5.328   5.666   2.959
 4886TIP3    H114615   5.304   5.604   2.890
 4886TIP3    H214616   5.335   5.751   2.915
 4887TIP3   OH214617   3.019   7.772   1.157
 4887TIP3    H114618   2.924   7.773   1.155
 4887TIP3    H214619   3.041   7.705   1.222
 4888TIP3   OH214620   0.104   1.395   2.311
 4888TIP3    H114621   0.024   1.350   2.338
 4888TIP3    H214622   0.110   1.378   2.217
 4889TIP3   OH214623   4.860   1.324   2.941
 4889TIP3    H114624   4.841   1.342   3.033
 4889TIP3    H214625   4.861   1.229   2.935
 4890TIP3   OH214626   3.904   0.578   2.094
 4890TIP3    H114627   3.867   0.492   2.074
 4890TIP3    H214628   3.998   0.567   2.083
 4891TIP3   OH214629   6.412   2.754   5.740
 4891TIP3    H114630   6.430   2.661   5.747
 4891TIP3    H214631   6.498   2.795   5.743
 4892TIP3   OH214632   2.986   6.474   2.900
 4892TIP3    H114633   3.069   6.495   2.942
 4892TIP3    H214634   2.979   6.534   2.827
 4893TIP3   OH214635   7.686   6.814   2.327
 4893TIP3    H114636   7.608   6.859   2.293
 4893TIP3    H214637   7.748   6.885   2.345
 4894TIP3   OH214638   2.543   4.421   1.478
 4894TIP3    H114639   2.542   4.453   1.568
 4894TIP3    H214640   2.582   4.492   1.427
 4895TIP3   OH214641   4.518   7.330   5.988
 4895TIP3    H114642   4.567   7.288   5.917
 4895TIP3    H214643   4.580   7.392   6.027
 4896TIP3   OH214644   0.726   5.862   2.609
 4896TIP3    H114645   0.740   5.949   2.646
 4896TIP3    H214646   0.648   5.829   2.655
 4897TIP3   OH214647   8.127   5.529   0.580
 4897TIP3    H114648   8.032   5.515   0.572
 4897TIP3    H214649   8.162   5.444   0.607
 4898TIP3   OH214650   4.434   1.113   0.774
 4898TIP3    H114651   4.373   1.078   0.709
 4898TIP3    H214652   4.388   1.189   0.811
 4899TIP3   OH214653   6.698   0.913   3.550
 4899TIP3    H114654   6.637   0.907   3.476
 4899TIP3    H214655   6.708   1.006   3.565
 4900TIP3   OH214656   7.371   4.257   1.243
 4900TIP3    H114657   7.340   4.234   1.330
 4900TIP3    H214658   7.467   4.260   1.252
 4901TIP3   OH214659   2.691   2.441   1.513
 4901TIP3    H114660   2.738   2.364   1.482
 4901TIP3    H214661   2.726   2.457   1.601
 4902TIP3   OH214662   1.257   6.813   0.749
 4902TIP3    H114663   1.216   6.770   0.824
 4902TIP3    H214664   1.297   6.891   0.786
 4903TIP3   OH214665   6.374   6.263   1.563
 4903TIP3    H114666   6.428   6.303   1.631
 4903TIP3    H214667   6.417   6.287   1.481
 4904TIP3   OH214668   2.686   5.397   3.794
 4904TIP3    H114669   2.758   5.387   3.731
 4904TIP3    H214670   2.615   5.344   3.757
 4905TIP3   OH214671   6.761   4.740   2.448
 4905TIP3    H114672   6.852   4.756   2.474
 4905TIP3    H214673   6.710   4.772   2.522
 4906TIP3   OH214674   3.709   3.965   0.348
 4906TIP3    H114675   3.736   3.906   0.278
 4906TIP3    H214676   3.756   3.934   0.425
 4907TIP3   OH214677   4.999   2.684   2.662
 4907TIP3    H114678   5.057   2.655   2.592
 4907TIP3    H214679   5.059   2.707   2.734
 4908TIP3   OH214680   4.693   7.460   3.256
 4908TIP3    H114681   4.655   7.451   3.343
 4908TIP3    H214682   4.648   7.535   3.217
 4909TIP3   OH214683   6.229   5.754   0.160
 4909TIP3    H114684   6.270   5.719   0.239
 4909TIP3    H214685   6.185   5.678   0.121
 4910TIP3   OH214686   1.631   3.832   3.177
 4910TIP3    H114687   1.627   3.849   3.272
 4910TIP3    H214688   1.606   3.915   3.137
 4911TIP3   OH214689   1.693   4.341   3.817
 4911TIP3    H114690   1.631   4.414   3.812
 4911TIP3    H214691   1.751   4.354   3.742
 4912TIP3   OH214692   7.412   1.403   2.386
 4912TIP3    H114693   7.402   1.386   2.480
 4912TIP3    H214694   7.481   1.469   2.381
 4913TIP3   OH214695   3.172   6.198   4.975
 4913TIP3    H114696   3.247   6.169   4.923
 4913TIP3    H214697   3.096   6.157   4.933
 4914TIP3   OH214698   7.467   3.940   2.678
 4914TIP3    H114699   7.488   3.922   2.587
 4914TIP3    H214700   7.552   3.937   2.723
 4915TIP3   OH214701   7.092   0.596   2.941
 4915TIP3    H114702   7.171   0.557   2.904
 4915TIP3    H214703   7.031   0.523   2.952
 4916TIP3   OH214704   4.270   5.205   2.269
 4916TIP3    H114705   4.262   5.143   2.197
 4916TIP3    H214706   4.200   5.180   2.330
 4917TIP3   OH214707   5.290   6.327   5.187
 4917TIP3    H114708   5.259   6.417   5.200
 4917TIP3    H214709   5.245   6.276   5.254
 4918TIP3   OH214710   6.625   6.755   1.169
 4918TIP3    H114711   6.718   6.779   1.167
 4918TIP3    H214712   6.579   6.837   1.153
 4919TIP3   OH214713   5.285   7.502   5.949
 4919TIP3    H114714   5.298   7.409   5.931
 4919TIP3    H214715   5.251   7.504   6.039
 4920TIP3   OH214716   3.392   0.840   0.596
 4920TIP3    H114717   3.344   0.773   0.549
 4920TIP3    H214718   3.465   0.863   0.539
 4921TIP3   OH214719   3.921   1.711   4.989
 4921TIP3    H114720   3.946   1.618   4.990
 4921TIP3    H214721   3.841   1.715   5.040
 4922TIP3   OH214722   7.694   4.293   5.580
 4922TIP3    H114723   7.619   4.237   5.604
 4922TIP3    H214724   7.655   4.379   5.563
 4923TIP3   OH214725   3.234   1.867   6.088
 4923TIP3    H114726   3.324   1.857   6.119
 4923TIP3    H214727   3.198   1.778   6.090
 4924TIP3   OH214728   0.402   6.650   5.315
 4924TIP3    H114729   0.445   6.567   5.295
 4924TIP3    H214730   0.412   6.702   5.236
 4925TIP3   OH214731   4.137   4.376   2.297
 4925TIP3    H114732   4.046   4.351   2.282
 4925TIP3    H214733   4.134   4.470   2.315
 4926TIP3   OH214734   4.359   7.562  -0.011
 4926TIP3    H114735   4.271   7.526  -0.018
 4926TIP3    H214736   4.408   7.494   0.036
 4927TIP3   OH214737   7.971   0.078   5.330
 4927TIP3    H114738   8.001  -0.013   5.330
 4927TIP3    H214739   7.876   0.072   5.320
 4928TIP3   OH214740   0.098   5.010   3.193
 4928TIP3    H114741   0.061   5.022   3.105
 4928TIP3    H214742   0.175   5.068   3.195
 4929TIP3   OH214743   6.896   6.452   5.854
 4929TIP3    H114744   6.847   6.408   5.785
 4929TIP3    H214745   6.851   6.536   5.867
 4930TIP3   OH214746   5.195   5.874   4.551
 4930TIP3    H114747   5.118   5.825   4.523
 4930TIP3    H214748   5.223   5.831   4.632
 4931TIP3   OH214749   1.455   2.612   6.227
 4931TIP3    H114750   1.519   2.677   6.198
 4931TIP3    H214751   1.371   2.657   6.221
 4932TIP3   OH214752   0.572   6.254   3.131
 4932TIP3    H114753   0.541   6.334   3.173
 4932TIP3    H214754   0.642   6.222   3.188
 4933TIP3   OH214755   5.122   5.449   3.105
 4933TIP3    H114756   5.068   5.508   3.052
 4933TIP3    H214757   5.138   5.373   3.048
 4934TIP3   OH214758   1.284   4.925   6.258
 4934TIP3    H114759   1.370   4.889   6.278
 4934TIP3    H214760   1.302   5.009   6.216
 4935TIP3   OH214761   3.602   6.596   1.754
 4935TIP3    H114762   3.514   6.623   1.780
 4935TIP3    H214763   3.610   6.625   1.663
 4936TIP3   OH214764   2.990   5.223   1.424
 4936TIP3    H114765   3.002   5.174   1.505
 4936TIP3    H214766   2.958   5.309   1.452
 4937TIP3   OH214767   4.868   1.020   4.873
 4937TIP3    H114768   4.962   1.036   4.864
 4937TIP3    H214769   4.844   0.976   4.791
 4938TIP3   OH214770   4.135   5.894   1.641
 4938TIP3    H114771   4.163   5.829   1.705
 4938TIP3    H214772   4.050   5.862   1.609
 4939TIP3   OH214773   3.467   7.427   6.157
 4939TIP3    H114774   3.377   7.442   6.185
 4939TIP3    H214775   3.462   7.350   6.101
 4940TIP3   OH214776   1.228   6.894   1.134
 4940TIP3    H114777   1.217   6.981   1.096
 4940TIP3    H214778   1.263   6.910   1.222
 4941TIP3   OH214779   5.981   6.967   6.384
 4941TIP3    H114780   5.992   7.063   6.388
 4941TIP3    H214781   5.916   6.948   6.452
 4942TIP3   OH214782   1.750   2.310   5.548
 4942TIP3    H114783   1.735   2.243   5.615
 4942TIP3    H214784   1.756   2.392   5.598
 4943TIP3   OH214785   5.123   3.427   3.686
 4943TIP3    H114786   5.197   3.466   3.732
 4943TIP3    H214787   5.128   3.334   3.707
 4944TIP3   OH214788   3.749   5.560   0.505
 4944TIP3    H114789   3.691   5.636   0.501
 4944TIP3    H214790   3.699   5.489   0.465
 4945TIP3   OH214791   1.481   6.776   5.319
 4945TIP3    H114792   1.407   6.738   5.366
 4945TIP3    H214793   1.448   6.787   5.229
 4946TIP3   OH214794   8.010   6.348   5.067
 4946TIP3    H114795   7.969   6.369   5.151
 4946TIP3    H214796   7.953   6.281   5.029
 4947TIP3   OH214797   4.740   2.268   1.601
 4947TIP3    H114798   4.784   2.347   1.632
 4947TIP3    H214799   4.709   2.225   1.680
 4948TIP3   OH214800   6.551   0.515   1.530
 4948TIP3    H114801   6.542   0.600   1.574
 4948TIP3    H214802   6.464   0.475   1.537
 4949TIP3   OH214803   0.527   2.676   6.229
 4949TIP3    H114804   0.434   2.673   6.251
 4949TIP3    H214805   0.539   2.606   6.165
 4950TIP3   OH214806   6.006   4.458   2.771
 4950TIP3    H114807   5.960   4.533   2.733
 4950TIP3    H214808   5.937   4.395   2.791
 4951TIP3   OH214809   5.021   1.180   4.131
 4951TIP3    H114810   5.036   1.131   4.050
 4951TIP3    H214811   4.976   1.118   4.189
 4952TIP3   OH214812   3.663   7.647   0.868
 4952TIP3    H114813   3.674   7.681   0.957
 4952TIP3    H214814   3.711   7.708   0.813
 4953TIP3   OH214815   6.401   1.555   2.656
 4953TIP3    H114816   6.326   1.594   2.611
 4953TIP3    H214817   6.420   1.615   2.728
 4954TIP3   OH214818   5.471   3.747   4.835
 4954TIP3    H114819   5.516   3.743   4.751
 4954TIP3    H214820   5.378   3.754   4.813
 4955TIP3   OH214821   3.947   0.721   3.441
 4955TIP3    H114822   3.897   0.774   3.379
 4955TIP3    H214823   3.899   0.638   3.444
 4956TIP3   OH214824   5.658   5.837   0.241
 4956TIP3    H114825   5.695   5.760   0.198
 4956TIP3    H214826   5.680   5.825   0.333
 4957TIP3   OH214827   4.083   6.114   3.561
 4957TIP3    H114828   4.040   6.041   3.517
 4957TIP3    H214829   4.086   6.088   3.653
 4958TIP3   OH214830   7.359   6.087   0.365
 4958TIP3    H114831   7.443   6.079   0.318
 4958TIP3    H214832   7.338   6.180   0.361
 4959TIP3   OH214833   1.312   6.516   0.053
 4959TIP3    H114834   1.358   6.453  -0.002
 4959TIP3    H214835   1.309   6.476   0.140
 4960TIP3   OH214836   2.106   7.020   5.387
 4960TIP3    H114837   2.121   6.954   5.320
 4960TIP3    H214838   2.058   6.974   5.456
 4961TIP3   OH214839   0.909   0.223   6.639
 4961TIP3    H114840   0.947   0.138   6.616
 4961TIP3    H214841   0.955   0.285   6.582
 4962TIP3   OH214842   5.667   4.823   6.482
 4962TIP3    H114843   5.719   4.896   6.516
 4962TIP3    H214844   5.698   4.747   6.532
 4963TIP3   OH214845   7.281   6.905   0.002
 4963TIP3    H114846   7.313   6.862   0.082
 4963TIP3    H214847   7.187   6.890   0.004
 4964TIP3   OH214848   0.871   0.726   6.220
 4964TIP3    H114849   0.960   0.733   6.254
 4964TIP3    H214850   0.815   0.750   6.294
 4965TIP3   OH214851   3.159   6.846   0.530
 4965TIP3    H114852   3.110   6.796   0.464
 4965TIP3    H214853   3.158   6.936   0.497
 4966TIP3   OH214854   4.397   2.975   1.983
 4966TIP3    H114855   4.453   2.994   2.058
 4966TIP3    H214856   4.309   3.002   2.011
 4967TIP3   OH214857   4.439   6.660   1.736
 4967TIP3    H114858   4.417   6.636   1.827
 4967TIP3    H214859   4.355   6.663   1.691
 4968TIP3   OH214860   1.948   7.892   0.733
 4968TIP3    H114861   1.873   7.867   0.787
 4968TIP3    H214862   1.945   7.830   0.660
 4969TIP3   OH214863   7.001   0.213   3.238
 4969TIP3    H114864   7.057   0.229   3.314
 4969TIP3    H214865   7.017   0.121   3.216
 4970TIP3   OH214866   4.374   2.371   3.556
 4970TIP3    H114867   4.316   2.321   3.499
 4970TIP3    H214868   4.462   2.337   3.536
 4971TIP3   OH214869   6.293   5.263   5.258
 4971TIP3    H114870   6.246   5.308   5.327
 4971TIP3    H214871   6.226   5.217   5.208
 4972TIP3   OH214872   1.217   3.793   2.773
 4972TIP3    H114873   1.215   3.799   2.868
 4972TIP3    H214874   1.251   3.878   2.744
 4973TIP3   OH214875   4.276   1.389   2.826
 4973TIP3    H114876   4.239   1.393   2.914
 4973TIP3    H214877   4.224   1.323   2.780
 4974TIP3   OH214878   3.809   4.941   1.770
 4974TIP3    H114879   3.768   4.970   1.688
 4974TIP3    H214880   3.853   5.019   1.803
 4975TIP3   OH214881   4.438   3.600   2.716
 4975TIP3    H114882   4.520   3.644   2.694
 4975TIP3    H214883   4.465   3.514   2.748
 4976TIP3   OH214884   1.419   1.847   3.440
 4976TIP3    H114885   1.430   1.869   3.348
 4976TIP3    H214886   1.378   1.925   3.479
 4977TIP3   OH214887   1.352   4.803   5.733
 4977TIP3    H114888   1.317   4.799   5.644
 4977TIP3    H214889   1.445   4.825   5.721
 4978TIP3   OH214890   7.090   7.074   6.092
 4978TIP3    H114891   7.081   7.126   6.171
 4978TIP3    H214892   7.024   7.108   6.032
 4979TIP3   OH214893   6.942   5.709   5.126
 4979TIP3    H114894   6.961   5.631   5.074
 4979TIP3    H214895   6.973   5.688   5.214
 4980TIP3   OH214896   2.493   0.295   5.794
 4980TIP3    H114897   2.476   0.263   5.883
 4980TIP3    H214898   2.481   0.390   5.800
 4981TIP3   OH214899   3.477   7.478   5.561
 4981TIP3    H114900   3.480   7.382   5.552
 4981TIP3    H214901   3.528   7.510   5.487
 4982TIP3   OH214902   5.511   6.331   0.041
 4982TIP3    H114903   5.551   6.255   0.083
 4982TIP3    H214904   5.418   6.326   0.065
 4983TIP3   OH214905   5.114   4.959   1.587
 4983TIP3    H114906   5.184   4.931   1.646
 4983TIP3    H214907   5.034   4.951   1.639
 4984TIP3   OH214908   0.010   3.080   3.166
 4984TIP3    H114909   0.013   3.041   3.254
 4984TIP3    H214910   0.040   3.170   3.179
 4985TIP3   OH214911   4.569   7.870   5.091
 4985TIP3    H114912   4.515   7.890   5.014
 4985TIP3    H214913   4.509   7.823   5.149
 4986TIP3   OH214914   0.223   2.990   3.888
 4986TIP3    H114915   0.306   3.033   3.910
 4986TIP3    H214916   0.177   2.983   3.972
 4987TIP3   OH214917   6.629   0.182   1.433
 4987TIP3    H114918   6.677   0.102   1.409
 4987TIP3    H214919   6.580   0.158   1.511
 4988TIP3   OH214920   8.310   5.156   2.308
 4988TIP3    H114921   8.241   5.105   2.349
 4988TIP3    H214922   8.284   5.248   2.320
 4989TIP3   OH214923   5.812   0.202   5.367
 4989TIP3    H114924   5.759   0.130   5.401
 4989TIP3    H214925   5.896   0.162   5.344
 4990TIP3   OH214926   0.300   5.733   3.505
 4990TIP3    H114927   0.311   5.703   3.415
 4990TIP3    H214928   0.295   5.828   3.498
 4991TIP3   OH214929   6.821   4.711   5.372
 4991TIP3    H114930   6.876   4.724   5.449
 4991TIP3    H214931   6.740   4.673   5.406
 4992TIP3   OH214932   4.464   2.703   0.621
 4992TIP3    H114933   4.539   2.649   0.647
 4992TIP3    H214934   4.450   2.761   0.696
 4993TIP3   OH214935   0.521   0.548   0.472
 4993TIP3    H114936   0.457   0.588   0.530
 4993TIP3    H214937   0.534   0.460   0.507
 4994TIP3   OH214938   3.178   6.843   5.245
 4994TIP3    H114939   3.167   6.768   5.303
 4994TIP3    H214940   3.258   6.886   5.276
 4995TIP3   OH214941   5.412   1.906   2.241
 4995TIP3    H114942   5.498   1.869   2.220
 4995TIP3    H214943   5.432   1.983   2.295
 4996TIP3   OH214944  -0.006   7.636   3.546
 4996TIP3    H114945   0.084   7.632   3.513
 4996TIP3    H214946  -0.007   7.713   3.604
 4997TIP3   OH214947   1.931   5.945   2.053
 4997TIP3    H114948   1.928   6.034   2.090
 4997TIP3    H214949   2.009   5.945   1.998
 4998TIP3   OH214950   0.821   3.501   5.422
 4998TIP3    H114951   0.800   3.562   5.351
 4998TIP3    H214952   0.761   3.428   5.408
 4999TIP3   OH214953   6.341   5.769   0.818
 4999TIP3    H114954   6.371   5.815   0.739
 4999TIP3    H214955   6.403   5.697   0.829
 5000TIP3   OH214956   5.401   5.345   4.481
 5000TIP3    H114957   5.396   5.252   4.504
 5000TIP3    H214958   5.436   5.345   4.392
 5001TIP3   OH214959   5.931   0.559   3.822
 5001TIP3    H114960   5.961   0.475   3.856
 5001TIP3    H214961   5.865   0.536   3.757
 5002TIP3   OH214962   4.012   5.362   3.544
 5002TIP3    H114963   4.043   5.271   3.543
 5002TIP3    H214964   3.951   5.365   3.618
 5003TIP3   OH214965   2.384   2.678   2.930
 5003TIP3    H114966   2.401   2.589   2.962
 5003TIP3    H214967   2.407   2.735   3.003
 5004TIP3   OH214968   6.960   3.960   1.124
 5004TIP3    H114969   6.872   3.996   1.116
 5004TIP3    H214970   6.960   3.882   1.068
 5005TIP3   OH214971   2.008   4.299   5.869
 5005TIP3    H114972   1.932   4.338   5.911
 5005TIP3    H214973   2.026   4.356   5.794
 5006TIP3   OH214974   4.090   3.935   5.220
 5006TIP3    H114975   4.049   4.002   5.274
 5006TIP3    H214976   4.049   3.853   5.247
 5007TIP3   OH214977   6.749   0.570   5.914
 5007TIP3    H114978   6.667   0.589   5.869
 5007TIP3    H214979   6.764   0.477   5.897
 5008TIP3   OH214980   4.864   0.348   0.943
 5008TIP3    H114981   4.919   0.293   0.999
 5008TIP3    H214982   4.794   0.379   1.001
 5009TIP3   OH214983   5.581   2.722   1.127
 5009TIP3    H114984   5.576   2.815   1.147
 5009TIP3    H214985   5.659   2.691   1.173
 5010TIP3   OH214986   7.636   0.727   3.889
 5010TIP3    H114987   7.625   0.632   3.890
 5010TIP3    H214988   7.549   0.760   3.867
 5011TIP3   OH214989   5.115   5.527   5.947
 5011TIP3    H114990   5.077   5.571   6.023
 5011TIP3    H214991   5.193   5.483   5.982
 5012TIP3   OH214992   5.787   0.137   6.702
 5012TIP3    H114993   5.870   0.123   6.749
 5012TIP3    H214994   5.793   0.227   6.669
 5013TIP3   OH214995   1.933   2.591   5.284
 5013TIP3    H114996   1.987   2.647   5.229
 5013TIP3    H214997   1.857   2.645   5.307
 5014TIP3   OH214998   1.271   1.866   3.695
 5014TIP3    H114999   1.223   1.795   3.653
 5014TIP3    H215000   1.248   1.944   3.644
 5015TIP3   OH215001   5.526   6.161   0.776
 5015TIP3    H115002   5.587   6.123   0.713
 5015TIP3    H215003   5.573   6.160   0.859
 5016TIP3   OH215004   1.838   0.933   1.160
 5016TIP3    H115005   1.851   0.841   1.140
 5016TIP3    H215006   1.796   0.932   1.246
 5017TIP3   OH215007   0.722   3.620   1.935
 5017TIP3    H115008   0.786   3.666   1.881
 5017TIP3    H215009   0.773   3.585   2.008
 5018TIP3   OH215010   3.876   3.569   6.502
 5018TIP3    H115011   3.969   3.565   6.522
 5018TIP3    H215012   3.871   3.616   6.419
 5019TIP3   OH215013   1.108   2.936   4.825
 5019TIP3    H115014   1.065   2.952   4.909
 5019TIP3    H215015   1.071   3.002   4.767
 5020TIP3   OH215016   3.551   0.824   5.748
 5020TIP3    H115017   3.631   0.778   5.773
 5020TIP3    H215018   3.538   0.800   5.656
 5021TIP3   OH215019   6.793   5.290   4.675
 5021TIP3    H115020   6.800   5.262   4.584
 5021TIP3    H215021   6.786   5.209   4.725
 5022TIP3   OH215022   6.878   7.577   4.740
 5022TIP3    H115023   6.942   7.637   4.702
 5022TIP3    H215024   6.888   7.496   4.689
 5023TIP3   OH215025   2.316   3.835   5.736
 5023TIP3    H115026   2.227   3.805   5.752
 5023TIP3    H215027   2.370   3.756   5.747
 5024TIP3   OH215028   2.995   3.330   4.056
 5024TIP3    H115029   2.906   3.311   4.026
 5024TIP3    H215030   3.045   3.341   3.975
 5025TIP3   OH215031   1.640   3.474   3.473
 5025TIP3    H115032   1.583   3.424   3.531
 5025TIP3    H215033   1.692   3.409   3.427
 5026TIP3   OH215034   6.177   5.891   5.637
 5026TIP3    H115035   6.205   5.931   5.555
 5026TIP3    H215036   6.130   5.961   5.682
 5027TIP3   OH215037   0.987   7.303   4.160
 5027TIP3    H115038   0.964   7.379   4.213
 5027TIP3    H215039   0.903   7.262   4.139
 5028TIP3   OH215040   1.245   2.206   2.366
 5028TIP3    H115041   1.157   2.181   2.394
 5028TIP3    H215042   1.240   2.206   2.270
 5029TIP3   OH215043   6.215   5.438   1.196
 5029TIP3    H115044   6.278   5.387   1.147
 5029TIP3    H215045   6.133   5.430   1.147
 5030TIP3   OH215046   7.643   4.464   5.107
 5030TIP3    H115047   7.681   4.398   5.166
 5030TIP3    H215048   7.649   4.425   5.020
 5031TIP3   OH215049   2.738   1.526   2.229
 5031TIP3    H115050   2.809   1.467   2.256
 5031TIP3    H215051   2.660   1.470   2.227
 5032TIP3   OH215052   4.882   1.483   3.219
 5032TIP3    H115053   4.941   1.551   3.185
 5032TIP3    H215054   4.940   1.410   3.241
 5033TIP3   OH215055   8.190   0.577   5.747
 5033TIP3    H115056   8.148   0.492   5.759
 5033TIP3    H215057   8.119   0.636   5.720
 5034TIP3   OH215058   1.117   3.476   2.997
 5034TIP3    H115059   1.117   3.416   3.072
 5034TIP3    H215060   1.162   3.427   2.928
 5035TIP3   OH215061   6.163   7.510   1.744
 5035TIP3    H115062   6.088   7.542   1.694
 5035TIP3    H215063   6.237   7.519   1.685
 5036TIP3   OH215064   1.531   3.811   2.524
 5036TIP3    H115065   1.584   3.861   2.462
 5036TIP3    H215066   1.509   3.874   2.593
 5037TIP3   OH215067   7.078   6.283   3.665
 5037TIP3    H115068   7.015   6.268   3.736
 5037TIP3    H215069   7.055   6.369   3.630
 5038TIP3   OH215070   3.330   1.999   4.301
 5038TIP3    H115071   3.408   1.965   4.345
 5038TIP3    H215072   3.257   1.974   4.359
 5039TIP3   OH215073   2.853   6.418   5.465
 5039TIP3    H115074   2.938   6.452   5.436
 5039TIP3    H215075   2.870   6.383   5.552
 5040TIP3   OH215076   5.505   7.789   0.147
 5040TIP3    H115077   5.513   7.719   0.081
 5040TIP3    H215078   5.551   7.863   0.108
 5041TIP3   OH215079   0.541   0.902   3.459
 5041TIP3    H115080   0.563   0.949   3.539
 5041TIP3    H215081   0.446   0.910   3.451
 5042TIP3   OH215082   5.910   4.938   3.624
 5042TIP3    H115083   5.842   4.963   3.561
 5042TIP3    H215084   5.992   4.958   3.579
 5043TIP3   OH215085   8.274   0.999   5.239
 5043TIP3    H115086   8.301   1.036   5.155
 5043TIP3    H215087   8.299   0.907   5.233
 5044TIP3   OH215088   5.507   1.151   1.713
 5044TIP3    H115089   5.451   1.101   1.773
 5044TIP3    H215090   5.488   1.243   1.733
 5045TIP3   OH215091   5.914   5.673   3.070
 5045TIP3    H115092   5.941   5.660   3.161
 5045TIP3    H215093   5.820   5.691   3.076
 5046TIP3   OH215094   2.993   5.152   1.170
 5046TIP3    H115095   3.018   5.194   1.253
 5046TIP3    H215096   2.978   5.061   1.194
 5047TIP3   OH215097   0.190   3.564   0.728
 5047TIP3    H115098   0.233   3.648   0.743
 5047TIP3    H215099   0.261   3.500   0.725
 5048TIP3   OH215100   3.617   1.365   2.903
 5048TIP3    H115101   3.673   1.293   2.934
 5048TIP3    H215102   3.678   1.426   2.861
 5049TIP3   OH215103   7.296   0.577   0.123
 5049TIP3    H115104   7.387   0.594   0.149
 5049TIP3    H215105   7.302   0.537   0.037
 5050TIP3   OH215106   5.443   2.344   0.264
 5050TIP3    H115107   5.447   2.370   0.356
 5050TIP3    H215108   5.373   2.279   0.260
 5051TIP3   OH215109   3.277   6.260   5.797
 5051TIP3    H115110   3.255   6.288   5.887
 5051TIP3    H215111   3.263   6.165   5.798
 5052TIP3   OH215112   7.826   6.116   1.849
 5052TIP3    H115113   7.755   6.123   1.785
 5052TIP3    H215114   7.816   6.193   1.905
 5053TIP3   OH215115   8.004   0.079   4.031
 5053TIP3    H115116   7.928   0.026   4.056
 5053TIP3    H215117   8.046   0.100   4.114
 5054TIP3   OH215118   1.404   3.717   0.680
 5054TIP3    H115119   1.441   3.671   0.756
 5054TIP3    H215120   1.391   3.807   0.711
 5055TIP3   OH215121   7.735   5.173   4.992
 5055TIP3    H115122   7.739   5.077   4.990
 5055TIP3    H215123   7.642   5.193   5.001
 5056TIP3   OH215124   8.161   1.323   0.548
 5056TIP3    H115125   8.129   1.301   0.461
 5056TIP3    H215126   8.143   1.416   0.558
 5057TIP3   OH215127   1.373   5.901   3.586
 5057TIP3    H115128   1.392   5.807   3.590
 5057TIP3    H215129   1.278   5.906   3.600
 5058TIP3   OH215130   1.791   5.707   6.254
 5058TIP3    H115131   1.741   5.788   6.242
 5058TIP3    H215132   1.839   5.720   6.336
 5059TIP3   OH215133   0.288   3.931   4.020
 5059TIP3    H115134   0.265   3.839   4.027
 5059TIP3    H215135   0.342   3.937   3.941
 5060TIP3   OH215136   0.967   1.960   0.862
 5060TIP3    H115137   0.984   1.947   0.769
 5060TIP3    H215138   1.054   1.972   0.900
 5061TIP3   OH215139   3.834   4.838   3.696
 5061TIP3    H115140   3.761   4.823   3.756
 5061TIP3    H215141   3.837   4.760   3.641
 5062TIP3   OH215142   4.721   7.146   4.221
 5062TIP3    H115143   4.810   7.148   4.255
 5062TIP3    H215144   4.719   7.068   4.165
 5063TIP3   OH215145   2.964   4.798   5.233
 5063TIP3    H115146   2.916   4.876   5.207
 5063TIP3    H215147   2.943   4.787   5.326
 5064TIP3   OH215148   3.016   3.481   3.593
 5064TIP3    H115149   3.005   3.571   3.625
 5064TIP3    H215150   3.075   3.489   3.518
 5065TIP3   OH215151   4.689   6.069   2.528
 5065TIP3    H115152   4.658   5.978   2.521
 5065TIP3    H215153   4.609   6.122   2.525
 5066TIP3   OH215154   3.404   3.768   6.081
 5066TIP3    H115155   3.375   3.682   6.051
 5066TIP3    H215156   3.329   3.825   6.066
 5067TIP3   OH215157   0.048   1.490   0.212
 5067TIP3    H115158   0.072   1.583   0.210
 5067TIP3    H215159  -0.028   1.484   0.155
 5068TIP3   OH215160   8.159   5.084   3.278
 5068TIP3    H115161   8.247   5.080   3.240
 5068TIP3    H215162   8.174   5.085   3.372
 5069TIP3   OH215163   7.920   6.672   1.805
 5069TIP3    H115164   7.863   6.725   1.862
 5069TIP3    H215165   7.864   6.647   1.732
 5070TIP3   OH215166   7.092   3.308   4.497
 5070TIP3    H115167   7.053   3.355   4.570
 5070TIP3    H215168   7.021   3.300   4.433
 5071TIP3   OH215169   1.878   2.922   1.363
 5071TIP3    H115170   1.834   2.922   1.448
 5071TIP3    H215171   1.917   2.835   1.356
 5072TIP3   OH215172   6.645   7.224   5.545
 5072TIP3    H115173   6.648   7.320   5.535
 5072TIP3    H215174   6.720   7.204   5.601
 5073TIP3   OH215175   1.101   0.170   5.100
 5073TIP3    H115176   1.149   0.125   5.031
 5073TIP3    H215177   1.166   0.184   5.169
 5074TIP3   OH215178   6.965   4.219   0.854
 5074TIP3    H115179   6.971   4.196   0.947
 5074TIP3    H215180   6.905   4.154   0.818
 5075TIP3   OH215181   7.580   1.983   6.357
 5075TIP3    H115182   7.638   1.933   6.300
 5075TIP3    H215183   7.546   2.053   6.302
 5076TIP3   OH215184   6.806   1.830   0.432
 5076TIP3    H115185   6.807   1.735   0.426
 5076TIP3    H215186   6.898   1.855   0.425
 5077TIP3   OH215187   1.621   0.742   0.425
 5077TIP3    H115188   1.525   0.737   0.422
 5077TIP3    H215189   1.648   0.740   0.333
 5078TIP3   OH215190   3.777   4.466   5.332
 5078TIP3    H115191   3.798   4.392   5.275
 5078TIP3    H215192   3.712   4.432   5.393
 5079TIP3   OH215193   1.516   2.989   4.567
 5079TIP3    H115194   1.449   2.951   4.511
 5079TIP3    H215195   1.576   3.033   4.507
 5080TIP3   OH215196   0.342   4.706   0.774
 5080TIP3    H115197   0.293   4.679   0.851
 5080TIP3    H215198   0.384   4.788   0.799
 5081TIP3   OH215199   0.367   5.350   5.106
 5081TIP3    H115200   0.304   5.400   5.054
 5081TIP3    H215201   0.327   5.343   5.192
 5082TIP3   OH215202   2.846   6.943   2.824
 5082TIP3    H115203   2.756   6.948   2.792
 5082TIP3    H215204   2.841   6.972   2.915
 5083TIP3   OH215205   6.701   2.571   6.373
 5083TIP3    H115206   6.657   2.652   6.345
 5083TIP3    H215207   6.631   2.518   6.410
 5084TIP3   OH215208   5.114   6.011   5.852
 5084TIP3    H115209   5.039   6.056   5.891
 5084TIP3    H215210   5.173   5.994   5.926
 5085TIP3   OH215211   3.462   2.792   0.746
 5085TIP3    H115212   3.499   2.872   0.783
 5085TIP3    H215213   3.367   2.805   0.752
 5086TIP3   OH215214   3.102   1.173   1.387
 5086TIP3    H115215   3.149   1.142   1.309
 5086TIP3    H215216   3.102   1.098   1.446
 5087TIP3   OH215217   4.747   7.304   2.213
 5087TIP3    H115218   4.792   7.389   2.207
 5087TIP3    H215219   4.788   7.261   2.288
 5088TIP3   OH215220   5.462   2.265   0.607
 5088TIP3    H115221   5.368   2.277   0.626
 5088TIP3    H215222   5.505   2.333   0.659
 5089TIP3   OH215223   0.236   6.846   3.784
 5089TIP3    H115224   0.305   6.858   3.850
 5089TIP3    H215225   0.155   6.865   3.830
 5090TIP3   OH215226   5.450   5.072   6.761
 5090TIP3    H115227   5.415   5.120   6.836
 5090TIP3    H215228   5.417   4.983   6.772
 5091TIP3   OH215229   0.701   4.283   4.941
 5091TIP3    H115230   0.675   4.372   4.962
 5091TIP3    H215231   0.787   4.273   4.982
 5092TIP3   OH215232   5.537   2.805   3.522
 5092TIP3    H115233   5.559   2.730   3.466
 5092TIP3    H215234   5.560   2.882   3.469
 5093TIP3   OH215235   4.667   2.881   6.276
 5093TIP3    H115236   4.601   2.902   6.210
 5093TIP3    H215237   4.621   2.890   6.359
 5094TIP3   OH215238   1.833   6.287   3.948
 5094TIP3    H115239   1.778   6.308   3.872
 5094TIP3    H215240   1.903   6.233   3.913
 5095TIP3   OH215241   1.593   2.759   4.757
 5095TIP3    H115242   1.505   2.796   4.763
 5095TIP3    H215243   1.589   2.699   4.682
 5096TIP3   OH215244   1.075   2.747   2.009
 5096TIP3    H115245   1.112   2.706   1.931
 5096TIP3    H215246   1.029   2.825   1.976
 5097TIP3   OH215247   3.498   3.854   2.847
 5097TIP3    H115248   3.433   3.861   2.916
 5097TIP3    H215249   3.483   3.768   2.808
 5098TIP3   OH215250   0.085   7.500   2.089
 5098TIP3    H115251   0.092   7.546   2.172
 5098TIP3    H215252   0.160   7.441   2.088
 5099TIP3   OH215253   1.663   1.003   2.772
 5099TIP3    H115254   1.613   1.080   2.799
 5099TIP3    H215255   1.754   1.034   2.767
 5100TIP3   OH215256   7.248   5.102   6.105
 5100TIP3    H115257   7.179   5.115   6.170
 5100TIP3    H215258   7.270   5.009   6.113
 5101TIP3   OH215259   1.721   6.629   1.616
 5101TIP3    H115260   1.682   6.693   1.556
 5101TIP3    H215261   1.699   6.544   1.578
 5102TIP3   OH215262   1.287   6.535   0.900
 5102TIP3    H115263   1.266   6.442   0.908
 5102TIP3    H215264   1.202   6.579   0.896
 5103TIP3   OH215265   1.518   2.462   6.729
 5103TIP3    H115266   1.512   2.466   6.633
 5103TIP3    H215267   1.558   2.378   6.747
 5104TIP3   OH215268   0.027   1.372   6.367
 5104TIP3    H115269   0.009   1.313   6.294
 5104TIP3    H215270   0.029   1.315   6.444
 5105TIP3   OH215271   5.988   2.418   4.629
 5105TIP3    H115272   6.033   2.390   4.709
 5105TIP3    H215273   6.049   2.478   4.587
 5106TIP3   OH215274   6.299   2.144   5.688
 5106TIP3    H115275   6.371   2.093   5.724
 5106TIP3    H215276   6.299   2.122   5.595
 5107TIP3   OH215277   7.837   1.049   4.362
 5107TIP3    H115278   7.886   1.004   4.293
 5107TIP3    H215279   7.862   1.004   4.443
 5108TIP3   OH215280   7.580   2.438   2.766
 5108TIP3    H115281   7.558   2.359   2.717
 5108TIP3    H215282   7.676   2.437   2.769
 5109TIP3   OH215283   3.559   1.738   4.123
 5109TIP3    H115284   3.609   1.689   4.058
 5109TIP3    H215285   3.510   1.671   4.171
 5110TIP3   OH215286   0.931   6.716   0.184
 5110TIP3    H115287   0.887   6.801   0.173
 5110TIP3    H215288   0.899   6.683   0.268
 5111TIP3   OH215289   0.110   1.975   0.590
 5111TIP3    H115290   0.130   2.038   0.659
 5111TIP3    H215291   0.162   2.004   0.515
 5112TIP3   OH215292   4.336   0.949   6.319
 5112TIP3    H115293   4.268   1.016   6.316
 5112TIP3    H215294   4.359   0.943   6.412
 5113TIP3   OH215295   0.469   0.985   1.888
 5113TIP3    H115296   0.470   0.924   1.962
 5113TIP3    H215297   0.514   0.938   1.818
 5114TIP3   OH215298   5.322   3.309   3.960
 5114TIP3    H115299   5.275   3.339   4.038
 5114TIP3    H215300   5.362   3.388   3.924
 5115TIP3   OH215301   1.907   7.465   1.456
 5115TIP3    H115302   1.959   7.384   1.458
 5115TIP3    H215303   1.969   7.534   1.478
 5116TIP3   OH215304   2.437   6.127   1.326
 5116TIP3    H115305   2.401   6.085   1.404
 5116TIP3    H215306   2.497   6.193   1.360
 5117TIP3   OH215307   5.030   6.082   3.612
 5117TIP3    H115308   5.037   6.167   3.569
 5117TIP3    H215309   5.108   6.077   3.668
 5118TIP3   OH215310   4.674   4.904   4.276
 5118TIP3    H115311   4.689   4.998   4.271
 5118TIP3    H215312   4.697   4.871   4.190
 5119TIP3   OH215313   6.674   5.589   0.652
 5119TIP3    H115314   6.600   5.540   0.615
 5119TIP3    H215315   6.669   5.675   0.610
 5120TIP3   OH215316   2.920   5.997   2.659
 5120TIP3    H115317   2.858   6.022   2.726
 5120TIP3    H215318   2.976   5.931   2.700
 5121TIP3   OH215319   3.805   3.344   3.042
 5121TIP3    H115320   3.884   3.350   3.095
 5121TIP3    H215321   3.733   3.347   3.105
 5122TIP3   OH215322   1.161   3.954   2.184
 5122TIP3    H115323   1.224   3.883   2.197
 5122TIP3    H215324   1.077   3.917   2.211
 5123TIP3   OH215325   0.820   2.235   5.175
 5123TIP3    H115326   0.765   2.168   5.133
 5123TIP3    H215327   0.778   2.251   5.259
 5124TIP3   OH215328   3.595   7.698   4.347
 5124TIP3    H115329   3.627   7.722   4.260
 5124TIP3    H215330   3.501   7.712   4.343
 5125TIP3   OH215331   8.192   1.126   4.014
 5125TIP3    H115332   8.242   1.123   4.095
 5125TIP3    H215333   8.247   1.175   3.953
 5126TIP3   OH215334   4.821   6.837   4.247
 5126TIP3    H115335   4.902   6.815   4.201
 5126TIP3    H215336   4.758   6.772   4.218
 5127TIP3   OH215337   6.422   6.397   0.791
 5127TIP3    H115338   6.508   6.357   0.808
 5127TIP3    H215339   6.407   6.452   0.868
 5128TIP3   OH215340   5.143   5.954   1.556
 5128TIP3    H115341   5.152   6.049   1.556
 5128TIP3    H215342   5.051   5.938   1.535
 5129TIP3   OH215343   5.557   6.853   6.579
 5129TIP3    H115344   5.533   6.882   6.491
 5129TIP3    H215345   5.592   6.765   6.567
 5130TIP3   OH215346   1.112   4.811   4.017
 5130TIP3    H115347   1.024   4.802   4.053
 5130TIP3    H215348   1.121   4.737   3.957
 5131TIP3   OH215349   5.894   3.272   1.481
 5131TIP3    H115350   5.879   3.207   1.413
 5131TIP3    H215351   5.828   3.253   1.548
 5132TIP3   OH215352   6.042   3.098   5.864
 5132TIP3    H115353   6.109   3.029   5.867
 5132TIP3    H215354   5.959   3.051   5.872
 5133TIP3   OH215355   4.891   6.217   5.887
 5133TIP3    H115356   4.891   6.155   5.959
 5133TIP3    H215357   4.827   6.283   5.912
 5134TIP3   OH215358   4.071   3.435   1.157
 5134TIP3    H115359   4.108   3.522   1.139
 5134TIP3    H215360   4.109   3.411   1.242
 5135TIP3   OH215361   4.693   4.173   6.066
 5135TIP3    H115362   4.754   4.102   6.045
 5135TIP3    H215363   4.746   4.253   6.056
 5136TIP3   OH215364   0.765   1.506   4.259
 5136TIP3    H115365   0.730   1.419   4.282
 5136TIP3    H215366   0.690   1.565   4.270
 5137TIP3   OH215367   1.684   5.221   5.566
 5137TIP3    H115368   1.598   5.212   5.607
 5137TIP3    H215369   1.682   5.160   5.492
 5138TIP3   OH215370   5.824   4.376   4.475
 5138TIP3    H115371   5.809   4.353   4.567
 5138TIP3    H215372   5.915   4.351   4.459
 5139TIP3   OH215373   6.208   2.999   3.038
 5139TIP3    H115374   6.170   3.044   3.113
 5139TIP3    H215375   6.163   2.914   3.036
 5140TIP3   OH215376   5.966   2.915   3.426
 5140TIP3    H115377   6.002   2.933   3.513
 5140TIP3    H215378   5.957   3.002   3.386
 5141TIP3   OH215379   6.774   3.418   6.522
 5141TIP3    H115380   6.745   3.509   6.535
 5141TIP3    H215381   6.803   3.390   6.609
 5142TIP3   OH215382   4.345   6.941   2.265
 5142TIP3    H115383   4.305   6.866   2.222
 5142TIP3    H215384   4.423   6.960   2.213
 5143TIP3   OH215385   4.833   2.372   1.372
 5143TIP3    H115386   4.801   2.320   1.446
 5143TIP3    H215387   4.782   2.453   1.375
 5144TIP3   OH215388   2.207   0.197   0.085
 5144TIP3    H115389   2.274   0.201   0.153
 5144TIP3    H215390   2.234   0.124   0.028
 5145TIP3   OH215391   5.108   2.738   3.388
 5145TIP3    H115392   5.031   2.788   3.417
 5145TIP3    H215393   5.166   2.737   3.465
 5146TIP3   OH215394   3.338   0.598   0.900
 5146TIP3    H115395   3.407   0.536   0.873
 5146TIP3    H215396   3.377   0.684   0.888
 5147TIP3   OH215397   4.162   1.214   0.733
 5147TIP3    H115398   4.159   1.276   0.660
 5147TIP3    H215399   4.148   1.268   0.811
 5148TIP3   OH215400   0.266   2.812   1.501
 5148TIP3    H115401   0.198   2.867   1.463
 5148TIP3    H215402   0.280   2.849   1.588
 5149TIP3   OH215403   5.434   3.905   2.070
 5149TIP3    H115404   5.479   3.897   2.154
 5149TIP3    H215405   5.496   3.868   2.007
 5150TIP3   OH215406   4.510   7.672   4.651
 5150TIP3    H115407   4.535   7.693   4.561
 5150TIP3    H215408   4.431   7.617   4.642
 5151TIP3   OH215409   7.535   0.232   1.819
 5151TIP3    H115410   7.618   0.277   1.799
 5151TIP3    H215411   7.473   0.267   1.755
 5152TIP3   OH215412   7.739   5.543   3.430
 5152TIP3    H115413   7.784   5.528   3.513
 5152TIP3    H215414   7.650   5.511   3.445
 5153TIP3   OH215415   2.341   7.642   6.427
 5153TIP3    H115416   2.313   7.732   6.416
 5153TIP3    H215417   2.260   7.591   6.430
 5154TIP3   OH215418   2.199   1.305   2.650
 5154TIP3    H115419   2.237   1.287   2.736
 5154TIP3    H215420   2.110   1.333   2.670
 5155TIP3   OH215421   0.964   5.776   4.463
 5155TIP3    H115422   0.999   5.706   4.519
 5155TIP3    H215423   1.040   5.830   4.443
 5156TIP3   OH215424   7.394   7.688   4.446
 5156TIP3    H115425   7.309   7.714   4.412
 5156TIP3    H215426   7.383   7.691   4.541
 5157TIP3   OH215427   7.779   5.594   2.493
 5157TIP3    H115428   7.835   5.579   2.570
 5157TIP3    H215429   7.826   5.662   2.444
 5158TIP3   OH215430   1.426   7.423   3.042
 5158TIP3    H115431   1.466   7.429   2.955
 5158TIP3    H215432   1.399   7.332   3.050
 5159TIP3   OH215433   6.761   0.027   3.692
 5159TIP3    H115434   6.806   0.003   3.773
 5159TIP3    H215435   6.724   0.113   3.709
 5160TIP3   OH215436   7.744   0.810   0.879
 5160TIP3    H115437   7.798   0.743   0.837
 5160TIP3    H215438   7.755   0.795   0.973
 5161TIP3   OH215439   0.770   5.433   2.859
 5161TIP3    H115440   0.790   5.444   2.766
 5161TIP3    H215441   0.683   5.392   2.860
 5162TIP3   OH215442   0.956   1.691   6.549
 5162TIP3    H115443   0.974   1.753   6.620
 5162TIP3    H215444   0.874   1.649   6.575
 5163TIP3   OH215445   1.307   6.902   2.204
 5163TIP3    H115446   1.338   6.816   2.177
 5163TIP3    H215447   1.386   6.950   2.228
 5164TIP3   OH215448   3.965   5.880   1.869
 5164TIP3    H115449   4.044   5.904   1.918
 5164TIP3    H215450   3.917   5.962   1.860
 5165TIP3   OH215451   4.364   4.353   0.902
 5165TIP3    H115452   4.448   4.355   0.856
 5165TIP3    H215453   4.301   4.383   0.836
 5166TIP3   OH215454   3.077   1.174   1.882
 5166TIP3    H115455   3.121   1.243   1.932
 5166TIP3    H215456   2.986   1.203   1.877
 5167TIP3   OH215457   7.198   3.688   6.525
 5167TIP3    H115458   7.111   3.663   6.492
 5167TIP3    H215459   7.255   3.684   6.448
 5168TIP3   OH215460   8.207   7.341   4.910
 5168TIP3    H115461   8.177   7.413   4.856
 5168TIP3    H215462   8.127   7.296   4.937
 5169TIP3   OH215463   3.416   1.424   0.890
 5169TIP3    H115464   3.360   1.370   0.834
 5169TIP3    H215465   3.489   1.451   0.833
 5170TIP3   OH215466   4.600   6.096   5.748
 5170TIP3    H115467   4.615   6.105   5.654
 5170TIP3    H215468   4.686   6.111   5.788
 5171TIP3   OH215469   5.985   4.379   3.294
 5171TIP3    H115470   5.986   4.457   3.238
 5171TIP3    H215471   6.040   4.403   3.369
 5172TIP3   OH215472   7.896   7.622   3.934
 5172TIP3    H115473   7.858   7.700   3.975
 5172TIP3    H215474   7.966   7.656   3.879
 5173TIP3   OH215475   2.870   7.375   4.788
 5173TIP3    H115476   2.926   7.408   4.717
 5173TIP3    H215477   2.827   7.453   4.823
 5174TIP3   OH215478   3.684   5.915   2.907
 5174TIP3    H115479   3.742   5.843   2.933
 5174TIP3    H215480   3.729   5.994   2.937
 5175TIP3   OH215481   3.156   4.404   2.706
 5175TIP3    H115482   3.143   4.498   2.692
 5175TIP3    H215483   3.186   4.397   2.796
 5176TIP3   OH215484   7.541   0.686   5.326
 5176TIP3    H115485   7.554   0.616   5.263
 5176TIP3    H215486   7.578   0.652   5.407
 5177TIP3   OH215487   4.359   6.808   3.019
 5177TIP3    H115488   4.376   6.901   3.032
 5177TIP3    H215489   4.440   6.774   2.980
 5178TIP3   OH215490   2.007   6.152   2.502
 5178TIP3    H115491   1.962   6.234   2.520
 5178TIP3    H215492   2.032   6.119   2.588
 5179TIP3   OH215493   6.185   5.223   1.420
 5179TIP3    H115494   6.170   5.199   1.511
 5179TIP3    H215495   6.217   5.313   1.424
 5180TIP3   OH215496   6.847   1.321   4.495
 5180TIP3    H115497   6.767   1.315   4.548
 5180TIP3    H215498   6.893   1.238   4.511
 5181TIP3   OH215499   7.417   0.284   0.609
 5181TIP3    H115500   7.466   0.224   0.665
 5181TIP3    H215501   7.378   0.227   0.542
 5182TIP3   OH215502   6.901   2.668   2.480
 5182TIP3    H115503   6.836   2.717   2.530
 5182TIP3    H215504   6.899   2.580   2.518
 5183TIP3   OH215505   4.088   4.470   1.654
 5183TIP3    H115506   4.162   4.465   1.594
 5183TIP3    H215507   4.039   4.547   1.626
 5184TIP3   OH215508   7.497   0.904   6.485
 5184TIP3    H115509   7.571   0.864   6.532
 5184TIP3    H215510   7.470   0.977   6.541
 5185TIP3   OH215511   0.279   0.386   6.602
 5185TIP3    H115512   0.186   0.370   6.588
 5185TIP3    H215513   0.284   0.423   6.690
 5186TIP3   OH215514   5.277   2.572   4.303
 5186TIP3    H115515   5.277   2.555   4.397
 5186TIP3    H215516   5.349   2.518   4.269
 5187TIP3   OH215517   0.389   1.504   0.006
 5187TIP3    H115518   0.471   1.461  -0.018
 5187TIP3    H215519   0.321   1.442  -0.020
 5188TIP3   OH215520   6.960   5.652   5.409
 5188TIP3    H115521   6.870   5.681   5.400
 5188TIP3    H215522   6.964   5.608   5.494
 5189TIP3   OH215523   6.096   3.552   3.895
 5189TIP3    H115524   6.026   3.564   3.830
 5189TIP3    H215525   6.114   3.641   3.926
 5190TIP3   OH215526   7.139   4.950   4.786
 5190TIP3    H115527   7.149   5.013   4.714
 5190TIP3    H215528   7.224   4.950   4.830
 5191TIP3   OH215529   8.012   3.080   3.418
 5191TIP3    H115530   8.043   2.990   3.407
 5191TIP3    H215531   7.917   3.072   3.418
 5192TIP3   OH215532   0.023   5.907   3.317
 5192TIP3    H115533   0.104   5.925   3.364
 5192TIP3    H215534  -0.006   5.993   3.286
 5193TIP3   OH215535   5.443   2.283   3.788
 5193TIP3    H115536   5.354   2.281   3.752
 5193TIP3    H215537   5.499   2.298   3.712
 5194TIP3   OH215538   1.821   2.698   3.577
 5194TIP3    H115539   1.858   2.634   3.515
 5194TIP3    H215540   1.792   2.645   3.651
 5195TIP3   OH215541   1.271   2.221   1.211
 5195TIP3    H115542   1.362   2.238   1.188
 5195TIP3    H215543   1.221   2.277   1.151
 5196TIP3   OH215544   7.479   0.146   4.425
 5196TIP3    H115545   7.539   0.083   4.386
 5196TIP3    H215546   7.525   0.179   4.502
 5197TIP3   OH215547   0.527   6.449   0.490
 5197TIP3    H115548   0.483   6.412   0.567
 5197TIP3    H215549   0.473   6.525   0.466
 5198TIP3   OH215550   3.116   4.730   1.879
 5198TIP3    H115551   3.148   4.724   1.968
 5198TIP3    H215552   3.188   4.770   1.830
 5199TIP3   OH215553   7.644   6.670   3.317
 5199TIP3    H115554   7.738   6.667   3.295
 5199TIP3    H215555   7.641   6.656   3.411
 5200TIP3   OH215556   2.278   1.068   1.227
 5200TIP3    H115557   2.308   1.154   1.258
 5200TIP3    H215558   2.183   1.071   1.238
 5201TIP3   OH215559   1.363   0.085   6.386
 5201TIP3    H115560   1.384  -0.007   6.372
 5201TIP3    H215561   1.267   0.087   6.393
 5202TIP3   OH215562   1.210   0.999   3.101
 5202TIP3    H115563   1.147   1.065   3.128
 5202TIP3    H215564   1.291   1.049   3.085
 5203TIP3   OH215565   4.516   3.682   0.936
 5203TIP3    H115566   4.458   3.606   0.932
 5203TIP3    H215567   4.537   3.702   0.845
 5204TIP3   OH215568   4.324   5.164   4.568
 5204TIP3    H115569   4.230   5.145   4.565
 5204TIP3    H215570   4.333   5.228   4.638
 5205TIP3   OH215571   7.618   3.630   3.589
 5205TIP3    H115572   7.547   3.573   3.559
 5205TIP3    H215573   7.695   3.574   3.590
 5206TIP3   OH215574   1.515   2.557   4.560
 5206TIP3    H115575   1.562   2.482   4.595
 5206TIP3    H215576   1.423   2.538   4.578
 5207TIP3   OH215577   0.428   0.501   4.130
 5207TIP3    H115578   0.347   0.550   4.141
 5207TIP3    H215579   0.414   0.419   4.177
 5208TIP3   OH215580   0.652   5.806   5.020
 5208TIP3    H115581   0.711   5.863   4.970
 5208TIP3    H215582   0.565   5.839   5.000
 5209TIP3   OH215583   5.174   4.179   0.134
 5209TIP3    H115584   5.159   4.230   0.214
 5209TIP3    H215585   5.174   4.244   0.064
 5210TIP3   OH215586   0.770   5.730   2.236
 5210TIP3    H115587   0.835   5.691   2.178
 5210TIP3    H215588   0.711   5.777   2.177
 5211TIP3   OH215589   0.506   1.040   0.329
 5211TIP3    H115590   0.479   0.981   0.259
 5211TIP3    H215591   0.425   1.078   0.362
 5212TIP3   OH215592   3.666   4.804   3.174
 5212TIP3    H115593   3.634   4.718   3.202
 5212TIP3    H215594   3.697   4.790   3.084
 5213TIP3   OH215595   2.559   1.945   4.273
 5213TIP3    H115596   2.602   1.999   4.207
 5213TIP3    H215597   2.480   1.913   4.229
 5214TIP3   OH215598   0.795   3.031   1.510
 5214TIP3    H115599   0.709   3.018   1.550
 5214TIP3    H215600   0.788   3.116   1.465
 5215TIP3   OH215601   2.604   6.796   5.324
 5215TIP3    H115602   2.616   6.891   5.323
 5215TIP3    H215603   2.656   6.766   5.399
 5216TIP3   OH215604   1.835   3.174   4.650
 5216TIP3    H115605   1.778   3.154   4.575
 5216TIP3    H215606   1.809   3.111   4.717
 5217TIP3   OH215607   1.388   2.701   0.273
 5217TIP3    H115608   1.422   2.763   0.337
 5217TIP3    H215609   1.406   2.615   0.311
 5218TIP3   OH215610   7.746   6.466   5.147
 5218TIP3    H115611   7.666   6.518   5.151
 5218TIP3    H215612   7.720   6.378   5.175
 5219TIP3   OH215613   7.830   6.030   0.737
 5219TIP3    H115614   7.848   6.076   0.819
 5219TIP3    H215615   7.872   5.944   0.748
 5220TIP3   OH215616   6.488   0.790   1.888
 5220TIP3    H115617   6.452   0.702   1.875
 5220TIP3    H215618   6.412   0.844   1.911
 5221TIP3   OH215619   3.967   0.207   3.910
 5221TIP3    H115620   4.017   0.256   3.845
 5221TIP3    H215621   4.023   0.205   3.987
 5222TIP3   OH215622   5.166   1.614   1.472
 5222TIP3    H115623   5.253   1.593   1.506
 5222TIP3    H215624   5.109   1.612   1.548
 5223TIP3   OH215625   3.186   3.544   4.564
 5223TIP3    H115626   3.125   3.542   4.490
 5223TIP3    H215627   3.228   3.459   4.563
 5224TIP3   OH215628   6.470   6.636   5.105
 5224TIP3    H115629   6.386   6.591   5.113
 5224TIP3    H215630   6.532   6.580   5.153
 5225TIP3   OH215631   5.484   3.606   3.956
 5225TIP3    H115632   5.546   3.677   3.939
 5225TIP3    H215633   5.539   3.529   3.968
 5226TIP3   OH215634   1.127   2.696   3.450
 5226TIP3    H115635   1.151   2.756   3.380
 5226TIP3    H215636   1.125   2.750   3.529
 5227TIP3   OH215637   2.285   1.004   2.083
 5227TIP3    H115638   2.252   1.052   2.007
 5227TIP3    H215639   2.242   0.919   2.078
 5228TIP3   OH215640   6.175   3.587   5.511
 5228TIP3    H115641   6.183   3.650   5.583
 5228TIP3    H215642   6.100   3.619   5.460
 5229TIP3   OH215643   7.828   3.096   4.414
 5229TIP3    H115644   7.776   3.152   4.356
 5229TIP3    H215645   7.900   3.066   4.359
 5230TIP3   OH215646   4.824   0.537   5.822
 5230TIP3    H115647   4.914   0.546   5.852
 5230TIP3    H215648   4.795   0.626   5.806
 5231TIP3   OH215649   3.820   1.236   3.997
 5231TIP3    H115650   3.792   1.179   4.069
 5231TIP3    H215651   3.915   1.237   4.003
 5232TIP3   OH215652   2.957   3.002   5.383
 5232TIP3    H115653   2.961   2.943   5.308
 5232TIP3    H215654   3.031   3.061   5.371
 5233TIP3   OH215655   2.780   3.906   2.181
 5233TIP3    H115656   2.844   3.937   2.116
 5233TIP3    H215657   2.765   3.982   2.238
 5234TIP3   OH215658   3.704   5.627   5.419
 5234TIP3    H115659   3.763   5.554   5.436
 5234TIP3    H215660   3.670   5.651   5.506
 5235TIP3   OH215661   4.903   6.095   4.785
 5235TIP3    H115662   4.842   6.128   4.851
 5235TIP3    H215663   4.862   6.016   4.750
 5236TIP3   OH215664   8.196   4.228   2.298
 5236TIP3    H115665   8.124   4.285   2.271
 5236TIP3    H215666   8.267   4.249   2.238
 5237TIP3   OH215667   6.316   4.503   0.420
 5237TIP3    H115668   6.263   4.433   0.381
 5237TIP3    H215669   6.400   4.461   0.440
 5238TIP3   OH215670   5.447   6.948   5.189
 5238TIP3    H115671   5.459   7.029   5.239
 5238TIP3    H215672   5.531   6.932   5.147
 5239TIP3   OH215673   5.827   6.381   5.045
 5239TIP3    H115674   5.908   6.334   5.027
 5239TIP3    H215675   5.758   6.324   5.011
 5240TIP3   OH215676   0.890   3.812   6.108
 5240TIP3    H115677   0.953   3.838   6.175
 5240TIP3    H215678   0.814   3.782   6.157
 5241TIP3   OH215679   5.203   1.313   1.540
 5241TIP3    H115680   5.219   1.311   1.634
 5241TIP3    H215681   5.118   1.357   1.530
 5242TIP3   OH215682   3.365   7.549   2.941
 5242TIP3    H115683   3.380   7.468   2.892
 5242TIP3    H215684   3.289   7.529   2.996
 5243TIP3   OH215685   7.267  -0.077   4.347
 5243TIP3    H115686   7.331  -0.006   4.352
 5243TIP3    H215687   7.187  -0.035   4.316
 5244TIP3   OH215688   2.685   4.316   4.986
 5244TIP3    H115689   2.621   4.310   4.916
 5244TIP3    H215690   2.765   4.277   4.950
 5245TIP3   OH215691   3.885   5.158   2.523
 5245TIP3    H115692   3.840   5.237   2.553
 5245TIP3    H215693   3.861   5.091   2.588
 5246TIP3   OH215694   5.565   0.991   4.008
 5246TIP3    H115695   5.490   0.987   4.068
 5246TIP3    H215696   5.551   1.072   3.959
 5247TIP3   OH215697   4.421   1.389   5.920
 5247TIP3    H115698   4.468   1.376   6.002
 5247TIP3    H215699   4.341   1.339   5.929
 5248TIP3   OH215700   4.346   3.630   6.705
 5248TIP3    H115701   4.408   3.658   6.637
 5248TIP3    H215702   4.401   3.586   6.770
 5249TIP3   OH215703   2.980   4.801   4.784
 5249TIP3    H115704   3.043   4.789   4.855
 5249TIP3    H215705   2.921   4.727   4.793
 5250TIP3   OH215706   5.088   6.967   0.671
 5250TIP3    H115707   5.116   6.913   0.744
 5250TIP3    H215708   5.112   7.056   0.696
 5251TIP3   OH215709   6.775   7.134   0.780
 5251TIP3    H115710   6.865   7.130   0.814
 5251TIP3    H215711   6.768   7.222   0.743
 5252TIP3   OH215712   6.113   1.079   1.318
 5252TIP3    H115713   6.113   1.014   1.248
 5252TIP3    H215714   6.202   1.078   1.353
 5253TIP3   OH215715   5.671   3.453   6.624
 5253TIP3    H115716   5.600   3.495   6.673
 5253TIP3    H215717   5.684   3.369   6.668
 5254TIP3   OH215718   6.580   6.570   6.428
 5254TIP3    H115719   6.499   6.542   6.384
 5254TIP3    H215720   6.649   6.550   6.365
 5255TIP3   OH215721   7.468   2.519   1.965
 5255TIP3    H115722   7.412   2.556   2.033
 5255TIP3    H215723   7.472   2.425   1.985
 5256TIP3   OH215724   4.199   0.785   3.520
 5256TIP3    H115725   4.176   0.853   3.584
 5256TIP3    H215726   4.114   0.755   3.487
 5257TIP3   OH215727   6.932   6.995   4.764
 5257TIP3    H115728   6.921   6.951   4.679
 5257TIP3    H215729   6.976   6.930   4.819
 5258TIP3   OH215730   0.259   0.800   3.045
 5258TIP3    H115731   0.315   0.747   3.102
 5258TIP3    H215732   0.232   0.874   3.100
 5259TIP3   OH215733   8.155   6.219   3.488
 5259TIP3    H115734   8.095   6.202   3.416
 5259TIP3    H215735   8.166   6.134   3.531
 5260TIP3   OH215736   6.325   5.095   4.823
 5260TIP3    H115737   6.291   5.097   4.734
 5260TIP3    H215738   6.289   5.173   4.865
 5261TIP3   OH215739   0.997   4.427   2.791
 5261TIP3    H115740   0.946   4.395   2.866
 5261TIP3    H215741   0.964   4.515   2.775
 5262TIP3   OH215742   6.437   3.362   6.405
 5262TIP3    H115743   6.371   3.328   6.465
 5262TIP3    H215744   6.518   3.360   6.456
 5263TIP3   OH215745   6.610   0.385   1.226
 5263TIP3    H115746   6.610   0.317   1.294
 5263TIP3    H215747   6.521   0.421   1.229
 5264TIP3   OH215748   3.864   4.189   4.879
 5264TIP3    H115749   3.946   4.176   4.830
 5264TIP3    H215750   3.881   4.265   4.934
 5265TIP3   OH215751   3.012   6.118   1.239
 5265TIP3    H115752   3.082   6.080   1.187
 5265TIP3    H215753   3.057   6.154   1.316
 5266TIP3   OH215754   3.262   6.558   0.541
 5266TIP3    H115755   3.341   6.564   0.595
 5266TIP3    H215756   3.237   6.649   0.524
 5267TIP3   OH215757   0.332   2.300   5.714
 5267TIP3    H115758   0.301   2.312   5.803
 5267TIP3    H215759   0.282   2.224   5.681
 5268TIP3   OH215760   7.690   5.229   0.315
 5268TIP3    H115761   7.775   5.225   0.271
 5268TIP3    H215762   7.661   5.138   0.320
 5269TIP3   OH215763   4.049   4.989   3.341
 5269TIP3    H115764   3.970   5.021   3.298
 5269TIP3    H215765   4.020   4.911   3.389
 5270TIP3   OH215766   7.842   5.719   4.650
 5270TIP3    H115767   7.844   5.814   4.648
 5270TIP3    H215768   7.913   5.691   4.591
 5271TIP3   OH215769   7.770   3.990   3.188
 5271TIP3    H115770   7.726   4.049   3.127
 5271TIP3    H215771   7.700   3.958   3.245
 5272TIP3   OH215772   0.809   6.722   6.183
 5272TIP3    H115773   0.881   6.669   6.218
 5272TIP3    H215774   0.730   6.676   6.212
 5273TIP3   OH215775   4.403   0.625   5.052
 5273TIP3    H115776   4.343   0.566   5.006
 5273TIP3    H215777   4.346   0.687   5.098
 5274TIP3   OH215778   1.451   0.740   4.580
 5274TIP3    H115779   1.429   0.647   4.593
 5274TIP3    H215780   1.544   0.745   4.605
 5275TIP3   OH215781   6.087   7.405   4.897
 5275TIP3    H115782   6.057   7.314   4.904
 5275TIP3    H215783   6.047   7.450   4.971
 5276TIP3   OH215784   7.713   0.927   3.156
 5276TIP3    H115785   7.707   1.013   3.115
 5276TIP3    H215786   7.625   0.913   3.193
 5277TIP3   OH215787   3.648   0.222   1.841
 5277TIP3    H115788   3.711   0.269   1.896
 5277TIP3    H215789   3.693   0.212   1.758
 5278TIP3   OH215790   1.537   3.297   2.610
 5278TIP3    H115791   1.562   3.223   2.665
 5278TIP3    H215792   1.443   3.284   2.594
 5279TIP3   OH215793   3.279   0.904   4.230
 5279TIP3    H115794   3.344   0.937   4.168
 5279TIP3    H215795   3.275   0.971   4.299
 5280TIP3   OH215796   4.944   5.080   6.496
 5280TIP3    H115797   4.986   5.055   6.578
 5280TIP3    H215798   4.972   5.013   6.433
 5281TIP3   OH215799   8.146   6.168   0.685
 5281TIP3    H115800   8.221   6.227   0.677
 5281TIP3    H215801   8.160   6.122   0.768
 5282TIP3   OH215802   1.706   7.049   5.798
 5282TIP3    H115803   1.705   6.955   5.779
 5282TIP3    H215804   1.798   7.074   5.789
 5283TIP3   OH215805   4.295   3.573   4.533
 5283TIP3    H115806   4.358   3.531   4.592
 5283TIP3    H215807   4.344   3.590   4.453
 5284TIP3   OH215808   7.468  -0.111   2.241
 5284TIP3    H115809   7.453  -0.044   2.308
 5284TIP3    H215810   7.558  -0.093   2.210
 5285TIP3   OH215811   5.855   0.323   1.640
 5285TIP3    H115812   5.809   0.393   1.594
 5285TIP3    H215813   5.847   0.247   1.583
 5286TIP3   OH215814   4.192   3.230   2.797
 5286TIP3    H115815   4.159   3.266   2.714
 5286TIP3    H215816   4.119   3.181   2.833
 5287TIP3   OH215817   0.939   3.588   0.025
 5287TIP3    H115818   0.919   3.669  -0.022
 5287TIP3    H215819   0.917   3.518  -0.037
 5288TIP3   OH215820   2.917   7.396   3.650
 5288TIP3    H115821   2.940   7.489   3.644
 5288TIP3    H215822   2.869   7.389   3.732
 5289TIP3   OH215823   7.843   7.219   3.888
 5289TIP3    H115824   7.892   7.246   3.810
 5289TIP3    H215825   7.752   7.237   3.866
 5290TIP3   OH215826   5.284   3.066   3.409
 5290TIP3    H115827   5.201   3.101   3.377
 5290TIP3    H215828   5.318   3.013   3.337
 5291TIP3   OH215829   6.776   7.112   4.463
 5291TIP3    H115830   6.730   7.083   4.384
 5291TIP3    H215831   6.717   7.089   4.535
 5292TIP3   OH215832   5.883  -0.047   5.999
 5292TIP3    H115833   5.832   0.015   5.947
 5292TIP3    H215834   5.973  -0.034   5.969
 5293TIP3   OH215835   7.133   7.093   5.342
 5293TIP3    H115836   7.143   7.075   5.249
 5293TIP3    H215837   7.050   7.052   5.366
 5294TIP3   OH215838   0.079   6.822   3.348
 5294TIP3    H115839   0.104   6.748   3.293
 5294TIP3    H215840   0.007   6.864   3.300
 5295TIP3   OH215841   5.348   6.564   4.269
 5295TIP3    H115842   5.342   6.658   4.285
 5295TIP3    H215843   5.308   6.552   4.183
 5296TIP3   OH215844   5.688   4.888   1.189
 5296TIP3    H115845   5.689   4.944   1.111
 5296TIP3    H215846   5.712   4.801   1.157
 5297TIP3   OH215847   1.892   6.927   3.764
 5297TIP3    H115848   1.927   7.000   3.815
 5297TIP3    H215849   1.797   6.938   3.770
 5298TIP3   OH215850   5.186   0.552   0.906
 5298TIP3    H115851   5.124   0.527   0.974
 5298TIP3    H215852   5.173   0.646   0.895
 5299TIP3   OH215853   6.849   5.556   1.570
 5299TIP3    H115854   6.778   5.621   1.575
 5299TIP3    H215855   6.838   5.516   1.483
 5300TIP3   OH215856   4.641   3.563   3.506
 5300TIP3    H115857   4.721   3.542   3.554
 5300TIP3    H215858   4.572   3.562   3.572
 5301TIP3   OH215859   1.118   4.032   0.817
 5301TIP3    H115860   1.090   4.090   0.746
 5301TIP3    H215861   1.080   3.947   0.794
 5302TIP3   OH215862   1.209   2.427   6.131
 5302TIP3    H115863   1.207   2.500   6.193
 5302TIP3    H215864   1.182   2.351   6.182
 5303TIP3   OH215865   6.797   1.950   4.208
 5303TIP3    H115866   6.871   1.890   4.204
 5303TIP3    H215867   6.827   2.027   4.159
 5304TIP3   OH215868   1.783   7.568   4.791
 5304TIP3    H115869   1.810   7.658   4.772
 5304TIP3    H215870   1.742   7.573   4.878
 5305TIP3   OH215871   2.665   7.602   0.666
 5305TIP3    H115872   2.650   7.589   0.759
 5305TIP3    H215873   2.581   7.581   0.625
 5306TIP3   OH215874   3.116   5.154   0.371
 5306TIP3    H115875   3.054   5.088   0.400
 5306TIP3    H215876   3.202   5.121   0.399
 5307TIP3   OH215877   2.505   6.708   4.768
 5307TIP3    H115878   2.537   6.779   4.823
 5307TIP3    H215879   2.498   6.633   4.826
 5308TIP3   OH215880   3.416   2.878   4.363
 5308TIP3    H115881   3.365   2.904   4.440
 5308TIP3    H215882   3.506   2.901   4.384
 5309TIP3   OH215883   4.757   6.439   1.958
 5309TIP3    H115884   4.743   6.366   2.019
 5309TIP3    H215885   4.723   6.407   1.875
 5310TIP3   OH215886   6.320   3.863   5.276
 5310TIP3    H115887   6.265   3.787   5.258
 5310TIP3    H215888   6.409   3.835   5.254
 5311TIP3   OH215889   7.293   5.646   3.073
 5311TIP3    H115890   7.329   5.733   3.087
 5311TIP3    H215891   7.198   5.659   3.070
 5312TIP3   OH215892   4.836   6.880   6.051
 5312TIP3    H115893   4.775   6.905   6.121
 5312TIP3    H215894   4.841   6.957   5.995
 5313TIP3   OH215895   5.682   7.769   4.363
 5313TIP3    H115896   5.732   7.728   4.433
 5313TIP3    H215897   5.729   7.849   4.343
 5314TIP3   OH215898   1.086   2.079   4.187
 5314TIP3    H115899   1.110   2.055   4.097
 5314TIP3    H215900   1.077   1.995   4.232
 5315TIP3   OH215901   8.006   1.089   2.034
 5315TIP3    H115902   7.962   1.043   2.105
 5315TIP3    H215903   7.939   1.146   1.996
 5316TIP3   OH215904   7.684   1.488   1.379
 5316TIP3    H115905   7.723   1.574   1.371
 5316TIP3    H215906   7.589   1.504   1.379
 5317TIP3   OH215907   6.246   6.967   2.874
 5317TIP3    H115908   6.198   6.964   2.791
 5317TIP3    H215909   6.276   6.877   2.887
 5318TIP3   OH215910   1.069   0.747   5.760
 5318TIP3    H115911   1.018   0.824   5.785
 5318TIP3    H215912   1.121   0.727   5.837
 5319TIP3   OH215913   2.823   4.689   3.721
 5319TIP3    H115914   2.758   4.645   3.667
 5319TIP3    H215915   2.835   4.775   3.679
 5320TIP3   OH215916   2.745   3.328   0.590
 5320TIP3    H115917   2.677   3.290   0.535
 5320TIP3    H215918   2.707   3.411   0.620
 5321TIP3   OH215919   7.847   6.460   5.455
 5321TIP3    H115920   7.917   6.450   5.391
 5321TIP3    H215921   7.873   6.405   5.528
 5322TIP3   OH215922   0.698   0.215   2.245
 5322TIP3    H115923   0.719   0.133   2.200
 5322TIP3    H215924   0.606   0.206   2.270
 5323TIP3   OH215925   5.757   4.999   0.924
 5323TIP3    H115926   5.772   4.974   0.833
 5323TIP3    H215927   5.844   5.011   0.960
 5324TIP3   OH215928   4.842   1.971   6.040
 5324TIP3    H115929   4.805   1.887   6.068
 5324TIP3    H215930   4.786   1.999   5.968
 5325TIP3   OH215931   6.899   3.549   0.708
 5325TIP3    H115932   6.890   3.519   0.799
 5325TIP3    H215933   6.974   3.500   0.674
 5326TIP3   OH215934   3.726   2.841   5.456
 5326TIP3    H115935   3.664   2.828   5.527
 5326TIP3    H215936   3.671   2.864   5.380
 5327TIP3   OH215937   0.463   2.529   3.123
 5327TIP3    H115938   0.412   2.597   3.169
 5327TIP3    H215939   0.509   2.577   3.054
 5328TIP3   OH215940   8.260   4.128   2.553
 5328TIP3    H115941   8.341   4.176   2.572
 5328TIP3    H215942   8.238   4.154   2.463
 5329TIP3   OH215943   1.626   0.705   2.512
 5329TIP3    H115944   1.659   0.616   2.527
 5329TIP3    H215945   1.690   0.762   2.554
 5330TIP3   OH215946   3.984   6.031   5.503
 5330TIP3    H115947   3.925   6.088   5.552
 5330TIP3    H215948   4.068   6.076   5.504
 5331TIP3   OH215949   3.924   2.156   1.961
 5331TIP3    H115950   3.901   2.247   1.982
 5331TIP3    H215951   3.847   2.123   1.915
 5332TIP3   OH215952   3.768   6.214   4.327
 5332TIP3    H115953   3.718   6.267   4.265
 5332TIP3    H215954   3.794   6.137   4.277
 5333TIP3   OH215955   1.655   1.593   6.236
 5333TIP3    H115956   1.571   1.583   6.281
 5333TIP3    H215957   1.720   1.578   6.303
 5334TIP3   OH215958   8.257   4.735   3.161
 5334TIP3    H115959   8.304   4.684   3.228
 5334TIP3    H215960   8.317   4.806   3.139
 5335TIP3   OH215961   7.085   1.968   4.994
 5335TIP3    H115962   7.034   1.902   4.947
 5335TIP3    H215963   7.167   1.924   5.016
 5336TIP3   OH215964   8.022   3.834   1.479
 5336TIP3    H115965   7.934   3.872   1.481
 5336TIP3    H215966   8.030   3.797   1.391
 5337TIP3   OH215967   7.417   6.065   3.925
 5337TIP3    H115968   7.472   6.092   3.998
 5337TIP3    H215969   7.339   6.120   3.933
 5338TIP3   OH215970   5.884   6.003   5.590
 5338TIP3    H115971   5.945   6.075   5.606
 5338TIP3    H215972   5.834   6.029   5.512
 5339TIP3   OH215973   2.357   6.712   0.263
 5339TIP3    H115974   2.381   6.790   0.312
 5339TIP3    H215975   2.337   6.647   0.330
 5340TIP3   OH215976   2.126   2.857   0.058
 5340TIP3    H115977   2.126   2.770   0.019
 5340TIP3    H215978   2.162   2.914  -0.010
 5341TIP3   OH215979   4.965   0.615   1.142
 5341TIP3    H115980   4.897   0.558   1.178
 5341TIP3    H215981   4.917   0.683   1.095
 5342TIP3   OH215982   5.365   6.790   1.098
 5342TIP3    H115983   5.404   6.854   1.157
 5342TIP3    H215984   5.406   6.707   1.122
 5343TIP3   OH215985   5.785   0.659   4.789
 5343TIP3    H115986   5.785   0.661   4.885
 5343TIP3    H215987   5.877   0.657   4.765
 5344TIP3   OH215988   1.908   5.653   2.878
 5344TIP3    H115989   1.939   5.733   2.920
 5344TIP3    H215990   1.833   5.626   2.931
 5345TIP3   OH215991   4.370   1.916   4.638
 5345TIP3    H115992   4.322   1.951   4.712
 5345TIP3    H215993   4.379   1.822   4.657
 5346TIP3   OH215994   4.727   2.262   4.760
 5346TIP3    H115995   4.704   2.175   4.729
 5346TIP3    H215996   4.666   2.279   4.832
 5347TIP3   OH215997   1.955   0.152   2.971
 5347TIP3    H115998   2.010   0.149   3.049
 5347TIP3    H215999   1.866   0.143   3.003
 5348TIP3   OH216000   1.905   6.234   4.908
 5348TIP3    H116001   1.957   6.267   4.981
 5348TIP3    H216002   1.946   6.151   4.885
 5349TIP3   OH216003   0.124   7.716   5.724
 5349TIP3    H116004   0.211   7.690   5.693
 5349TIP3    H216005   0.068   7.641   5.705
 5350TIP3   OH216006   2.883   6.941   3.788
 5350TIP3    H116007   2.914   6.976   3.704
 5350TIP3    H216008   2.836   6.862   3.765
 5351TIP3   OH216009   1.641   3.409   2.855
 5351TIP3    H116010   1.559   3.453   2.878
 5351TIP3    H216011   1.640   3.405   2.759
 5352TIP3   OH216012   0.904   0.254   4.217
 5352TIP3    H116013   0.861   0.336   4.194
 5352TIP3    H216014   0.839   0.206   4.268
 5353TIP3   OH216015   6.473   7.821   4.902
 5353TIP3    H116016   6.531   7.750   4.928
 5353TIP3    H216017   6.420   7.838   4.979
 5354TIP3   OH216018   0.596   0.094   3.466
 5354TIP3    H116019   0.521   0.081   3.524
 5354TIP3    H216020   0.558   0.101   3.379
 5355TIP3   OH216021   4.322   2.538   1.337
 5355TIP3    H116022   4.329   2.525   1.432
 5355TIP3    H216023   4.350   2.455   1.299
 5356TIP3   OH216024   6.268   2.431   5.801
 5356TIP3    H116025   6.280   2.339   5.825
 5356TIP3    H216026   6.306   2.438   5.713
 5357TIP3   OH216027   2.921   3.813   0.949
 5357TIP3    H116028   2.955   3.797   0.861
 5357TIP3    H216029   2.969   3.751   1.004
 5358TIP3   OH216030   3.944   0.412   0.467
 5358TIP3    H116031   4.023   0.359   0.476
 5358TIP3    H216032   3.881   0.372   0.527
 5359TIP3   OH216033   6.222   1.313   1.020
 5359TIP3    H116034   6.234   1.406   1.001
 5359TIP3    H216035   6.166   1.281   0.949
 5360TIP3   OH216036   2.415   1.754   4.674
 5360TIP3    H116037   2.409   1.785   4.583
 5360TIP3    H216038   2.350   1.806   4.721
 5361TIP3   OH216039   3.581   0.887   6.465
 5361TIP3    H116040   3.611   0.837   6.540
 5361TIP3    H216041   3.653   0.948   6.447
 5362TIP3   OH216042   7.195   3.829   6.765
 5362TIP3    H116043   7.172   3.776   6.842
 5362TIP3    H216044   7.182   3.769   6.691
 5363TIP3   OH216045   5.748   1.641   5.161
 5363TIP3    H116046   5.751   1.711   5.095
 5363TIP3    H216047   5.655   1.620   5.169
 5364TIP3   OH216048   2.453   5.458   6.474
 5364TIP3    H116049   2.535   5.433   6.517
 5364TIP3    H216050   2.388   5.398   6.510
 5365TIP3   OH216051   4.933   4.759   5.479
 5365TIP3    H116052   4.865   4.815   5.518
 5365TIP3    H216053   4.887   4.711   5.410
 5366TIP3   OH216054   2.368   2.592   4.314
 5366TIP3    H116055   2.313   2.577   4.391
 5366TIP3    H216056   2.400   2.681   4.324
 5367TIP3   OH216057   5.291   4.642   6.224
 5367TIP3    H116058   5.301   4.613   6.133
 5367TIP3    H216059   5.361   4.706   6.237
 5368TIP3   OH216060   4.004   0.650   5.972
 5368TIP3    H116061   4.090   0.679   6.001
 5368TIP3    H216062   4.021   0.571   5.921
 5369TIP3   OH216063   4.047   4.646   0.888
 5369TIP3    H116064   4.027   4.690   0.971
 5369TIP3    H216065   4.140   4.664   0.874
 5370TIP3   OH216066   2.217   5.552   3.220
 5370TIP3    H116067   2.240   5.587   3.134
 5370TIP3    H216068   2.299   5.553   3.269
 5371TIP3   OH216069   0.943   6.737   3.034
 5371TIP3    H116070   0.857   6.770   3.009
 5371TIP3    H216071   0.952   6.762   3.126
 5372TIP3   OH216072   7.025   0.985   6.370
 5372TIP3    H116073   7.089   1.024   6.311
 5372TIP3    H216074   6.941   0.999   6.327
 5373TIP3   OH216075   0.095   5.976   3.731
 5373TIP3    H116076   0.021   5.932   3.688
 5373TIP3    H216077   0.054   6.039   3.790
 5374TIP3   OH216078   5.545   3.196   4.727
 5374TIP3    H116079   5.630   3.230   4.699
 5374TIP3    H216080   5.481   3.243   4.673
 5375TIP3   OH216081   3.721   2.242   1.496
 5375TIP3    H116082   3.706   2.321   1.444
 5375TIP3    H216083   3.779   2.189   1.443
 5376TIP3   OH216084   7.486   1.087   2.963
 5376TIP3    H116085   7.579   1.087   2.986
 5376TIP3    H216086   7.463   0.994   2.956
 5377TIP3   OH216087   5.479   3.346   0.203
 5377TIP3    H116088   5.538   3.280   0.239
 5377TIP3    H216089   5.493   3.342   0.108
 5378TIP3   OH216090   8.223   3.588   6.288
 5378TIP3    H116091   8.255   3.536   6.362
 5378TIP3    H216092   8.287   3.573   6.218
 5379TIP3   OH216093   6.340   0.549   5.969
 5379TIP3    H116094   6.394   0.628   5.978
 5379TIP3    H216095   6.403   0.477   5.968
 5380TIP3   OH216096   0.148   4.443   2.353
 5380TIP3    H116097   0.056   4.445   2.381
 5380TIP3    H216098   0.143   4.428   2.258
 5381TIP3   OH216099   1.266   3.813   6.240
 5381TIP3    H116100   1.191   3.870   6.226
 5381TIP3    H216101   1.307   3.806   6.154
 5382TIP3   OH216102   1.263   6.076   2.677
 5382TIP3    H116103   1.256   6.080   2.582
 5382TIP3    H216104   1.246   6.166   2.706
 5383TIP3   OH216105   2.343   5.368   4.882
 5383TIP3    H116106   2.319   5.339   4.970
 5383TIP3    H216107   2.264   5.353   4.830
 5384TIP3   OH216108   3.418   3.536   0.045
 5384TIP3    H116109   3.409   3.589  -0.034
 5384TIP3    H216110   3.337   3.551   0.093
 5385TIP3   OH216111   4.457   7.310   2.143
 5385TIP3    H116112   4.405   7.362   2.204
 5385TIP3    H216113   4.537   7.288   2.191
 5386TIP3   OH216114   4.908   3.351   6.103
 5386TIP3    H116115   4.886   3.275   6.049
 5386TIP3    H216116   4.837   3.414   6.086
 5387TIP3   OH216117   0.682   2.483   0.238
 5387TIP3    H116118   0.761   2.451   0.281
 5387TIP3    H216119   0.691   2.579   0.240
 5388TIP3   OH216120   5.582   3.774   1.831
 5388TIP3    H116121   5.673   3.768   1.859
 5388TIP3    H216122   5.579   3.724   1.749
 5389TIP3   OH216123   2.844   3.672   5.243
 5389TIP3    H116124   2.915   3.684   5.180
 5389TIP3    H216125   2.857   3.583   5.277
 5390TIP3   OH216126   6.266   5.220   6.157
 5390TIP3    H116127   6.336   5.162   6.127
 5390TIP3    H216128   6.311   5.301   6.182
 5391TIP3   OH216129   6.825   4.847   1.059
 5391TIP3    H116130   6.864   4.919   1.009
 5391TIP3    H216131   6.889   4.826   1.126
 5392TIP3   OH216132   5.790   3.077   6.405
 5392TIP3    H116133   5.765   3.099   6.495
 5392TIP3    H216134   5.811   3.161   6.365
 5393TIP3   OH216135   6.428   6.900   0.100
 5393TIP3    H116136   6.473   6.901   0.184
 5393TIP3    H216137   6.364   6.830   0.108
 5394TIP3   OH216138   3.756   3.489   4.725
 5394TIP3    H116139   3.850   3.503   4.732
 5394TIP3    H216140   3.742   3.466   4.633
 5395TIP3   OH216141   7.109   6.615  -0.019
 5395TIP3    H116142   7.189   6.565  -0.033
 5395TIP3    H216143   7.100   6.621   0.076
 5396TIP3   OH216144   6.910   4.878   5.847
 5396TIP3    H116145   6.837   4.929   5.881
 5396TIP3    H216146   6.988   4.919   5.885
 5397TIP3   OH216147   3.392   1.221   0.341
 5397TIP3    H116148   3.480   1.253   0.322
 5397TIP3    H216149   3.344   1.230   0.259
 5398TIP3   OH216150   3.100   2.076   5.869
 5398TIP3    H116151   3.036   2.011   5.839
 5398TIP3    H216152   3.159   2.087   5.795
 5399TIP3   OH216153   1.895   3.304   1.237
 5399TIP3    H116154   1.932   3.223   1.203
 5399TIP3    H216155   1.913   3.301   1.331
 5400TIP3   OH216156   7.603   2.957   2.698
 5400TIP3    H116157   7.651   3.000   2.768
 5400TIP3    H216158   7.558   3.028   2.652
 5401TIP3   OH216159   3.266   4.537   4.823
 5401TIP3    H116160   3.228   4.602   4.882
 5401TIP3    H216161   3.236   4.453   4.857
 5402TIP3   OH216162   7.597   7.036   1.006
 5402TIP3    H116163   7.693   7.038   1.006
 5402TIP3    H216164   7.574   7.015   0.915
 5403TIP3   OH216165   4.154   0.090   6.459
 5403TIP3    H116166   4.085   0.155   6.444
 5403TIP3    H216167   4.121   0.036   6.531
 5404TIP3   OH216168   6.463   5.172   0.231
 5404TIP3    H116169   6.549   5.214   0.236
 5404TIP3    H216170   6.463   5.128   0.146
 5405TIP3   OH216171   3.149   3.742   2.382
 5405TIP3    H116172   3.183   3.818   2.336
 5405TIP3    H216173   3.063   3.770   2.415
 5406TIP3   OH216174   4.083   4.280   5.096
 5406TIP3    H116175   4.156   4.240   5.143
 5406TIP3    H216176   4.104   4.373   5.092
 5407TIP3   OH216177   0.423   3.197   5.543
 5407TIP3    H116178   0.515   3.216   5.525
 5407TIP3    H216179   0.377   3.227   5.465
 5408TIP3   OH216180   3.350   5.390   6.157
 5408TIP3    H116181   3.385   5.444   6.086
 5408TIP3    H216182   3.322   5.309   6.114
 5409TIP3   OH216183   6.575   1.853   3.129
 5409TIP3    H116184   6.665   1.845   3.160
 5409TIP3    H216185   6.530   1.777   3.167
 5410TIP3   OH216186   6.017   0.418   5.088
 5410TIP3    H116187   6.092   0.405   5.146
 5410TIP3    H216188   5.996   0.331   5.056
 5411TIP3   OH216189   4.949   6.690   5.004
 5411TIP3    H116190   4.886   6.712   5.072
 5411TIP3    H216191   4.896   6.659   4.930
 5412TIP3   OH216192   1.247   7.410   1.835
 5412TIP3    H116193   1.171   7.353   1.843
 5412TIP3    H216194   1.221   7.477   1.772
 5413TIP3   OH216195   4.149   0.467   5.259
 5413TIP3    H116196   4.153   0.387   5.310
 5413TIP3    H216197   4.170   0.440   5.170
 5414TIP3   OH216198   3.809   1.974   0.743
 5414TIP3    H116199   3.812   2.070   0.741
 5414TIP3    H216200   3.831   1.948   0.653
 5415TIP3   OH216201   1.691   6.971   6.540
 5415TIP3    H116202   1.637   7.048   6.528
 5415TIP3    H216203   1.730   6.954   6.454
 5416TIP3   OH216204   4.107   3.367   3.622
 5416TIP3    H116205   4.142   3.441   3.573
 5416TIP3    H216206   4.178   3.302   3.623
 5417TIP3   OH216207   1.368   5.813   1.482
 5417TIP3    H116208   1.462   5.826   1.475
 5417TIP3    H216209   1.335   5.818   1.393
 5418TIP3   OH216210   5.997   0.269   4.519
 5418TIP3    H116211   5.992   0.268   4.424
 5418TIP3    H216212   5.937   0.199   4.547
 5419TIP3   OH216213   1.158   7.309   0.169
 5419TIP3    H116214   1.178   7.281   0.258
 5419TIP3    H216215   1.076   7.358   0.176
 5420TIP3   OH216216   2.734   2.685   0.901
 5420TIP3    H116217   2.698   2.682   0.812
 5420TIP3    H216218   2.760   2.595   0.920
 5421TIP3   OH216219   8.006   5.022   5.795
 5421TIP3    H116220   7.968   5.005   5.881
 5421TIP3    H216221   8.019   5.116   5.792
 5422TIP3   OH216222   4.794   5.460   1.912
 5422TIP3    H116223   4.886   5.488   1.917
 5422TIP3    H216224   4.799   5.369   1.884
 5423TIP3   OH216225   7.732   3.612   2.804
 5423TIP3    H116226   7.726   3.663   2.885
 5423TIP3    H216227   7.812   3.560   2.814
 5424TIP3   OH216228   2.282   2.402   0.917
 5424TIP3    H116229   2.321   2.435   0.999
 5424TIP3    H216230   2.254   2.481   0.871
 5425TIP3   OH216231   6.240   1.484   2.212
 5425TIP3    H116232   6.327   1.525   2.215
 5425TIP3    H216233   6.221   1.464   2.304
 5426TIP3   OH216234   7.460   1.708   2.889
 5426TIP3    H116235   7.427   1.654   2.960
 5426TIP3    H216236   7.555   1.698   2.894
 5427TIP3   OH216237   5.810   2.282   0.706
 5427TIP3    H116238   5.895   2.312   0.739
 5427TIP3    H216239   5.757   2.361   0.702
 5428TIP3   OH216240   4.910   3.127   6.477
 5428TIP3    H116241   4.922   3.194   6.544
 5428TIP3    H216242   4.826   3.086   6.498
 5429TIP3   OH216243   1.519   6.293   1.650
 5429TIP3    H116244   1.517   6.364   1.715
 5429TIP3    H216245   1.448   6.234   1.676
 5430TIP3   OH216246   6.763   0.685   3.873
 5430TIP3    H116247   6.696   0.750   3.853
 5430TIP3    H216248   6.843   0.720   3.835
 5431TIP3   OH216249   3.792   2.016   5.313
 5431TIP3    H116250   3.783   2.081   5.382
 5431TIP3    H216251   3.880   2.029   5.278
 5432TIP3   OH216252   5.549   2.022   3.885
 5432TIP3    H116253   5.500   2.097   3.854
 5432TIP3    H216254   5.483   1.958   3.910
 5433TIP3   OH216255   5.105   5.137   2.381
 5433TIP3    H116256   5.116   5.197   2.454
 5433TIP3    H216257   5.024   5.090   2.400
 5434TIP3   OH216258   6.137   5.917   0.993
 5434TIP3    H116259   6.163   5.871   1.073
 5434TIP3    H216260   6.219   5.954   0.959
 5435TIP3   OH216261   5.184   4.374   4.624
 5435TIP3    H116262   5.195   4.467   4.601
 5435TIP3    H216263   5.271   4.346   4.650
 5436TIP3   OH216264   6.345   5.278   2.993
 5436TIP3    H116265   6.357   5.219   3.068
 5436TIP3    H216266   6.334   5.364   3.031
 5437TIP3   OH216267   5.538   5.061   3.566
 5437TIP3    H116268   5.515   4.974   3.599
 5437TIP3    H216269   5.585   5.044   3.485
 5438TIP3   OH216270   6.956   5.770   5.955
 5438TIP3    H116271   6.864   5.755   5.932
 5438TIP3    H216272   6.954   5.788   6.049
 5439TIP3   OH216273   1.949   0.591   0.452
 5439TIP3    H116274   1.879   0.580   0.516
 5439TIP3    H216275   1.966   0.502   0.420
 5440TIP3   OH216276   3.271   2.415   2.683
 5440TIP3    H116277   3.281   2.408   2.778
 5440TIP3    H216278   3.259   2.325   2.653
 5441TIP3   OH216279   7.250   3.600   5.786
 5441TIP3    H116280   7.212   3.516   5.812
 5441TIP3    H216281   7.276   3.589   5.695
 5442TIP3   OH216282   1.959   7.356   1.089
 5442TIP3    H116283   1.954   7.392   1.177
 5442TIP3    H216284   1.958   7.262   1.100
 5443TIP3   OH216285   1.859   6.720   4.875
 5443TIP3    H116286   1.954   6.709   4.863
 5443TIP3    H216287   1.820   6.648   4.827
 5444TIP3   OH216288   0.245   6.193   2.665
 5444TIP3    H116289   0.255   6.288   2.670
 5444TIP3    H216290   0.173   6.180   2.603
 5445TIP3   OH216291   8.111   5.491   3.441
 5445TIP3    H116292   8.179   5.556   3.458
 5445TIP3    H216293   8.079   5.511   3.353
 5446TIP3   OH216294   2.447   5.953   0.677
 5446TIP3    H116295   2.459   5.986   0.588
 5446TIP3    H216296   2.400   6.022   0.723
 5447TIP3   OH216297   0.276   1.192   4.574
 5447TIP3    H116298   0.323   1.223   4.497
 5447TIP3    H216299   0.345   1.178   4.640
 5448TIP3   OH216300   0.101   5.448   4.071
 5448TIP3    H116301   0.062   5.502   4.003
 5448TIP3    H216302   0.063   5.481   4.153
 5449TIP3   OH216303   1.156   0.229   1.214
 5449TIP3    H116304   1.082   0.172   1.235
 5449TIP3    H216305   1.134   0.313   1.254
 5450TIP3   OH216306   8.263   4.708   5.005
 5450TIP3    H116307   8.265   4.746   4.917
 5450TIP3    H216308   8.332   4.642   5.004
 5451TIP3   OH216309   7.205   4.188   5.909
 5451TIP3    H116310   7.235   4.244   5.837
 5451TIP3    H216311   7.200   4.100   5.870
 5452TIP3   OH216312   1.528   1.741   5.435
 5452TIP3    H116313   1.528   1.788   5.352
 5452TIP3    H216314   1.602   1.680   5.428
 5453TIP3   OH216315   0.482   2.670   3.519
 5453TIP3    H116316   0.544   2.598   3.532
 5453TIP3    H216317   0.406   2.647   3.573
 5454TIP3   OH216318   7.226   0.329   5.730
 5454TIP3    H116319   7.268   0.251   5.696
 5454TIP3    H216320   7.255   0.335   5.821
 5455TIP3   OH216321   2.283   7.256   3.450
 5455TIP3    H116322   2.280   7.175   3.501
 5455TIP3    H216323   2.199   7.260   3.406
 5456TIP3   OH216324   7.411   3.063   1.337
 5456TIP3    H116325   7.342   3.128   1.351
 5456TIP3    H216326   7.429   3.028   1.424
 5457TIP3   OH216327   4.635   5.579   4.556
 5457TIP3    H116328   4.542   5.558   4.550
 5457TIP3    H216329   4.654   5.579   4.650
 5458TIP3   OH216330   6.879   0.272   4.121
 5458TIP3    H116331   6.923   0.354   4.100
 5458TIP3    H216332   6.791   0.281   4.083
 5459TIP3   OH216333   2.378   1.927   2.907
 5459TIP3    H116334   2.355   1.904   2.997
 5459TIP3    H216335   2.470   1.904   2.899
 5460TIP3   OH216336   4.373   7.730   5.233
 5460TIP3    H116337   4.377   7.678   5.152
 5460TIP3    H216338   4.300   7.693   5.282
 5461TIP3   OH216339   7.153   4.895   2.688
 5461TIP3    H116340   7.163   4.801   2.674
 5461TIP3    H216341   7.087   4.923   2.625
 5462TIP3   OH216342   0.896   5.276   2.487
 5462TIP3    H116343   0.880   5.354   2.540
 5462TIP3    H216344   0.939   5.215   2.546
 5463TIP3   OH216345   4.718   4.373   2.571
 5463TIP3    H116346   4.793   4.340   2.620
 5463TIP3    H216347   4.646   4.316   2.597
 5464TIP3   OH216348   1.537   1.302   3.270
 5464TIP3    H116349   1.511   1.213   3.247
 5464TIP3    H216350   1.625   1.292   3.308
 5465TIP3   OH216351   8.282   2.589   4.225
 5465TIP3    H116352   8.295   2.596   4.130
 5465TIP3    H216353   8.366   2.559   4.259
 5466TIP3   OH216354   8.103   3.797   4.030
 5466TIP3    H116355   8.177   3.741   4.055
 5466TIP3    H216356   8.053   3.743   3.968
 5467TIP3   OH216357   6.003   6.004   1.516
 5467TIP3    H116358   6.066   6.036   1.580
 5467TIP3    H216359   6.010   5.909   1.521
 5468TIP3   OH216360   7.934   0.592   5.650
 5468TIP3    H116361   7.864   0.570   5.589
 5468TIP3    H216362   7.960   0.508   5.688
 5469TIP3   OH216363   4.663   1.058   6.107
 5469TIP3    H116364   4.705   1.070   6.023
 5469TIP3    H216365   4.569   1.057   6.087
 5470TIP3   OH216366   5.184   4.016   2.674
 5470TIP3    H116367   5.261   4.000   2.620
 5470TIP3    H216368   5.217   4.064   2.750
 5471TIP3   OH216369   6.420   4.698   6.674
 5471TIP3    H116370   6.411   4.603   6.675
 5471TIP3    H216371   6.414   4.724   6.766
 5472TIP3   OH216372   1.721   1.334   5.405
 5472TIP3    H116373   1.638   1.375   5.430
 5472TIP3    H216374   1.772   1.333   5.486
 5473TIP3   OH216375   2.438   7.251   6.543
 5473TIP3    H116376   2.474   7.164   6.561
 5473TIP3    H216377   2.346   7.235   6.521
 5474TIP3   OH216378   6.023   1.980   3.724
 5474TIP3    H116379   6.026   2.020   3.637
 5474TIP3    H216380   6.031   2.053   3.785
 5475TIP3   OH216381   4.257   7.319   5.958
 5475TIP3    H116382   4.350   7.297   5.949
 5475TIP3    H216383   4.213   7.268   5.890
 5476TIP3   OH216384   1.878   7.172   5.173
 5476TIP3    H116385   1.816   7.222   5.119
 5476TIP3    H216386   1.866   7.081   5.144
 5477TIP3   OH216387   5.530   1.674   0.009
 5477TIP3    H116388   5.594   1.613   0.047
 5477TIP3    H216389   5.490   1.716   0.085
 5478TIP3   OH216390   0.329   3.868   4.347
 5478TIP3    H116391   0.377   3.907   4.420
 5478TIP3    H216392   0.261   3.932   4.326
 5479TIP3   OH216393   3.219   2.242   2.151
 5479TIP3    H116394   3.213   2.249   2.247
 5479TIP3    H216395   3.173   2.319   2.118
 5480TIP3   OH216396   5.946   4.638   2.327
 5480TIP3    H116397   5.966   4.730   2.311
 5480TIP3    H216398   5.919   4.604   2.242
 5481TIP3   OH216399   4.468   4.984   5.728
 5481TIP3    H116400   4.430   4.924   5.792
 5481TIP3    H216401   4.491   5.062   5.779
 5482TIP3   OH216402   2.059   5.887   5.472
 5482TIP3    H116403   2.008   5.835   5.411
 5482TIP3    H216404   2.140   5.838   5.483
 5483TIP3   OH216405   3.635   5.855   3.290
 5483TIP3    H116406   3.558   5.899   3.329
 5483TIP3    H216407   3.598   5.780   3.243
 5484TIP3   OH216408   0.685   1.970   5.807
 5484TIP3    H116409   0.682   1.905   5.737
 5484TIP3    H216410   0.665   1.921   5.887
 5485TIP3   OH216411   1.634   2.128   3.600
 5485TIP3    H116412   1.605   2.170   3.519
 5485TIP3    H216413   1.713   2.175   3.624
 5486TIP3   OH216414   3.523   7.092   0.958
 5486TIP3    H116415   3.524   7.178   1.002
 5486TIP3    H216416   3.522   7.029   1.030
 5487TIP3   OH216417   6.266   6.389   3.311
 5487TIP3    H116418   6.187   6.424   3.269
 5487TIP3    H216419   6.325   6.368   3.239
 5488TIP3   OH216420   2.997   5.263   6.228
 5488TIP3    H116421   3.042   5.185   6.260
 5488TIP3    H216422   3.013   5.263   6.134
 5489TIP3   OH216423   8.163   7.403   4.316
 5489TIP3    H116424   8.110   7.342   4.266
 5489TIP3    H216425   8.242   7.354   4.338
 5490TIP3   OH216426   2.341   5.366   6.710
 5490TIP3    H116427   2.403   5.304   6.671
 5490TIP3    H216428   2.268   5.312   6.740
 5491TIP3   OH216429   6.483   2.711   6.026
 5491TIP3    H116430   6.414   2.756   5.978
 5491TIP3    H216431   6.564   2.750   5.994
 5492TIP3   OH216432   0.814   2.434   5.724
 5492TIP3    H116433   0.818   2.339   5.740
 5492TIP3    H216434   0.905   2.463   5.734
 5493TIP3   OH216435   8.081   2.398   3.468
 5493TIP3    H116436   7.985   2.401   3.472
 5493TIP3    H216437   8.100   2.359   3.383
 5494TIP3   OH216438   7.949   6.905   1.189
 5494TIP3    H116439   7.944   6.894   1.094
 5494TIP3    H216440   7.865   6.942   1.214
 5495TIP3   OH216441   1.985   4.123   2.882
 5495TIP3    H116442   1.993   4.129   2.787
 5495TIP3    H216443   2.075   4.117   2.914
 5496TIP3   OH216444   2.332   6.899   2.345
 5496TIP3    H116445   2.259   6.928   2.291
 5496TIP3    H216446   2.363   6.818   2.304
 5497TIP3   OH216447   7.967   0.442   1.093
 5497TIP3    H116448   7.872   0.434   1.092
 5497TIP3    H216449   7.986   0.487   1.175
 5498TIP3   OH216450   1.481   5.788   2.569
 5498TIP3    H116451   1.544   5.717   2.558
 5498TIP3    H216452   1.532   5.860   2.606
 5499TIP3   OH216453   0.324   2.693   0.042
 5499TIP3    H116454   0.360   2.747   0.111
 5499TIP3    H216455   0.335   2.603   0.073
 5500TIP3   OH216456   7.356   5.035   3.584
 5500TIP3    H116457   7.336   5.036   3.678
 5500TIP3    H216458   7.370   5.127   3.561
 5501TIP3   OH216459   3.794   3.437   5.508
 5501TIP3    H116460   3.747   3.518   5.528
 5501TIP3    H216461   3.734   3.389   5.451
 5502TIP3   OH216462   6.836   2.845   6.459
 5502TIP3    H116463   6.855   2.901   6.534
 5502TIP3    H216464   6.740   2.841   6.456
 5503TIP3   OH216465   3.256   1.745   5.257
 5503TIP3    H116466   3.169   1.782   5.275
 5503TIP3    H216467   3.242   1.690   5.180
 5504TIP3   OH216468   4.077   2.540   3.352
 5504TIP3    H116469   4.001   2.484   3.334
 5504TIP3    H216470   4.050   2.593   3.427
 5505TIP3   OH216471   5.099   6.793   2.307
 5505TIP3    H116472   5.028   6.734   2.280
 5505TIP3    H216473   5.175   6.763   2.257
 5506TIP3   OH216474   8.045   2.950   5.731
 5506TIP3    H116475   8.062   2.985   5.819
 5506TIP3    H216476   8.099   2.871   5.727
 5507TIP3   OH216477   1.574   2.702   4.331
 5507TIP3    H116478   1.589   2.648   4.409
 5507TIP3    H216479   1.656   2.697   4.281
 5508TIP3   OH216480   7.802   1.745   4.687
 5508TIP3    H116481   7.866   1.746   4.758
 5508TIP3    H216482   7.718   1.759   4.731
 5509TIP3   OH216483   5.861   3.214   2.249
 5509TIP3    H116484   5.880   3.255   2.334
 5509TIP3    H216485   5.850   3.287   2.189
 5510TIP3   OH216486   4.172   5.287  -0.033
 5510TIP3    H116487   4.107   5.341   0.012
 5510TIP3    H216488   4.236   5.264   0.035
 5511TIP3   OH216489   0.642   7.492   3.944
 5511TIP3    H116490   0.673   7.406   3.915
 5511TIP3    H216491   0.557   7.475   3.984
 5512TIP3   OH216492   0.590   6.896   0.788
 5512TIP3    H116493   0.541   6.856   0.717
 5512TIP3    H216494   0.533   6.889   0.864
 5513TIP3   OH216495   0.186   1.090   2.497
 5513TIP3    H116496   0.240   1.161   2.532
 5513TIP3    H216497   0.100   1.101   2.537
 5514TIP3   OH216498   2.830   6.295   3.009
 5514TIP3    H116499   2.746   6.339   3.003
 5514TIP3    H216500   2.892   6.357   2.971
 5515TIP3   OH216501   5.373   4.845   2.946
 5515TIP3    H116502   5.342   4.825   3.035
 5515TIP3    H216503   5.318   4.918   2.918
 5516TIP3   OH216504   0.998   3.151   5.421
 5516TIP3    H116505   1.055   3.162   5.345
 5516TIP3    H216506   1.033   3.212   5.486
 5517TIP3   OH216507   7.630   2.968   4.611
 5517TIP3    H116508   7.701   3.009   4.561
 5517TIP3    H216509   7.589   2.907   4.550
 5518TIP3   OH216510   6.494   3.954   3.544
 5518TIP3    H116511   6.459   3.892   3.480
 5518TIP3    H216512   6.540   3.900   3.608
 5519TIP3   OH216513   7.750   0.772   6.564
 5519TIP3    H116514   7.842   0.800   6.558
 5519TIP3    H216515   7.744   0.728   6.649
 5520TIP3   OH216516   7.633   6.606   0.040
 5520TIP3    H116517   7.644   6.511   0.030
 5520TIP3    H216518   7.546   6.616   0.078
 5521TIP3   OH216519   7.916   1.030   5.918
 5521TIP3    H116520   7.881   0.976   5.847
 5521TIP3    H216521   7.850   1.099   5.929
 5522TIP3   OH216522   0.583   1.461   2.077
 5522TIP3    H116523   0.630   1.424   2.002
 5522TIP3    H216524   0.524   1.391   2.105
 5523TIP3   OH216525   6.828   1.876   0.014
 5523TIP3    H116526   6.888   1.946   0.040
 5523TIP3    H216527   6.741   1.907   0.040
 5524TIP3   OH216528   1.167   0.535   5.165
 5524TIP3    H116529   1.081   0.573   5.183
 5524TIP3    H216530   1.216   0.606   5.124
 5525TIP3   OH216531   3.882   3.432   5.209
 5525TIP3    H116532   3.951   3.367   5.211
 5525TIP3    H216533   3.878   3.466   5.299
 5526TIP3   OH216534   2.957   1.526   3.230
 5526TIP3    H116535   2.961   1.591   3.300
 5526TIP3    H216536   3.048   1.503   3.213
 5527TIP3   OH216537   6.175   5.810   3.701
 5527TIP3    H116538   6.180   5.754   3.623
 5527TIP3    H216539   6.226   5.763   3.768
 5528TIP3   OH216540   3.636   0.707   6.768
 5528TIP3    H116541   3.613   0.792   6.805
 5528TIP3    H216542   3.703   0.673   6.828
 5529TIP3   OH216543   1.930   1.230   3.687
 5529TIP3    H116544   1.961   1.145   3.719
 5529TIP3    H216545   1.880   1.266   3.760
 5530TIP3   OH216546   6.865   6.954   0.040
 5530TIP3    H116547   6.933   7.018   0.016
 5530TIP3    H216548   6.783   6.999   0.019
 5531TIP3   OH216549   7.388   4.960   3.319
 5531TIP3    H116550   7.385   5.001   3.405
 5531TIP3    H216551   7.357   4.871   3.333
 5532TIP3   OH216552   5.963   2.524   1.406
 5532TIP3    H116553   5.915   2.496   1.484
 5532TIP3    H216554   6.055   2.523   1.433
 5533TIP3   OH216555   1.519   5.554   2.089
 5533TIP3    H116556   1.551   5.464   2.087
 5533TIP3    H216557   1.594   5.606   2.117
 5534TIP3   OH216558   3.328   6.950   3.856
 5534TIP3    H116559   3.374   6.915   3.933
 5534TIP3    H216560   3.263   6.883   3.835
 5535TIP3   OH216561   7.696   1.926   1.611
 5535TIP3    H116562   7.622   1.924   1.551
 5535TIP3    H216563   7.697   2.015   1.646
 5536TIP3   OH216564   8.060   5.628   4.870
 5536TIP3    H116565   8.050   5.581   4.953
 5536TIP3    H216566   8.007   5.707   4.882
 5537TIP3   OH216567   1.283   1.675   5.023
 5537TIP3    H116568   1.227   1.612   4.978
 5537TIP3    H216569   1.226   1.750   5.038
 5538TIP3   OH216570   8.079   5.946   2.056
 5538TIP3    H116571   7.989   5.976   2.045
 5538TIP3    H216572   8.130   6.004   1.999
 5539TIP3   OH216573   4.527   4.250   4.287
 5539TIP3    H116574   4.528   4.345   4.298
 5539TIP3    H216575   4.619   4.223   4.298
 5540TIP3   OH216576   7.736   5.257   5.589
 5540TIP3    H116577   7.828   5.282   5.591
 5540TIP3    H216578   7.717   5.243   5.496
 5541TIP3   OH216579   1.239   3.223   5.779
 5541TIP3    H116580   1.305   3.220   5.848
 5541TIP3    H216581   1.156   3.208   5.824
 5542TIP3   OH216582   0.141   2.101   5.586
 5542TIP3    H116583   0.125   2.071   5.496
 5542TIP3    H216584   0.178   2.024   5.630
 5543TIP3   OH216585   5.526   1.210   3.847
 5543TIP3    H116586   5.510   1.303   3.865
 5543TIP3    H216587   5.458   1.186   3.784
 5544TIP3   OH216588   7.297   0.534   2.172
 5544TIP3    H116589   7.204   0.516   2.188
 5544TIP3    H216590   7.327   0.459   2.119
 5545TIP3   OH216591   4.481   6.940   0.144
 5545TIP3    H116592   4.551   6.996   0.179
 5545TIP3    H216593   4.526   6.860   0.116
 5546TIP3   OH216594   5.041   3.367   6.341
 5546TIP3    H116595   5.020   3.363   6.248
 5546TIP3    H216596   4.966   3.329   6.385
 5547TIP3   OH216597   5.778   5.824   1.495
 5547TIP3    H116598   5.770   5.730   1.510
 5547TIP3    H216599   5.829   5.832   1.415
 5548TIP3   OH216600   7.078   1.615   3.257
 5548TIP3    H116601   7.103   1.590   3.168
 5548TIP3    H216602   7.088   1.535   3.308
 5549TIP3   OH216603   3.223   2.066   3.553
 5549TIP3    H116604   3.204   2.151   3.592
 5549TIP3    H216605   3.250   2.011   3.627
 5550TIP3   OH216606   2.879   0.613   3.319
 5550TIP3    H116607   2.796   0.628   3.364
 5550TIP3    H216608   2.886   0.518   3.312
 5551TIP3   OH216609   4.529   4.174   2.618
 5551TIP3    H116610   4.557   4.082   2.624
 5551TIP3    H216611   4.448   4.171   2.569
 5552TIP3   OH216612   7.986   7.360   5.936
 5552TIP3    H116613   7.934   7.285   5.904
 5552TIP3    H216614   8.052   7.321   5.992
 5553TIP3   OH216615   4.495   1.236   5.087
 5553TIP3    H116616   4.565   1.185   5.046
 5553TIP3    H216617   4.418   1.179   5.082
 5554TIP3   OH216618   3.836   1.933   3.969
 5554TIP3    H116619   3.873   2.020   3.979
 5554TIP3    H216620   3.742   1.948   3.964
 5555TIP3   OH216621   7.222   6.835   4.872
 5555TIP3    H116622   7.274   6.838   4.792
 5555TIP3    H216623   7.164   6.760   4.861
 5556TIP3   OH216624   0.755   0.952   4.389
 5556TIP3    H116625   0.785   0.889   4.455
 5556TIP3    H216626   0.826   0.955   4.326
 5557TIP3   OH216627   5.177   0.979   5.037
 5557TIP3    H116628   5.177   0.885   5.018
 5557TIP3    H216629   5.089   0.997   5.070
 5558TIP3   OH216630   7.617   1.569   4.925
 5558TIP3    H116631   7.629   1.487   4.877
 5558TIP3    H216632   7.560   1.622   4.870
 5559TIP3   OH216633   4.392   0.452   1.079
 5559TIP3    H116634   4.307   0.422   1.047
 5559TIP3    H216635   4.420   0.518   1.015
 5560TIP3   OH216636   7.404   4.948   4.874
 5560TIP3    H116637   7.496   4.968   4.858
 5560TIP3    H216638   7.383   4.880   4.809
 5561TIP3   OH216639   2.710   6.350   6.574
 5561TIP3    H116640   2.767   6.280   6.607
 5561TIP3    H216641   2.686   6.321   6.486
 5562TIP3   OH216642   0.694   4.299   2.677
 5562TIP3    H116643   0.746   4.373   2.709
 5562TIP3    H216644   0.688   4.313   2.583
 5563TIP3   OH216645   3.762   7.167   4.722
 5563TIP3    H116646   3.784   7.114   4.645
 5563TIP3    H216647   3.809   7.249   4.708
 5564TIP3   OH216648   0.317   2.339   6.497
 5564TIP3    H116649   0.314   2.426   6.537
 5564TIP3    H216650   0.225   2.316   6.482
 5565TIP3   OH216651   7.308   7.580   3.465
 5565TIP3    H116652   7.266   7.613   3.545
 5565TIP3    H216653   7.316   7.486   3.479
 5566TIP3   OH216654   2.235   6.633   4.077
 5566TIP3    H116655   2.221   6.720   4.039
 5566TIP3    H216656   2.323   6.608   4.047
 5567TIP3   OH216657   7.794   4.251   1.533
 5567TIP3    H116658   7.783   4.308   1.609
 5567TIP3    H216659   7.888   4.245   1.521
 5568TIP3   OH216660   7.618   1.570   1.012
 5568TIP3    H116661   7.693   1.513   1.029
 5568TIP3    H216662   7.551   1.511   0.978
 5569TIP3   OH216663   1.282   7.185   1.074
 5569TIP3    H116664   1.251   7.185   1.165
 5569TIP3    H216665   1.240   7.261   1.034
 5570TIP3   OH216666   0.004   5.317   5.653
 5570TIP3    H116667  -0.029   5.384   5.593
 5570TIP3    H216668   0.026   5.243   5.596
 5571TIP3   OH216669   3.670   1.829   0.274
 5571TIP3    H116670   3.748   1.883   0.289
 5571TIP3    H216671   3.599   1.878   0.315
 5572TIP3   OH216672   0.464   0.071   0.110
 5572TIP3    H116673   0.526   0.140   0.134
 5572TIP3    H216674   0.514   0.013   0.054
 5573TIP3   OH216675   4.226   2.724   5.531
 5573TIP3    H116676   4.188   2.636   5.536
 5573TIP3    H216677   4.166   2.779   5.582
 5574TIP3   OH216678   2.009   2.119   4.981
 5574TIP3    H116679   1.978   2.069   4.905
 5574TIP3    H216680   2.029   2.206   4.946
 5575TIP3   OH216681   5.007   0.082   4.618
 5575TIP3    H116682   5.078   0.110   4.560
 5575TIP3    H216683   5.030  -0.008   4.642
 5576TIP3   OH216684   3.818   6.831   5.895
 5576TIP3    H116685   3.868   6.905   5.860
 5576TIP3    H216686   3.741   6.825   5.839
 5577TIP3   OH216687   0.971   3.702   6.388
 5577TIP3    H116688   0.895   3.698   6.447
 5577TIP3    H216689   1.045   3.723   6.446
 5578TIP3   OH216690   7.378   3.212   4.979
 5578TIP3    H116691   7.290   3.221   5.016
 5578TIP3    H216692   7.409   3.128   5.013
 5579TIP3   OH216693   3.862   1.731   3.765
 5579TIP3    H116694   3.827   1.803   3.817
 5579TIP3    H216695   3.894   1.668   3.829
 5580TIP3   OH216696   2.683   4.805   6.388
 5580TIP3    H116697   2.774   4.785   6.367
 5580TIP3    H216698   2.646   4.839   6.307
 5581TIP3   OH216699   2.579   0.426   0.344
 5581TIP3    H116700   2.497   0.468   0.320
 5581TIP3    H216701   2.637   0.440   0.269
 5582TIP3   OH216702   5.868   1.274   0.260
 5582TIP3    H116703   5.869   1.360   0.302
 5582TIP3    H216704   5.784   1.236   0.286
 5583TIP3   OH216705   5.341   0.965   5.558
 5583TIP3    H116706   5.354   1.060   5.549
 5583TIP3    H216707   5.406   0.938   5.622
 5584TIP3   OH216708   3.275   0.726   3.296
 5584TIP3    H116709   3.229   0.762   3.220
 5584TIP3    H216710   3.325   0.799   3.331
 5585TIP3   OH216711   5.430   0.106   0.727
 5585TIP3    H116712   5.444   0.024   0.679
 5585TIP3    H216713   5.345   0.138   0.696
 5586TIP3   OH216714   0.488   6.117   2.514
 5586TIP3    H116715   0.420   6.153   2.571
 5586TIP3    H216716   0.468   6.023   2.510
 5587TIP3   OH216717   5.836   4.352   4.754
 5587TIP3    H116718   5.919   4.348   4.800
 5587TIP3    H216719   5.770   4.358   4.823
 5588TIP3   OH216720   7.003   0.604   1.781
 5588TIP3    H116721   7.080   0.560   1.743
 5588TIP3    H216722   7.036   0.648   1.859
 5589TIP3   OH216723   3.863   2.424   4.416
 5589TIP3    H116724   3.902   2.512   4.416
 5589TIP3    H216725   3.769   2.440   4.411
 5590TIP3   OH216726   2.383   0.088   6.276
 5590TIP3    H116727   2.288   0.083   6.288
 5590TIP3    H216728   2.412   0.153   6.341
 5591TIP3   OH216729   7.031   2.908   0.515
 5591TIP3    H116730   7.116   2.943   0.489
 5591TIP3    H216731   6.989   2.885   0.432
 5592TIP3   OH216732   8.168   3.220   6.129
 5592TIP3    H116733   8.171   3.160   6.205
 5592TIP3    H216734   8.255   3.212   6.090
 5593TIP3   OH216735   2.791   4.296   5.240
 5593TIP3    H116736   2.823   4.206   5.232
 5593TIP3    H216737   2.731   4.306   5.166
 5594TIP3   OH216738   6.243   3.222   4.585
 5594TIP3    H116739   6.176   3.211   4.516
 5594TIP3    H216740   6.194   3.211   4.667
 5595TIP3   OH216741   2.837   2.557   1.721
 5595TIP3    H116742   2.817   2.626   1.784
 5595TIP3    H216743   2.881   2.602   1.649
 5596TIP3   OH216744   7.354   6.348   4.240
 5596TIP3    H116745   7.415   6.275   4.251
 5596TIP3    H216746   7.321   6.364   4.329
 5597TIP3   OH216747   1.709   7.309   4.202
 5597TIP3    H116748   1.735   7.230   4.250
 5597TIP3    H216749   1.768   7.377   4.234
 5598TIP3   OH216750   0.438   7.256   3.556
 5598TIP3    H116751   0.454   7.298   3.471
 5598TIP3    H216752   0.409   7.168   3.534
 5599TIP3   OH216753   1.821   6.898   4.541
 5599TIP3    H116754   1.766   6.939   4.608
 5599TIP3    H216755   1.901   6.873   4.587
 5600TIP3   OH216756   6.123   5.237   1.944
 5600TIP3    H116757   6.085   5.260   2.029
 5600TIP3    H216758   6.206   5.195   1.966
 5601TIP3   OH216759   3.710   3.370   5.775
 5601TIP3    H116760   3.643   3.320   5.729
 5601TIP3    H216761   3.774   3.393   5.708
 5602TIP3   OH216762   3.315   0.746   2.060
 5602TIP3    H116763   3.384   0.687   2.029
 5602TIP3    H216764   3.255   0.690   2.109
 5603TIP3   OH216765   4.450   1.219   1.509
 5603TIP3    H116766   4.388   1.234   1.580
 5603TIP3    H216767   4.415   1.270   1.436
 5604TIP3   OH216768   6.458   5.692   1.934
 5604TIP3    H116769   6.406   5.748   1.877
 5604TIP3    H216770   6.406   5.683   2.014
 5605TIP3   OH216771   2.887   0.891   1.196
 5605TIP3    H116772   2.857   0.874   1.107
 5605TIP3    H216773   2.977   0.920   1.186
 5606TIP3   OH216774   5.467   1.180   2.769
 5606TIP3    H116775   5.475   1.252   2.832
 5606TIP3    H216776   5.521   1.207   2.695
 5607TIP3   OH216777   4.206   5.295   5.845
 5607TIP3    H116778   4.157   5.366   5.803
 5607TIP3    H216779   4.193   5.220   5.787
 5608TIP3   OH216780   4.442   1.578   6.380
 5608TIP3    H116781   4.373   1.631   6.342
 5608TIP3    H216782   4.497   1.640   6.428
 5609TIP3   OH216783   1.964   6.697   1.426
 5609TIP3    H116784   1.942   6.690   1.333
 5609TIP3    H216785   1.882   6.723   1.467
 5610TIP3   OH216786   6.485   6.449   2.438
 5610TIP3    H116787   6.573   6.434   2.403
 5610TIP3    H216788   6.458   6.364   2.472
 5611TIP3   OH216789   2.052   7.191   4.569
 5611TIP3    H116790   2.087   7.172   4.482
 5611TIP3    H216791   1.977   7.248   4.552
 5612TIP3   OH216792   5.067   6.877   5.922
 5612TIP3    H116793   4.978   6.864   5.954
 5612TIP3    H216794   5.101   6.949   5.974
 5613TIP3   OH216795   6.944   1.684   4.216
 5613TIP3    H116796   6.895   1.666   4.136
 5613TIP3    H216797   6.882   1.669   4.287
 5614TIP3   OH216798   2.933   7.795   2.990
 5614TIP3    H116799   2.846   7.787   2.952
 5614TIP3    H216800   2.918   7.809   3.083
 5615TIP3   OH216801   0.455   2.162   2.740
 5615TIP3    H116802   0.509   2.086   2.717
 5615TIP3    H216803   0.518   2.232   2.753
 5616TIP3   OH216804   0.071   6.536   3.760
 5616TIP3    H116805   0.115   6.621   3.755
 5616TIP3    H216806   0.043   6.529   3.852
 5617TIP3   OH216807   4.025   5.075   3.723
 5617TIP3    H116808   3.983   4.989   3.730
 5617TIP3    H216809   4.119   5.055   3.719
 5618TIP3   OH216810   6.756   0.515   1.933
 5618TIP3    H116811   6.761   0.593   1.989
 5618TIP3    H216812   6.786   0.545   1.847
 5619TIP3   OH216813   7.827   7.097   3.565
 5619TIP3    H116814   7.868   7.171   3.610
 5619TIP3    H216815   7.896   7.064   3.507
 5620TIP3   OH216816   5.063   1.453   2.829
 5620TIP3    H116817   5.104   1.368   2.814
 5620TIP3    H216818   4.977   1.432   2.866
 5621TIP3   OH216819   1.153   5.752   3.141
 5621TIP3    H116820   1.081   5.699   3.109
 5621TIP3    H216821   1.173   5.812   3.070
 5622TIP3   OH216822   1.097   7.404   3.896
 5622TIP3    H116823   1.190   7.424   3.884
 5622TIP3    H216824   1.089   7.380   3.988
 5623TIP3   OH216825   2.370   6.990   4.808
 5623TIP3    H116826   2.349   7.072   4.854
 5623TIP3    H216827   2.462   6.975   4.827
 5624TIP3   OH216828   6.090   4.504   5.781
 5624TIP3    H116829   6.131   4.440   5.722
 5624TIP3    H216830   6.142   4.498   5.861
 5625TIP3   OH216831   6.780   6.919   5.841
 5625TIP3    H116832   6.833   6.846   5.874
 5625TIP3    H216833   6.809   6.994   5.892
 5626TIP3   OH216834   7.601   4.608   4.380
 5626TIP3    H116835   7.609   4.659   4.461
 5626TIP3    H216836   7.557   4.667   4.319
 5627TIP3   OH216837   6.618   4.748   3.675
 5627TIP3    H116838   6.621   4.767   3.581
 5627TIP3    H216839   6.696   4.695   3.692
 5628TIP3   OH216840   5.189   3.380   1.201
 5628TIP3    H116841   5.141   3.302   1.230
 5628TIP3    H216842   5.157   3.396   1.113
 5629TIP3   OH216843   6.585   0.922   3.817
 5629TIP3    H116844   6.608   0.991   3.879
 5629TIP3    H216845   6.588   0.964   3.731
 5630TIP3   OH216846   3.886   3.134   6.171
 5630TIP3    H116847   3.927   3.072   6.232
 5630TIP3    H216848   3.849   3.202   6.227
 5631TIP3   OH216849   5.171   3.411   4.178
 5631TIP3    H116850   5.093   3.461   4.153
 5631TIP3    H216851   5.159   3.393   4.272
 5632TIP3   OH216852   5.150   3.299   5.402
 5632TIP3    H116853   5.058   3.288   5.426
 5632TIP3    H216854   5.161   3.242   5.326
 5633TIP3   OH216855   2.934   0.145   4.735
 5633TIP3    H116856   2.938   0.201   4.813
 5633TIP3    H216857   2.905   0.060   4.769
 5634TIP3   OH216858   0.640   5.655   4.276
 5634TIP3    H116859   0.586   5.684   4.203
 5634TIP3    H216860   0.594   5.579   4.311
 5635TIP3   OH216861   3.930   0.075   1.094
 5635TIP3    H116862   3.970   0.120   1.168
 5635TIP3    H216863   3.837   0.070   1.117
 5636TIP3   OH216864   2.816   0.665   5.373
 5636TIP3    H116865   2.788   0.582   5.336
 5636TIP3    H216866   2.735   0.708   5.400
 5637TIP3   OH216867   5.162   4.593   5.948
 5637TIP3    H116868   5.118   4.677   5.937
 5637TIP3    H216869   5.226   4.590   5.877
 5638TIP3   OH216870   0.157   2.582   5.705
 5638TIP3    H116871   0.201   2.599   5.788
 5638TIP3    H216872   0.175   2.489   5.687
 5639TIP3   OH216873   0.634   1.728   0.448
 5639TIP3    H116874   0.591   1.651   0.484
 5639TIP3    H216875   0.633   1.792   0.519
 5640TIP3   OH216876   2.197   1.282   4.190
 5640TIP3    H116877   2.250   1.210   4.225
 5640TIP3    H216878   2.185   1.341   4.265
 5641TIP3   OH216879   1.463   4.538   3.744
 5641TIP3    H116880   1.409   4.609   3.708
 5641TIP3    H216881   1.400   4.482   3.791
 5642TIP3   OH216882   3.417   3.635   3.261
 5642TIP3    H116883   3.343   3.653   3.204
 5642TIP3    H216884   3.378   3.613   3.346
 5643TIP3   OH216885   4.197   3.630   2.579
 5643TIP3    H116886   4.150   3.547   2.583
 5643TIP3    H216887   4.284   3.611   2.614
 5644TIP3   OH216888   4.763   0.221   4.326
 5644TIP3    H116889   4.774   0.190   4.236
 5644TIP3    H216890   4.852   0.228   4.360
 5645TIP3   OH216891   4.630   4.265   1.314
 5645TIP3    H116892   4.572   4.282   1.240
 5645TIP3    H216893   4.717   4.289   1.283
 5646TIP3   OH216894   1.562   1.284   5.168
 5646TIP3    H116895   1.512   1.349   5.218
 5646TIP3    H216896   1.556   1.204   5.220
 5647TIP3   OH216897   1.640   5.922   5.803
 5647TIP3    H116898   1.596   5.932   5.718
 5647TIP3    H216899   1.702   5.850   5.790
 5648TIP3   OH216900   4.907   6.453   6.502
 5648TIP3    H116901   4.912   6.403   6.584
 5648TIP3    H216902   4.942   6.540   6.525
 5649TIP3   OH216903   1.367   5.228   1.498
 5649TIP3    H116904   1.320   5.160   1.546
 5649TIP3    H216905   1.308   5.250   1.425
 5650TIP3   OH216906   4.527   7.118   0.821
 5650TIP3    H116907   4.605   7.079   0.861
 5650TIP3    H216908   4.458   7.103   0.886
 5651TIP3   OH216909   3.724   1.538   0.338
 5651TIP3    H116910   3.731   1.625   0.299
 5651TIP3    H216911   3.763   1.548   0.425
 5652TIP3   OH216912   0.338   1.501   6.047
 5652TIP3    H116913   0.245   1.500   6.071
 5652TIP3    H216914   0.375   1.424   6.089
 5653TIP3   OH216915   0.769   2.434   4.158
 5653TIP3    H116916   0.803   2.388   4.081
 5653TIP3    H216917   0.846   2.478   4.195
 5654TIP3   OH216918   3.815   2.540   2.481
 5654TIP3    H116919   3.737   2.505   2.438
 5654TIP3    H216920   3.844   2.610   2.423
 5655TIP3   OH216921   4.252   6.139   1.617
 5655TIP3    H116922   4.192   6.066   1.600
 5655TIP3    H216923   4.213   6.213   1.571
 5656TIP3   OH216924   4.985   1.165   5.596
 5656TIP3    H116925   4.947   1.120   5.521
 5656TIP3    H216926   5.017   1.248   5.560
 5657TIP3   OH216927   7.176   2.346   3.956
 5657TIP3    H116928   7.147   2.255   3.955
 5657TIP3    H216929   7.166   2.374   4.047
 5658TIP3   OH216930   2.821   7.262   2.462
 5658TIP3    H116931   2.798   7.355   2.463
 5658TIP3    H216932   2.737   7.217   2.453
 5659TIP3   OH216933   8.239   3.810   2.607
 5659TIP3    H116934   8.209   3.865   2.679
 5659TIP3    H216935   8.329   3.788   2.629
 5660TIP3   OH216936   0.346   4.713   3.285
 5660TIP3    H116937   0.342   4.791   3.230
 5660TIP3    H216938   0.349   4.640   3.223
 5661TIP3   OH216939   8.005   2.119   2.147
 5661TIP3    H116940   8.034   2.150   2.233
 5661TIP3    H216941   8.068   2.156   2.085
 5662TIP3   OH216942   2.398   1.951   5.563
 5662TIP3    H116943   2.382   1.913   5.477
 5662TIP3    H216944   2.455   1.888   5.607
 5663TIP3   OH216945   4.699   1.181   2.283
 5663TIP3    H116946   4.723   1.248   2.220
 5663TIP3    H216947   4.667   1.229   2.359
 5664TIP3   OH216948   7.486   7.136   4.648
 5664TIP3    H116949   7.451   7.210   4.698
 5664TIP3    H216950   7.410   7.097   4.605
 5665TIP3   OH216951   3.087   1.377   2.810
 5665TIP3    H116952   3.056   1.384   2.900
 5665TIP3    H216953   3.181   1.392   2.815
 5666TIP3   OH216954   7.786   0.782   1.926
 5666TIP3    H116955   7.728   0.857   1.910
 5666TIP3    H216956   7.813   0.792   2.017
 5667TIP3   OH216957   7.291   4.518   3.112
 5667TIP3    H116958   7.285   4.444   3.171
 5667TIP3    H216959   7.381   4.515   3.078
 5668TIP3   OH216960   1.516   5.648   6.071
 5668TIP3    H116961   1.571   5.673   6.146
 5668TIP3    H216962   1.466   5.727   6.051
 5669TIP3   OH216963   4.128   2.135   2.952
 5669TIP3    H116964   4.127   2.188   2.872
 5669TIP3    H216965   4.221   2.113   2.964
 5670TIP3   OH216966   6.584   6.125   4.932
 5670TIP3    H116967   6.606   6.149   5.022
 5670TIP3    H216968   6.627   6.041   4.918
 5671TIP3   OH216969   2.637   4.587   5.653
 5671TIP3    H116970   2.599   4.530   5.720
 5671TIP3    H216971   2.719   4.544   5.630
 5672TIP3   OH216972   2.292   4.604   3.484
 5672TIP3    H116973   2.300   4.563   3.398
 5672TIP3    H216974   2.275   4.696   3.465
 5673TIP3   OH216975   8.242   2.652   3.083
 5673TIP3    H116976   8.172   2.676   3.022
 5673TIP3    H216977   8.244   2.556   3.080
 5674TIP3   OH216978   6.024   1.575   6.031
 5674TIP3    H116979   6.087   1.647   6.032
 5674TIP3    H216980   5.960   1.601   5.964
 5675TIP3   OH216981   6.212   3.736   0.391
 5675TIP3    H116982   6.248   3.655   0.427
 5675TIP3    H216983   6.156   3.707   0.319
 5676TIP3   OH216984   2.742   7.110   4.469
 5676TIP3    H116985   2.650   7.085   4.477
 5676TIP3    H216986   2.766   7.085   4.380
 5677TIP3   OH216987   2.659   6.542   3.076
 5677TIP3    H116988   2.704   6.625   3.055
 5677TIP3    H216989   2.605   6.524   2.999
 5678TIP3   OH216990   0.619   3.328   4.504
 5678TIP3    H116991   0.600   3.416   4.537
 5678TIP3    H216992   0.661   3.343   4.419
 5679TIP3   OH216993   6.654   3.190   1.562
 5679TIP3    H116994   6.575   3.145   1.532
 5679TIP3    H216995   6.687   3.135   1.633
 5680TIP3   OH216996   4.204   2.529   5.209
 5680TIP3    H116997   4.129   2.489   5.251
 5680TIP3    H216998   4.195   2.623   5.227
 5681TIP3   OH216999   1.623   0.226   0.519
 5681TIP3    H117000   1.694   0.235   0.583
 5681TIP3    H217001   1.543   0.229   0.572
 5682TIP3   OH217002   2.328   2.029   1.970
 5682TIP3    H117003   2.397   2.000   2.029
 5682TIP3    H217004   2.247   2.002   2.013
 5683TIP3   OH217005   7.394   1.989   5.095
 5683TIP3    H117006   7.361   1.922   5.034
 5683TIP3    H217007   7.451   1.941   5.155
 5684TIP3   OH217008   1.254   6.994   3.436
 5684TIP3    H117009   1.282   6.930   3.370
 5684TIP3    H217010   1.220   6.941   3.508
 5685TIP3   OH217011   3.560   5.598   2.346
 5685TIP3    H117012   3.543   5.517   2.297
 5685TIP3    H217013   3.511   5.665   2.298
 5686TIP3   OH217014   0.988   4.067   2.003
 5686TIP3    H117015   1.056   4.048   2.068
 5686TIP3    H217016   0.948   3.983   1.984
 5687TIP3   OH217017   6.605   7.373   1.676
 5687TIP3    H117018   6.548   7.436   1.720
 5687TIP3    H217019   6.693   7.404   1.694
 5688TIP3   OH217020   8.283   6.780   3.589
 5688TIP3    H117021   8.257   6.688   3.579
 5688TIP3    H217022   8.329   6.801   3.508
 5689TIP3   OH217023   2.250   1.794   6.467
 5689TIP3    H117024   2.247   1.726   6.534
 5689TIP3    H217025   2.270   1.874   6.514
 5690TIP3   OH217026   2.147   3.222   0.148
 5690TIP3    H117027   2.217   3.286   0.164
 5690TIP3    H217028   2.163   3.191   0.059
 5691TIP3   OH217029   3.078   5.186   4.322
 5691TIP3    H117030   3.007   5.124   4.306
 5691TIP3    H217031   3.124   5.151   4.398
 5692TIP3   OH217032   8.026   0.578   2.175
 5692TIP3    H117033   8.058   0.515   2.241
 5692TIP3    H217034   8.105   0.623   2.145
 5693TIP3   OH217035   1.497   7.388   4.786
 5693TIP3    H117036   1.546   7.383   4.868
 5693TIP3    H217037   1.563   7.378   4.718
 5694TIP3   OH217038   0.494   7.177   2.324
 5694TIP3    H117039   0.458   7.091   2.347
 5694TIP3    H217040   0.448   7.238   2.382
 5695TIP3   OH217041   5.424   3.151   1.673
 5695TIP3    H117042   5.393   3.073   1.719
 5695TIP3    H217043   5.427   3.124   1.581
 5696TIP3   OH217044   1.494   2.470   0.916
 5696TIP3    H117045   1.502   2.446   1.008
 5696TIP3    H217046   1.572   2.433   0.875
 5697TIP3   OH217047   0.211   1.839   5.589
 5697TIP3    H117048   0.287   1.784   5.611
 5697TIP3    H217049   0.150   1.779   5.547
 5698TIP3   OH217050   1.622   0.721   2.963
 5698TIP3    H117051   1.635   0.728   2.868
 5698TIP3    H217052   1.677   0.789   3.000
 5699TIP3   OH217053   1.662   0.536   1.757
 5699TIP3    H117054   1.639   0.443   1.755
 5699TIP3    H217055   1.715   0.545   1.836
 5700TIP3   OH217056   3.473   2.119   2.830
 5700TIP3    H117057   3.522   2.155   2.755
 5700TIP3    H217058   3.461   2.026   2.808
 5701TIP3   OH217059   2.676   5.213   5.315
 5701TIP3    H117060   2.584   5.237   5.303
 5701TIP3    H217061   2.720   5.296   5.332
 5702TIP3   OH217062   3.158   1.593   6.628
 5702TIP3    H117063   3.140   1.686   6.642
 5702TIP3    H217064   3.248   1.582   6.659
 5703TIP3   OH217065   1.818   0.931   5.251
 5703TIP3    H117066   1.871   0.852   5.247
 5703TIP3    H217067   1.865   0.990   5.309
 5704TIP3   OH217068   3.318   0.816   3.815
 5704TIP3    H117069   3.234   0.801   3.771
 5704TIP3    H217070   3.313   0.907   3.845
 5705TIP3   OH217071   0.137   7.402   3.286
 5705TIP3    H117072   0.188   7.448   3.353
 5705TIP3    H217073   0.054   7.382   3.329
 5706TIP3   OH217074   1.182   6.083   1.337
 5706TIP3    H117075   1.175   6.089   1.433
 5706TIP3    H217076   1.195   5.990   1.320
 5707TIP3   OH217077   2.073   2.184   0.483
 5707TIP3    H117078   2.062   2.188   0.578
 5707TIP3    H217079   2.139   2.116   0.469
 5708TIP3   OH217080   1.462   6.233   1.344
 5708TIP3    H117081   1.431   6.188   1.422
 5708TIP3    H217082   1.390   6.227   1.281
 5709TIP3   OH217083   5.146   4.260   3.422
 5709TIP3    H117084   5.234   4.282   3.394
 5709TIP3    H217085   5.149   4.266   3.518
 5710TIP3   OH217086   0.676   6.492   2.728
 5710TIP3    H117087   0.641   6.578   2.706
 5710TIP3    H217088   0.602   6.444   2.765
 5711TIP3   OH217089   6.191   2.620   0.453
 5711TIP3    H117090   6.231   2.704   0.474
 5711TIP3    H217091   6.210   2.565   0.529
 5712TIP3   OH217092   4.753   7.153   1.974
 5712TIP3    H117093   4.747   7.191   2.062
 5712TIP3    H217094   4.739   7.059   1.988
 5713TIP3   OH217095   0.331   3.773   6.078
 5713TIP3    H117096   0.254   3.759   6.023
 5713TIP3    H217097   0.405   3.761   6.019
 5714TIP3   OH217098   1.837   7.345   2.784
 5714TIP3    H117099   1.858   7.255   2.758
 5714TIP3    H217100   1.742   7.346   2.792
 5715TIP3   OH217101   5.192   3.242   0.226
 5715TIP3    H117102   5.107   3.247   0.181
 5715TIP3    H217103   5.217   3.333   0.239
 5716TIP3   OH217104   0.454   4.279   4.559
 5716TIP3    H117105   0.546   4.282   4.586
 5716TIP3    H217106   0.458   4.263   4.465
 5717TIP3   OH217107   5.531   2.810   0.501
 5717TIP3    H117108   5.616   2.769   0.513
 5717TIP3    H217109   5.548   2.904   0.503
 5718TIP3   OH217110   0.871   7.708   2.019
 5718TIP3    H117111   0.966   7.705   2.009
 5718TIP3    H217112   0.847   7.621   2.049
 5719TIP3   OH217113   1.498   7.085   5.133
 5719TIP3    H117114   1.433   7.045   5.074
 5719TIP3    H217115   1.582   7.052   5.101
 5720TIP3   OH217116   8.101   1.734   1.911
 5720TIP3    H117117   8.009   1.760   1.906
 5720TIP3    H217118   8.146   1.789   1.848
 5721TIP3   OH217119   1.781   3.489   4.376
 5721TIP3    H117120   1.695   3.522   4.349
 5721TIP3    H217121   1.821   3.563   4.422
 5722TIP3   OH217122   1.266   4.886   2.212
 5722TIP3    H117123   1.204   4.946   2.172
 5722TIP3    H217124   1.213   4.812   2.241
 5723TIP3   OH217125   1.950   3.035   0.897
 5723TIP3    H117126   1.912   2.949   0.911
 5723TIP3    H217127   1.988   3.059   0.981
 5724TIP3   OH217128   2.256   3.580   2.988
 5724TIP3    H117129   2.347   3.577   3.018
 5724TIP3    H217130   2.238   3.673   2.975
 5725TIP3   OH217131   0.429   2.008   1.232
 5725TIP3    H117132   0.350   2.024   1.181
 5725TIP3    H217133   0.397   1.974   1.316
 5726TIP3   OH217134   3.994   6.571   6.330
 5726TIP3    H117135   4.019   6.651   6.285
 5726TIP3    H217136   4.069   6.549   6.385
 5727TIP3   OH217137   3.120   6.922   4.352
 5727TIP3    H117138   3.166   6.983   4.294
 5727TIP3    H217139   3.050   6.885   4.297
 5728TIP3   OH217140   8.162   7.816   6.346
 5728TIP3    H117141   8.169   7.867   6.427
 5728TIP3    H217142   8.069   7.822   6.323
 5729TIP3   OH217143   1.133   6.409   6.438
 5729TIP3    H117144   1.134   6.497   6.476
 5729TIP3    H217145   1.131   6.350   6.514
 5730TIP3   OH217146   7.234   4.427   5.083
 5730TIP3    H117147   7.213   4.481   5.160
 5730TIP3    H217148   7.326   4.404   5.094
 5731TIP3   OH217149   2.631   5.265   1.095
 5731TIP3    H117150   2.605   5.306   1.012
 5731TIP3    H217151   2.668   5.181   1.069
 5732TIP3   OH217152   6.957   1.190   0.388
 5732TIP3    H117153   6.960   1.097   0.364
 5732TIP3    H217154   6.961   1.191   0.483
 5733TIP3   OH217155   5.483   4.810   0.271
 5733TIP3    H117156   5.431   4.883   0.238
 5733TIP3    H217157   5.429   4.733   0.254
 5734TIP3   OH217158   3.370   7.066   1.287
 5734TIP3    H117159   3.363   6.991   1.227
 5734TIP3    H217160   3.283   7.104   1.288
 5735TIP3   OH217161   2.391   2.796   3.355
 5735TIP3    H117162   2.339   2.716   3.346
 5735TIP3    H217163   2.329   2.862   3.385
 5736TIP3   OH217164   2.663   4.535   6.519
 5736TIP3    H117165   2.589   4.588   6.490
 5736TIP3    H217166   2.740   4.586   6.496
 5737TIP3   OH217167   2.603   6.135   4.988
 5737TIP3    H117168   2.571   6.116   5.076
 5737TIP3    H217169   2.668   6.204   4.999
 5738TIP3   OH217170   1.401   1.904   2.213
 5738TIP3    H117171   1.326   1.892   2.155
 5738TIP3    H217172   1.465   1.838   2.185
 5739TIP3   OH217173   0.775   6.171   2.671
 5739TIP3    H117174   0.704   6.184   2.734
 5739TIP3    H217175   0.739   6.203   2.588
 5740TIP3   OH217176   0.310   0.323   0.766
 5740TIP3    H117177   0.277   0.412   0.753
 5740TIP3    H217178   0.400   0.336   0.796
 5741TIP3   OH217179   1.767   6.445   6.363
 5741TIP3    H117180   1.715   6.524   6.349
 5741TIP3    H217181   1.834   6.472   6.425
 5742TIP3   OH217182   5.445   5.227   3.067
 5742TIP3    H117183   5.360   5.194   3.037
 5742TIP3    H217184   5.434   5.236   3.162
 5743TIP3   OH217185   2.196   4.984   0.375
 5743TIP3    H117186   2.156   4.914   0.427
 5743TIP3    H217187   2.283   4.996   0.413
 5744TIP3   OH217188   6.012   7.738   2.899
 5744TIP3    H117189   6.051   7.691   2.825
 5744TIP3    H217190   5.949   7.676   2.936
 5745TIP3   OH217191   1.179   1.509   1.002
 5745TIP3    H117192   1.252   1.475   1.054
 5745TIP3    H217193   1.115   1.437   1.002
 5746TIP3   OH217194   5.294   6.587   0.771
 5746TIP3    H117195   5.247   6.505   0.786
 5746TIP3    H217196   5.371   6.563   0.720
 5747TIP3   OH217197   4.982   0.769   6.275
 5747TIP3    H117198   4.887   0.780   6.264
 5747TIP3    H217199   5.013   0.856   6.300
 5748TIP3   OH217200   2.510   5.929   0.094
 5748TIP3    H117201   2.477   5.891   0.013
 5748TIP3    H217202   2.477   5.872   0.163
 5749TIP3   OH217203   3.050   0.567   2.661
 5749TIP3    H117204   3.031   0.479   2.693
 5749TIP3    H217205   2.983   0.622   2.702
 5750TIP3   OH217206   0.982   3.718   4.780
 5750TIP3    H117207   1.045   3.649   4.800
 5750TIP3    H217208   1.011   3.754   4.696
 5751TIP3   OH217209   4.709   3.789   4.253
 5751TIP3    H117210   4.701   3.783   4.348
 5751TIP3    H217211   4.622   3.767   4.220
 5752TIP3   OH217212   4.508   3.879   1.104
 5752TIP3    H117213   4.520   3.818   1.031
 5752TIP3    H217214   4.485   3.962   1.062
 5753TIP3   OH217215   7.749   3.165   1.949
 5753TIP3    H117216   7.688   3.171   1.875
 5753TIP3    H217217   7.723   3.237   2.007
 5754TIP3   OH217218   3.081   6.247   2.323
 5754TIP3    H117219   3.144   6.210   2.385
 5754TIP3    H217220   3.058   6.174   2.265
 5755TIP3   OH217221   3.696   2.462   1.316
 5755TIP3    H117222   3.660   2.548   1.336
 5755TIP3    H217223   3.734   2.472   1.229
 5756TIP3   OH217224   5.227   6.283   6.659
 5756TIP3    H117225   5.252   6.207   6.711
 5756TIP3    H217226   5.132   6.289   6.668
 5757TIP3   OH217227   4.696   5.563   6.185
 5757TIP3    H117228   4.784   5.531   6.202
 5757TIP3    H217229   4.706   5.627   6.115
 5758TIP3   OH217230   4.332   0.661   6.470
 5758TIP3    H117231   4.289   0.714   6.403
 5758TIP3    H217232   4.264   0.600   6.499
 5759TIP3   OH217233   0.764   4.989   0.875
 5759TIP3    H117234   0.797   5.041   0.949
 5759TIP3    H217235   0.834   4.925   0.859
 5760TIP3   OH217236   6.065   1.086   6.446
 5760TIP3    H117237   6.156   1.112   6.464
 5760TIP3    H217238   6.060   0.996   6.478
 5761TIP3   OH217239   6.461   2.922   6.612
 5761TIP3    H117240   6.521   2.876   6.670
 5761TIP3    H217241   6.379   2.872   6.618
 5762TIP3   OH217242   3.397   1.995   2.545
 5762TIP3    H117243   3.352   1.953   2.473
 5762TIP3    H217244   3.363   1.952   2.624
 5763TIP3   OH217245   7.212   2.098   0.299
 5763TIP3    H117246   7.228   2.191   0.280
 5763TIP3    H217247   7.295   2.065   0.332
 5764TIP3   OH217248   0.271   6.732   2.735
 5764TIP3    H117249   0.233   6.775   2.658
 5764TIP3    H217250   0.202   6.738   2.801
 5765TIP3   OH217251   5.735   6.748   2.448
 5765TIP3    H117252   5.714   6.657   2.432
 5765TIP3    H217253   5.690   6.796   2.379
 5766TIP3   OH217254   6.213   3.188   3.241
 5766TIP3    H117255   6.243   3.181   3.331
 5766TIP3    H217256   6.205   3.282   3.225
 5767TIP3   OH217257   3.531   4.045   4.408
 5767TIP3    H117258   3.573   3.973   4.361
 5767TIP3    H217259   3.568   4.124   4.368
 5768TIP3   OH217260   4.736   3.120   3.792
 5768TIP3    H117261   4.773   3.161   3.713
 5768TIP3    H217262   4.747   3.026   3.777
 5769TIP3   OH217263   6.822   5.599   4.606
 5769TIP3    H117264   6.799   5.519   4.653
 5769TIP3    H217265   6.845   5.662   4.674
 5770TIP3   OH217266   5.327   1.095   0.264
 5770TIP3    H117267   5.412   1.138   0.272
 5770TIP3    H217268   5.343   1.021   0.205
 5771TIP3   OH217269   0.681   0.525   5.155
 5771TIP3    H117270   0.726   0.548   5.074
 5771TIP3    H217271   0.752   0.512   5.218
 5772TIP3   OH217272   3.396   6.088   4.442
 5772TIP3    H117273   3.429   6.076   4.353
 5772TIP3    H217274   3.316   6.035   4.445
 5773TIP3   OH217275   4.801   5.737   2.555
 5773TIP3    H117276   4.803   5.708   2.463
 5773TIP3    H217277   4.887   5.775   2.570
 5774TIP3   OH217278   1.641   4.761   2.686
 5774TIP3    H117279   1.716   4.820   2.684
 5774TIP3    H217280   1.616   4.757   2.779
 5775TIP3   OH217281   8.163   5.557   3.947
 5775TIP3    H117282   8.072   5.566   3.976
 5775TIP3    H217283   8.174   5.463   3.932
 5776TIP3   OH217284   3.230   2.992   3.899
 5776TIP3    H117285   3.179   3.024   3.825
 5776TIP3    H217286   3.165   2.955   3.959
 5777TIP3   OH217287   7.925   4.174   2.780
 5777TIP3    H117288   7.893   4.222   2.703
 5777TIP3    H217289   7.860   4.106   2.795
 5778TIP3   OH217290   3.080   2.673   4.215
 5778TIP3    H117291   3.064   2.580   4.200
 5778TIP3    H217292   3.175   2.682   4.215
 5779TIP3   OH217293   1.928   5.298   4.392
 5779TIP3    H117294   2.012   5.299   4.437
 5779TIP3    H217295   1.922   5.384   4.351
 5780TIP3   OH217296   2.967   6.246   5.165
 5780TIP3    H117297   3.046   6.230   5.114
 5780TIP3    H217298   2.999   6.280   5.249
 5781TIP3   OH217299   3.840   6.547   1.876
 5781TIP3    H117300   3.856   6.455   1.854
 5781TIP3    H217301   3.759   6.569   1.831
 5782TIP3   OH217302   6.249   4.757   0.330
 5782TIP3    H117303   6.159   4.780   0.352
 5782TIP3    H217304   6.258   4.666   0.359
 5783TIP3   OH217305   3.513   2.641   6.638
 5783TIP3    H117306   3.491   2.664   6.728
 5783TIP3    H217307   3.604   2.612   6.641
 5784TIP3   OH217308   0.389   4.104   0.416
 5784TIP3    H117309   0.458   4.152   0.371
 5784TIP3    H217310   0.392   4.016   0.377
 5785TIP3   OH217311   4.339   0.987   5.590
 5785TIP3    H117312   4.298   1.070   5.616
 5785TIP3    H217313   4.376   1.005   5.503
 5786TIP3   OH217314   3.722   0.408   4.161
 5786TIP3    H117315   3.684   0.393   4.075
 5786TIP3    H217316   3.648   0.433   4.217
 5787TIP3   OH217317   6.202   3.893   6.212
 5787TIP3    H117318   6.285   3.870   6.254
 5787TIP3    H217319   6.164   3.809   6.186
 5788TIP3   OH217320   2.590   6.475   0.691
 5788TIP3    H117321   2.567   6.516   0.774
 5788TIP3    H217322   2.629   6.391   0.715
 5789TIP3   OH217323   5.810   6.993   3.504
 5789TIP3    H117324   5.839   6.961   3.419
 5789TIP3    H217325   5.847   6.931   3.567
 5790TIP3   OH217326   4.891   2.378   3.038
 5790TIP3    H117327   4.857   2.468   3.035
 5790TIP3    H217328   4.893   2.356   3.131
 5791TIP3   OH217329   1.646   3.679   6.194
 5791TIP3    H117330   1.634   3.597   6.147
 5791TIP3    H217331   1.687   3.654   6.277
 5792TIP3   OH217332   5.347   1.488   6.029
 5792TIP3    H117333   5.398   1.435   5.968
 5792TIP3    H217334   5.335   1.432   6.106
 5793TIP3   OH217335   0.871   0.293   2.849
 5793TIP3    H117336   0.874   0.386   2.870
 5793TIP3    H217337   0.793   0.261   2.894
 5794TIP3   OH217338   6.351   1.882   6.583
 5794TIP3    H117339   6.273   1.935   6.601
 5794TIP3    H217340   6.412   1.941   6.540
 5795TIP3   OH217341   0.851   0.793   0.471
 5795TIP3    H117342   0.932   0.837   0.445
 5795TIP3    H217343   0.790   0.864   0.492
 5796TIP3   OH217344   1.653   6.141   2.065
 5796TIP3    H117345   1.642   6.082   2.139
 5796TIP3    H217346   1.630   6.089   1.988
 5797TIP3   OH217347   4.801   5.810   0.660
 5797TIP3    H117348   4.867   5.767   0.714
 5797TIP3    H217349   4.776   5.888   0.709
 5798TIP3   OH217350   4.724   7.580   3.671
 5798TIP3    H117351   4.636   7.570   3.633
 5798TIP3    H217352   4.748   7.492   3.699
 5799TIP3   OH217353   7.366   7.705   1.671
 5799TIP3    H117354   7.457   7.718   1.643
 5799TIP3    H217355   7.320   7.783   1.640
 5800TIP3   OH217356   2.878   1.539   4.535
 5800TIP3    H117357   2.804   1.543   4.595
 5800TIP3    H217358   2.900   1.631   4.518
 5801TIP3   OH217359   4.489   4.661   5.367
 5801TIP3    H117360   4.488   4.622   5.454
 5801TIP3    H217361   4.411   4.717   5.365
 5802TIP3   OH217362   1.142   7.718   2.005
 5802TIP3    H117363   1.174   7.808   2.009
 5802TIP3    H217364   1.217   7.664   2.030
 5803TIP3   OH217365   6.289   1.575   4.879
 5803TIP3    H117366   6.326   1.659   4.852
 5803TIP3    H217367   6.296   1.576   4.975
 5804TIP3   OH217368   6.885   4.475   2.191
 5804TIP3    H117369   6.874   4.557   2.143
 5804TIP3    H217370   6.797   4.451   2.218
 5805TIP3   OH217371   5.585   0.691   0.061
 5805TIP3    H117372   5.605   0.718  -0.029
 5805TIP3    H217373   5.670   0.688   0.104
 5806TIP3   OH217374   7.640   3.833   3.404
 5806TIP3    H117375   7.644   3.769   3.476
 5806TIP3    H217376   7.623   3.916   3.447
 5807TIP3   OH217377   1.709   0.106   3.129
 5807TIP3    H117378   1.657   0.032   3.161
 5807TIP3    H217379   1.790   0.102   3.178
 5808TIP3   OH217380   6.875   3.827   5.828
 5808TIP3    H117381   6.796   3.781   5.800
 5808TIP3    H217382   6.845   3.885   5.898
 5809TIP3   OH217383   0.780   3.609   1.307
 5809TIP3    H117384   0.724   3.592   1.383
 5809TIP3    H217385   0.797   3.522   1.270
 5810TIP3   OH217386   5.511   5.816   6.698
 5810TIP3    H117387   5.562   5.873   6.756
 5810TIP3    H217388   5.521   5.729   6.736
 5811TIP3   OH217389   0.742   4.596   2.757
 5811TIP3    H117390   0.678   4.587   2.828
 5811TIP3    H217391   0.691   4.591   2.677
 5812TIP3   OH217392   7.587   4.977   0.356
 5812TIP3    H117393   7.591   4.941   0.268
 5812TIP3    H217394   7.494   4.996   0.370
 5813TIP3   OH217395   4.314   5.926   3.045
 5813TIP3    H117396   4.403   5.961   3.043
 5813TIP3    H217397   4.264   5.986   3.100
 5814TIP3   OH217398   2.641   1.951   5.357
 5814TIP3    H117399   2.580   1.877   5.364
 5814TIP3    H217400   2.593   2.018   5.308
 5815TIP3   OH217401   2.659   5.123   0.665
 5815TIP3    H117402   2.719   5.179   0.615
 5815TIP3    H217403   2.700   5.037   0.665
 5816TIP3   OH217404   6.203   3.357   5.640
 5816TIP3    H117405   6.116   3.369   5.603
 5816TIP3    H217406   6.228   3.443   5.673
 5817TIP3   OH217407   5.091   5.569   1.492
 5817TIP3    H117408   5.078   5.502   1.558
 5817TIP3    H217409   5.186   5.571   1.477
 5818TIP3   OH217410   5.033   2.033   6.419
 5818TIP3    H117411   5.113   1.982   6.413
 5818TIP3    H217412   5.053   2.102   6.484
 5819TIP3   OH217413   8.257   2.380   3.088
 5819TIP3    H117414   8.239   2.312   3.153
 5819TIP3    H217415   8.246   2.336   3.004
 5820TIP3   OH217416   2.293   4.517   5.766
 5820TIP3    H117417   2.258   4.603   5.790
 5820TIP3    H217418   2.237   4.487   5.694
 5821TIP3   OH217419   4.888   7.342   3.747
 5821TIP3    H117420   4.854   7.373   3.831
 5821TIP3    H217421   4.895   7.247   3.758
 5822TIP3   OH217422   2.976   7.009   0.874
 5822TIP3    H117423   2.919   6.969   0.808
 5822TIP3    H217424   3.057   6.957   0.871
 5823TIP3   OH217425   1.751   1.958   1.152
 5823TIP3    H117426   1.667   1.947   1.197
 5823TIP3    H217427   1.817   1.937   1.219
 5824TIP3   OH217428   2.446   7.235   4.101
 5824TIP3    H117429   2.459   7.141   4.099
 5824TIP3    H217430   2.442   7.261   4.009
 5825TIP3   OH217431   1.775   5.715   0.294
 5825TIP3    H117432   1.867   5.727   0.318
 5825TIP3    H217433   1.778   5.670   0.210
 5826TIP3   OH217434   3.093   2.761   1.957
 5826TIP3    H117435   3.163   2.785   1.896
 5826TIP3    H217436   3.013   2.786   1.911
 5827TIP3   OH217437   3.806   0.194   0.153
 5827TIP3    H117438   3.853   0.111   0.157
 5827TIP3    H217439   3.875   0.260   0.141
 5828TIP3   OH217440   3.729   4.810   1.986
 5828TIP3    H117441   3.801   4.778   2.040
 5828TIP3    H217442   3.771   4.862   1.918
 5829TIP3   OH217443   6.562   3.165   6.607
 5829TIP3    H117444   6.509   3.091   6.577
 5829TIP3    H217445   6.639   3.125   6.647
 5830TIP3   OH217446   0.380   4.151   0.702
 5830TIP3    H117447   0.365   4.132   0.610
 5830TIP3    H217448   0.356   4.243   0.712
 5831TIP3   OH217449   8.206   6.104   5.613
 5831TIP3    H117450   8.272   6.127   5.548
 5831TIP3    H217451   8.213   6.172   5.680
 5832TIP3   OH217452   6.465   5.987   1.576
 5832TIP3    H117453   6.434   6.007   1.664
 5832TIP3    H217454   6.450   6.068   1.527
 5833TIP3   OH217455   4.718   1.975   5.052
 5833TIP3    H117456   4.806   1.976   5.015
 5833TIP3    H217457   4.715   2.049   5.112
 5834TIP3   OH217458   5.318   5.482   0.085
 5834TIP3    H117459   5.241   5.540   0.087
 5834TIP3    H217460   5.324   5.447   0.174
 5835TIP3   OH217461   3.007   4.164   2.677
 5835TIP3    H117462   2.923   4.186   2.638
 5835TIP3    H217463   3.062   4.241   2.661
 5836TIP3   OH217464   2.677   4.040   3.604
 5836TIP3    H117465   2.660   3.967   3.545
 5836TIP3    H217466   2.595   4.090   3.605
 5837TIP3   OH217467   0.674   4.741   0.701
 5837TIP3    H117468   0.756   4.716   0.658
 5837TIP3    H217469   0.611   4.749   0.630
 5838TIP3   OH217470   2.128   7.530   4.449
 5838TIP3    H117471   2.202   7.566   4.496
 5838TIP3    H217472   2.164   7.500   4.365
 5839TIP3   OH217473   0.698   0.421   1.637
 5839TIP3    H117474   0.776   0.451   1.685
 5839TIP3    H217475   0.733   0.385   1.555
 5840TIP3   OH217476   1.414   0.500   1.957
 5840TIP3    H117477   1.451   0.440   1.893
 5840TIP3    H217478   1.358   0.446   2.013
 5841TIP3   OH217479   7.081   6.446   2.788
 5841TIP3    H117480   7.027   6.492   2.724
 5841TIP3    H217481   7.169   6.482   2.774
 5842TIP3   OH217482   3.322   7.112   3.330
 5842TIP3    H117483   3.273   7.183   3.372
 5842TIP3    H217484   3.380   7.079   3.399
 5843TIP3   OH217485   2.304   7.023   3.586
 5843TIP3    H117486   2.256   6.946   3.617
 5843TIP3    H217487   2.368   7.040   3.654
 5844TIP3   OH217488   2.783   6.810   6.311
 5844TIP3    H117489   2.876   6.820   6.327
 5844TIP3    H217490   2.749   6.765   6.388
 5845TIP3   OH217491   0.304   6.301   1.355
 5845TIP3    H117492   0.250   6.305   1.276
 5845TIP3    H217493   0.308   6.208   1.376
 5846TIP3   OH217494   4.113   7.057   2.331
 5846TIP3    H117495   4.141   7.142   2.366
 5846TIP3    H217496   4.194   7.012   2.308
 5847TIP3   OH217497   8.124   4.861   0.238
 5847TIP3    H117498   8.210   4.850   0.198
 5847TIP3    H217499   8.143   4.880   0.330
 5848TIP3   OH217500   3.647   3.034   0.798
 5848TIP3    H117501   3.662   3.127   0.786
 5848TIP3    H217502   3.720   2.992   0.753
 5849TIP3   OH217503   1.768   1.801   3.025
 5849TIP3    H117504   1.707   1.807   2.952
 5849TIP3    H217505   1.715   1.768   3.097
 5850TIP3   OH217506   8.234   0.916   0.602
 5850TIP3    H117507   8.266   0.907   0.692
 5850TIP3    H217508   8.314   0.929   0.550
 5851TIP3   OH217509   6.408   1.227   1.706
 5851TIP3    H117510   6.430   1.293   1.771
 5851TIP3    H217511   6.475   1.160   1.717
 5852TIP3   OH217512   4.811   7.463   0.771
 5852TIP3    H117513   4.729   7.448   0.724
 5852TIP3    H217514   4.793   7.539   0.827
 5853TIP3   OH217515   0.955   7.678   2.542
 5853TIP3    H117516   1.016   7.608   2.563
 5853TIP3    H217517   0.900   7.687   2.620
 5854TIP3   OH217518   7.695   0.543   5.537
 5854TIP3    H117519   7.686   0.521   5.630
 5854TIP3    H217520   7.660   0.467   5.491
 5855TIP3   OH217521   5.435   6.335   3.297
 5855TIP3    H117522   5.522   6.366   3.319
 5855TIP3    H217523   5.377   6.408   3.317
 5856TIP3   OH217524   4.033   3.775   6.083
 5856TIP3    H117525   3.979   3.709   6.040
 5856TIP3    H217526   4.050   3.840   6.015
 5857TIP3   OH217527   8.275   5.781   0.485
 5857TIP3    H117528   8.291   5.803   0.577
 5857TIP3    H217529   8.234   5.694   0.489
 5858TIP3   OH217530   2.075   5.752   6.042
 5858TIP3    H117531   2.016   5.818   6.078
 5858TIP3    H217532   2.104   5.788   5.959
 5859TIP3   OH217533   4.585   2.715   2.252
 5859TIP3    H117534   4.519   2.646   2.250
 5859TIP3    H217535   4.537   2.795   2.230
 5860TIP3   OH217536   6.575   4.491   1.419
 5860TIP3    H117537   6.592   4.397   1.411
 5860TIP3    H217538   6.619   4.530   1.344
 5861TIP3   OH217539   4.013   1.229   0.269
 5861TIP3    H117540   3.933   1.191   0.305
 5861TIP3    H217541   4.049   1.280   0.342
 5862TIP3   OH217542   7.362   1.620   3.473
 5862TIP3    H117543   7.421   1.547   3.493
 5862TIP3    H217544   7.292   1.613   3.537
 5863TIP3   OH217545   1.962   1.555   0.545
 5863TIP3    H117546   1.950   1.647   0.526
 5863TIP3    H217547   1.886   1.512   0.506
 5864TIP3   OH217548   8.135   1.619   5.388
 5864TIP3    H117549   8.147   1.543   5.332
 5864TIP3    H217550   8.165   1.693   5.336
 5865TIP3   OH217551   7.357   1.762   6.027
 5865TIP3    H117552   7.277   1.811   6.044
 5865TIP3    H217553   7.413   1.824   5.980
 5866TIP3   OH217554   3.459   7.798   5.627
 5866TIP3    H117555   3.443   7.708   5.599
 5866TIP3    H217556   3.407   7.851   5.567
 5867TIP3   OH217557   4.879   3.113   2.652
 5867TIP3    H117558   4.915   3.197   2.622
 5867TIP3    H217559   4.881   3.057   2.575
 5868TIP3   OH217560   1.055   3.604   5.919
 5868TIP3    H117561   1.118   3.639   5.981
 5868TIP3    H217562   1.093   3.622   5.833
 5869TIP3   OH217563   0.638   2.453   1.715
 5869TIP3    H117564   0.690   2.430   1.638
 5869TIP3    H217565   0.587   2.374   1.733
 5870TIP3   OH217566   0.229   6.242   3.644
 5870TIP3    H117567   0.210   6.304   3.715
 5870TIP3    H217568   0.169   6.169   3.659
 5871TIP3   OH217569   1.922   4.966   2.304
 5871TIP3    H117570   1.906   4.890   2.361
 5871TIP3    H217571   1.842   4.974   2.253
 5872TIP3   OH217572   1.093   5.453   5.494
 5872TIP3    H117573   1.016   5.438   5.440
 5872TIP3    H217574   1.058   5.463   5.583
 5873TIP3   OH217575   4.907   5.122   4.951
 5873TIP3    H117576   4.907   5.163   5.038
 5873TIP3    H217577   4.899   5.196   4.891
 5874TIP3   OH217578   6.619   7.167   2.325
 5874TIP3    H117579   6.617   7.260   2.303
 5874TIP3    H217580   6.574   7.162   2.409
 5875TIP3   OH217581   6.896   4.057   4.803
 5875TIP3    H117582   6.921   3.974   4.763
 5875TIP3    H217583   6.978   4.104   4.814
 5876TIP3   OH217584   1.400   6.571   5.515
 5876TIP3    H117585   1.404   6.553   5.609
 5876TIP3    H217586   1.484   6.541   5.480
 5877TIP3   OH217587   7.073   0.889   0.689
 5877TIP3    H117588   7.155   0.845   0.666
 5877TIP3    H217589   7.073   0.889   0.785
 5878TIP3   OH217590   7.758   6.828   4.371
 5878TIP3    H117591   7.802   6.784   4.444
 5878TIP3    H217592   7.827   6.880   4.330
 5879TIP3   OH217593   2.331   5.358   1.080
 5879TIP3    H117594   2.280   5.399   1.010
 5879TIP3    H217595   2.345   5.268   1.050
 5880TIP3   OH217596   1.358   5.398   5.561
 5880TIP3    H117597   1.400   5.326   5.514
 5880TIP3    H217598   1.265   5.387   5.543
 5881TIP3   OH217599   6.820   5.641   6.305
 5881TIP3    H117600   6.912   5.650   6.331
 5881TIP3    H217601   6.818   5.561   6.252
 5882TIP3   OH217602   5.974   1.582   1.153
 5882TIP3    H117603   5.891   1.623   1.179
 5882TIP3    H217604   6.010   1.546   1.234
 5883TIP3   OH217605   7.202   6.919   3.565
 5883TIP3    H117606   7.244   6.862   3.499
 5883TIP3    H217607   7.273   6.942   3.625
 5884TIP3   OH217608   1.332   1.303   3.968
 5884TIP3    H117609   1.404   1.366   3.967
 5884TIP3    H217610   1.253   1.357   3.965
 5885TIP3   OH217611   5.956   7.463   6.505
 5885TIP3    H117612   5.958   7.503   6.418
 5885TIP3    H217613   5.948   7.536   6.565
 5886TIP3   OH217614   2.857   2.561   3.563
 5886TIP3    H117615   2.801   2.622   3.515
 5886TIP3    H217616   2.924   2.617   3.603
 5887TIP3   OH217617   3.711   3.498   2.108
 5887TIP3    H117618   3.669   3.559   2.168
 5887TIP3    H217619   3.639   3.458   2.060
 5888TIP3   OH217620   5.364   0.879   4.190
 5888TIP3    H117621   5.308   0.914   4.259
 5888TIP3    H217622   5.442   0.848   4.235
 5889TIP3   OH217623   2.432   3.581   3.288
 5889TIP3    H117624   2.360   3.610   3.344
 5889TIP3    H217625   2.434   3.644   3.217
 5890TIP3   OH217626   0.842   5.491   5.384
 5890TIP3    H117627   0.785   5.516   5.312
 5890TIP3    H217628   0.794   5.422   5.430
 5891TIP3   OH217629   4.299   0.800   3.021
 5891TIP3    H117630   4.219   0.800   3.074
 5891TIP3    H217631   4.349   0.724   3.052
 5892TIP3   OH217632   7.094   0.790   4.176
 5892TIP3    H117633   7.035   0.855   4.136
 5892TIP3    H217634   7.152   0.842   4.232
 5893TIP3   OH217635   2.790   3.872   2.596
 5893TIP3    H117636   2.801   3.962   2.564
 5893TIP3    H217637   2.763   3.882   2.687
 5894TIP3   OH217638   2.233   1.452   2.053
 5894TIP3    H117639   2.260   1.515   2.119
 5894TIP3    H217640   2.236   1.367   2.097
 5895TIP3   OH217641   7.416   6.202   0.649
 5895TIP3    H117642   7.507   6.178   0.635
 5895TIP3    H217643   7.372   6.183   0.566
 5896TIP3   OH217644   6.043   7.022   0.284
 5896TIP3    H117645   6.086   7.050   0.203
 5896TIP3    H217646   6.106   7.043   0.353
 5897TIP3   OH217647   4.472   6.655   2.041
 5897TIP3    H117648   4.396   6.684   2.091
 5897TIP3    H217649   4.497   6.572   2.082
 5898TIP3   OH217650   0.505   7.281   3.838
 5898TIP3    H117651   0.521   7.197   3.881
 5898TIP3    H217652   0.487   7.257   3.747
 5899TIP3   OH217653   0.813   7.312   2.526
 5899TIP3    H117654   0.892   7.261   2.540
 5899TIP3    H217655   0.784   7.289   2.438
 5900TIP3   OH217656   3.882   7.083   4.494
 5900TIP3    H117657   3.910   7.008   4.547
 5900TIP3    H217658   3.912   7.062   4.406
 5901TIP3   OH217659   7.613   3.042   2.365
 5901TIP3    H117660   7.567   2.973   2.317
 5901TIP3    H217661   7.559   3.120   2.353
 5902TIP3   OH217662   1.387   6.786   0.046
 5902TIP3    H117663   1.390   6.691   0.050
 5902TIP3    H217664   1.409   6.814   0.135
 5903TIP3   OH217665   2.923   0.407   6.454
 5903TIP3    H117666   2.986   0.336   6.453
 5903TIP3    H217667   2.853   0.378   6.395
 5904TIP3   OH217668   6.705   3.329   0.553
 5904TIP3    H117669   6.768   3.259   0.535
 5904TIP3    H217670   6.701   3.379   0.471
 5905TIP3   OH217671   0.098   2.966   0.971
 5905TIP3    H117672   0.184   2.949   0.933
 5905TIP3    H217673   0.048   3.007   0.900
 5906TIP3   OH217674   4.621   3.642   5.107
 5906TIP3    H117675   4.542   3.592   5.128
 5906TIP3    H217676   4.616   3.655   5.013
 5907TIP3   OH217677   0.423   1.839   3.250
 5907TIP3    H117678   0.490   1.884   3.198
 5907TIP3    H217679   0.349   1.830   3.191
 5908TIP3   OH217680   5.013   1.380   5.133
 5908TIP3    H117681   4.927   1.417   5.114
 5908TIP3    H217682   5.002   1.286   5.120
 5909TIP3   OH217683   4.904   5.788   1.468
 5909TIP3    H117684   4.810   5.774   1.457
 5909TIP3    H217685   4.939   5.703   1.495
 5910TIP3   OH217686   2.314   4.162   3.372
 5910TIP3    H117687   2.397   4.200   3.401
 5910TIP3    H217688   2.314   4.073   3.408
 5911TIP3   OH217689   5.909   6.108   1.905
 5911TIP3    H117690   5.845   6.125   1.836
 5911TIP3    H217691   5.919   6.193   1.949
 5912TIP3   OH217692   2.510   5.875   1.257
 5912TIP3    H117693   2.423   5.915   1.263
 5912TIP3    H217694   2.570   5.949   1.264
 5913TIP3   OH217695   2.329   6.145   3.754
 5913TIP3    H117696   2.382   6.068   3.735
 5913TIP3    H217697   2.373   6.216   3.709
 5914TIP3   OH217698   0.696   6.493   0.859
 5914TIP3    H117699   0.700   6.570   0.915
 5914TIP3    H217700   0.605   6.490   0.828
 5915TIP3   OH217701   5.242   6.190   0.811
 5915TIP3    H117702   5.301   6.157   0.743
 5915TIP3    H217703   5.298   6.204   0.887
 5916TIP3   OH217704   4.395   3.887   5.634
 5916TIP3    H117705   4.364   3.976   5.653
 5916TIP3    H217706   4.397   3.882   5.538
 5917TIP3   OH217707   1.973   7.473   1.917
 5917TIP3    H117708   2.019   7.555   1.900
 5917TIP3    H217709   1.994   7.452   2.008
 5918TIP3   OH217710   7.670   4.320   0.988
 5918TIP3    H117711   7.658   4.271   1.069
 5918TIP3    H217712   7.597   4.294   0.933
 5919TIP3   OH217713   7.368   5.763   2.761
 5919TIP3    H117714   7.394   5.850   2.792
 5919TIP3    H217715   7.416   5.703   2.817
 5920TIP3   OH217716   0.901   2.792   2.402
 5920TIP3    H117717   0.856   2.744   2.471
 5920TIP3    H217718   0.931   2.873   2.444
 5921TIP3   OH217719   6.394   0.172   0.172
 5921TIP3    H117720   6.406   0.142   0.262
 5921TIP3    H217721   6.370   0.094   0.123
 5922TIP3   OH217722   6.804   2.504   3.038
 5922TIP3    H117723   6.798   2.599   3.032
 5922TIP3    H217724   6.713   2.475   3.047
 5923TIP3   OH217725   7.654   5.336   0.566
 5923TIP3    H117726   7.721   5.400   0.542
 5923TIP3    H217727   7.655   5.273   0.495
 5924TIP3   OH217728   5.874   1.571   3.770
 5924TIP3    H117729   5.897   1.575   3.863
 5924TIP3    H217730   5.806   1.637   3.759
 5925TIP3   OH217731   1.165   6.286   5.006
 5925TIP3    H117732   1.074   6.268   4.983
 5925TIP3    H217733   1.159   6.357   5.071
 5926TIP3   OH217734   0.804   6.518   5.793
 5926TIP3    H117735   0.797   6.534   5.699
 5926TIP3    H217736   0.859   6.439   5.799
 5927TIP3   OH217737   7.241   0.059   4.844
 5927TIP3    H117738   7.260   0.148   4.814
 5927TIP3    H217739   7.280   0.002   4.778
 5928TIP3   OH217740   5.461   4.629   5.176
 5928TIP3    H117741   5.464   4.627   5.080
 5928TIP3    H217742   5.401   4.701   5.196
 5929TIP3   OH217743   7.099   3.123   4.174
 5929TIP3    H117744   7.013   3.088   4.148
 5929TIP3    H217745   7.138   3.053   4.226
 5930TIP3   OH217746   5.367   3.204   5.516
 5930TIP3    H117747   5.276   3.217   5.488
 5930TIP3    H217748   5.420   3.234   5.442
 5931TIP3   OH217749   8.006   3.539   5.804
 5931TIP3    H117750   8.063   3.468   5.773
 5931TIP3    H217751   8.011   3.534   5.899
 5932TIP3   OH217752   4.933   1.902   4.809
 5932TIP3    H117753   4.848   1.885   4.767
 5932TIP3    H217754   4.943   1.830   4.872
 5933TIP3   OH217755   1.504   2.737   2.733
 5933TIP3    H117756   1.452   2.707   2.658
 5933TIP3    H217757   1.591   2.699   2.718
 5934TIP3   OH217758   3.248   6.503   4.134
 5934TIP3    H117759   3.221   6.453   4.211
 5934TIP3    H217760   3.318   6.452   4.095
 5935TIP3   OH217761   2.449   0.956   4.636
 5935TIP3    H117762   2.444   0.901   4.558
 5935TIP3    H217763   2.520   0.918   4.687
 5936TIP3   OH217764   3.307   2.424   4.484
 5936TIP3    H117765   3.224   2.378   4.496
 5936TIP3    H217766   3.298   2.504   4.535
 5937TIP3   OH217767   0.875   7.718   3.875
 5937TIP3    H117768   0.966   7.727   3.847
 5937TIP3    H217769   0.853   7.626   3.857
 5938TIP3   OH217770   5.765   5.574   0.215
 5938TIP3    H117771   5.847   5.524   0.209
 5938TIP3    H217772   5.772   5.621   0.298
 5939TIP3   OH217773   5.609   3.939   6.022
 5939TIP3    H117774   5.577   3.872   5.961
 5939TIP3    H217775   5.704   3.935   6.014
 5940TIP3   OH217776   3.516   5.389   2.190
 5940TIP3    H117777   3.556   5.302   2.189
 5940TIP3    H217778   3.523   5.420   2.100
 5941TIP3   OH217779   6.856   5.568   0.332
 5941TIP3    H117780   6.845   5.647   0.383
 5941TIP3    H217781   6.841   5.595   0.241
 5942TIP3   OH217782   5.348   6.477   4.824
 5942TIP3    H117783   5.347   6.476   4.728
 5942TIP3    H217784   5.257   6.497   4.848
 5943TIP3   OH217785   3.223   5.304   5.003
 5943TIP3    H117786   3.278   5.363   5.055
 5943TIP3    H217787   3.255   5.314   4.914
 5944TIP3   OH217788   1.472   3.874   6.619
 5944TIP3    H117789   1.502   3.879   6.710
 5944TIP3    H217790   1.535   3.817   6.576
 5945TIP3   OH217791   6.551   2.464   2.826
 5945TIP3    H117792   6.535   2.433   2.916
 5945TIP3    H217793   6.537   2.387   2.771
 5946TIP3   OH217794   2.934   4.958   0.476
 5946TIP3    H117795   2.939   4.921   0.565
 5946TIP3    H217796   2.876   4.899   0.429
 5947TIP3   OH217797   1.021   3.650   4.088
 5947TIP3    H117798   0.943   3.685   4.045
 5947TIP3    H217799   1.045   3.573   4.036
 5948TIP3   OH217800   4.190   3.270   4.519
 5948TIP3    H117801   4.274   3.280   4.563
 5948TIP3    H217802   4.166   3.179   4.536
 5949TIP3   OH217803   0.628   7.260   0.066
 5949TIP3    H117804   0.570   7.210   0.123
 5949TIP3    H217805   0.573   7.331   0.032
 5950TIP3   OH217806   2.074   1.918   2.085
 5950TIP3    H117807   1.983   1.943   2.069
 5950TIP3    H217808   2.092   1.849   2.021
 5951TIP3   OH217809   2.125   2.670   2.776
 5951TIP3    H117810   2.168   2.656   2.691
 5951TIP3    H217811   2.197   2.683   2.837
 5952TIP3   OH217812   2.611   4.560   2.900
 5952TIP3    H117813   2.621   4.595   2.811
 5952TIP3    H217814   2.561   4.479   2.888
 5953TIP3   OH217815   7.176   1.197   2.447
 5953TIP3    H117816   7.085   1.192   2.415
 5953TIP3    H217817   7.171   1.256   2.521
 5954TIP3   OH217818   6.552   6.973   5.480
 5954TIP3    H117819   6.588   7.052   5.520
 5954TIP3    H217820   6.555   6.991   5.386
 5955TIP3   OH217821   0.084   5.431   1.754
 5955TIP3    H117822   0.090   5.525   1.773
 5955TIP3    H217823   0.175   5.401   1.754
 5956TIP3   OH217824   4.399   5.753   6.150
 5956TIP3    H117825   4.482   5.794   6.128
 5956TIP3    H217826   4.384   5.690   6.079
 5957TIP3   OH217827   6.086   5.537   0.527
 5957TIP3    H117828   6.149   5.593   0.480
 5957TIP3    H217829   6.025   5.597   0.568
 5958TIP3   OH217830   1.497   4.602   0.053
 5958TIP3    H117831   1.512   4.689   0.016
 5958TIP3    H217832   1.549   4.602   0.134
 5959TIP3   OH217833   1.496   2.433   6.435
 5959TIP3    H117834   1.578   2.384   6.423
 5959TIP3    H217835   1.493   2.490   6.358
 5960TIP3   OH217836   6.892   1.281   2.105
 5960TIP3    H117837   6.861   1.350   2.047
 5960TIP3    H217838   6.965   1.240   2.058
 5961TIP3   OH217839   3.477   7.167   3.740
 5961TIP3    H117840   3.412   7.237   3.742
 5961TIP3    H217841   3.430   7.089   3.768
 5962TIP3   OH217842   2.325   6.810   2.855
 5962TIP3    H117843   2.393   6.860   2.809
 5962TIP3    H217844   2.338   6.831   2.948
 5963TIP3   OH217845   2.049   1.452   0.265
 5963TIP3    H117846   1.988   1.381   0.241
 5963TIP3    H217847   2.071   1.434   0.356
 5964TIP3   OH217848   2.904   6.970   1.576
 5964TIP3    H117849   2.902   6.957   1.671
 5964TIP3    H217850   2.993   7.000   1.558
 5965TIP3   OH217851   1.288   6.621   6.056
 5965TIP3    H117852   1.380   6.647   6.059
 5965TIP3    H217853   1.255   6.661   5.976
 5966TIP3   OH217854   1.337   7.245   3.380
 5966TIP3    H117855   1.295   7.188   3.315
 5966TIP3    H217856   1.371   7.184   3.445
 5967TIP3   OH217857   4.287   5.022   2.052
 5967TIP3    H117858   4.350   5.066   1.994
 5967TIP3    H217859   4.219   4.990   1.992
 5968TIP3   OH217860   2.130   4.427   3.073
 5968TIP3    H117861   2.164   4.339   3.089
 5968TIP3    H217862   2.118   4.432   2.979
 5969TIP3   OH217863   2.498   5.911   2.717
 5969TIP3    H117864   2.450   5.943   2.793
 5969TIP3    H217865   2.435   5.913   2.646
 5970TIP3   OH217866   8.020   5.678   5.658
 5970TIP3    H117867   8.090   5.613   5.646
 5970TIP3    H217868   8.061   5.751   5.703
 5971TIP3   OH217869   2.801   4.610   4.863
 5971TIP3    H117870   2.775   4.580   4.949
 5971TIP3    H217871   2.797   4.532   4.807
 5972TIP3   OH217872   2.777   3.678   6.207
 5972TIP3    H117873   2.772   3.596   6.257
 5972TIP3    H217874   2.855   3.721   6.241
 5973TIP3   OH217875   1.476   3.917   5.635
 5973TIP3    H117876   1.478   3.839   5.690
 5973TIP3    H217877   1.383   3.932   5.619
 5974TIP3   OH217878   5.580   2.234   2.895
 5974TIP3    H117879   5.649   2.220   2.830
 5974TIP3    H217880   5.581   2.328   2.911
 5975TIP3   OH217881   4.249   5.646   1.759
 5975TIP3    H117882   4.277   5.602   1.679
 5975TIP3    H217883   4.271   5.585   1.829
 5976TIP3   OH217884   6.652   5.983   5.581
 5976TIP3    H117885   6.649   5.976   5.677
 5976TIP3    H217886   6.727   5.928   5.556
 5977TIP3   OH217887   2.033   2.136   1.852
 5977TIP3    H117888   1.974   2.183   1.912
 5977TIP3    H217889   2.112   2.189   1.849
 5978TIP3   OH217890   1.552   6.941   2.544
 5978TIP3    H117891   1.524   7.030   2.525
 5978TIP3    H217892   1.498   6.886   2.487
 5979TIP3   OH217893   1.184   2.360   4.404
 5979TIP3    H117894   1.271   2.343   4.367
 5979TIP3    H217895   1.201   2.399   4.489
 5980TIP3   OH217896   6.707   4.359   3.140
 5980TIP3    H117897   6.627   4.366   3.192
 5980TIP3    H217898   6.778   4.366   3.204
 5981TIP3   OH217899   5.857   2.491   5.139
 5981TIP3    H117900   5.783   2.434   5.116
 5981TIP3    H217901   5.817   2.572   5.170
 5982TIP3   OH217902   6.640   5.114   0.459
 5982TIP3    H117903   6.688   5.043   0.415
 5982TIP3    H217904   6.549   5.084   0.459
 5983TIP3   OH217905   7.172   7.815   4.356
 5983TIP3    H117906   7.135   7.736   4.318
 5983TIP3    H217907   7.120   7.886   4.318
 5984TIP3   OH217908   5.750   2.301   5.683
 5984TIP3    H117909   5.751   2.354   5.762
 5984TIP3    H217910   5.837   2.261   5.679
 5985TIP3   OH217911   4.424   2.063   5.124
 5985TIP3    H117912   4.447   1.988   5.069
 5985TIP3    H217913   4.483   2.133   5.095
 5986TIP3   OH217914   6.992   6.088   6.155
 5986TIP3    H117915   6.996   6.136   6.238
 5986TIP3    H217916   6.993   6.156   6.088
 5987TIP3   OH217917   5.464   4.673   2.748
 5987TIP3    H117918   5.423   4.724   2.818
 5987TIP3    H217919   5.497   4.738   2.686
 5988TIP3   OH217920   0.653   2.773   3.763
 5988TIP3    H117921   0.571   2.731   3.788
 5988TIP3    H217922   0.683   2.724   3.686
 5989TIP3   OH217923   6.127   7.540   2.707
 5989TIP3    H117924   6.062   7.480   2.745
 5989TIP3    H217925   6.211   7.508   2.739
 5990TIP3   OH217926   5.661   1.265   0.949
 5990TIP3    H117927   5.672   1.191   1.009
 5990TIP3    H217928   5.732   1.254   0.884
 5991TIP3   OH217929   7.770   3.025   5.664
 5991TIP3    H117930   7.778   3.075   5.745
 5991TIP3    H217931   7.855   2.981   5.655
 5992TIP3   OH217932   7.794   5.879   3.041
 5992TIP3    H117933   7.794   5.796   3.088
 5992TIP3    H217934   7.716   5.876   2.986
 5993TIP3   OH217935   3.247   2.974   0.753
 5993TIP3    H117936   3.265   3.040   0.686
 5993TIP3    H217937   3.153   2.958   0.746
 5994TIP3   OH217938   2.389   5.620   1.168
 5994TIP3    H117939   2.308   5.639   1.122
 5994TIP3    H217940   2.408   5.528   1.148
 5995TIP3   OH217941   3.165   5.996   6.684
 5995TIP3    H117942   3.171   6.082   6.725
 5995TIP3    H217943   3.096   5.952   6.733
 5996TIP3   OH217944   0.858   5.127   6.729
 5996TIP3    H117945   0.783   5.126   6.670
 5996TIP3    H217946   0.828   5.179   6.804
 5997TIP3   OH217947   3.207   5.950   4.305
 5997TIP3    H117948   3.184   5.924   4.216
 5997TIP3    H217949   3.129   5.995   4.338
 5998TIP3   OH217950   0.414   4.868   2.746
 5998TIP3    H117951   0.417   4.773   2.757
 5998TIP3    H217952   0.365   4.900   2.822
 5999TIP3   OH217953   8.326   1.469   0.947
 5999TIP3    H117954   8.258   1.513   0.896
 5999TIP3    H217955   8.278   1.410   1.005
 6000TIP3   OH217956   4.353   3.467   1.922
 6000TIP3    H117957   4.330   3.529   1.853
 6000TIP3    H217958   4.319   3.383   1.892
 6001TIP3   OH217959   4.234   7.529   3.385
 6001TIP3    H117960   4.203   7.619   3.373
 6001TIP3    H217961   4.174   7.476   3.332
 6002TIP3   OH217962   7.492   4.553   1.615
 6002TIP3    H117963   7.493   4.645   1.588
 6002TIP3    H217964   7.435   4.509   1.553
 6003TIP3   OH217965   1.823   5.040   4.502
 6003TIP3    H117966   1.894   5.000   4.553
 6003TIP3    H217967   1.837   5.134   4.511
 6004TIP3   OH217968   7.761   1.128   3.732
 6004TIP3    H117969   7.845   1.094   3.763
 6004TIP3    H217970   7.777   1.222   3.719
 6005TIP3   OH217971   0.275   5.533   1.432
 6005TIP3    H117972   0.246   5.602   1.491
 6005TIP3    H217973   0.370   5.533   1.440
 6006TIP3   OH217974   3.021   2.476   1.061
 6006TIP3    H117975   3.098   2.446   1.110
 6006TIP3    H217976   3.055   2.494   0.973
 6007TIP3   OH217977   3.933   5.686   2.142
 6007TIP3    H117978   3.892   5.759   2.097
 6007TIP3    H217979   3.912   5.699   2.235
 6008TIP3   OH217980   6.738   0.656   1.304
 6008TIP3    H117981   6.722   0.638   1.396
 6008TIP3    H217982   6.703   0.580   1.258
 6009TIP3   OH217983   4.484   6.270   3.849
 6009TIP3    H117984   4.531   6.231   3.776
 6009TIP3    H217985   4.400   6.225   3.850
 6010TIP3   OH217986   3.191   1.746   4.458
 6010TIP3    H117987   3.102   1.764   4.487
 6010TIP3    H217988   3.245   1.759   4.536
 6011TIP3   OH217989   1.377   0.770   4.077
 6011TIP3    H117990   1.295   0.726   4.053
 6011TIP3    H217991   1.383   0.760   4.172
 6012TIP3   OH217992   6.350   4.563   6.263
 6012TIP3    H117993   6.295   4.600   6.194
 6012TIP3    H217994   6.290   4.511   6.316
 6013TIP3   OH217995   5.471   6.935   3.252
 6013TIP3    H117996   5.542   6.878   3.284
 6013TIP3    H217997   5.484   7.017   3.299
 6014TIP3   OH217998   7.716   2.263   0.318
 6014TIP3    H117999   7.648   2.264   0.384
 6014TIP3    H218000   7.734   2.355   0.300
 6015TIP3   OH218001   0.337   2.549   5.255
 6015TIP3    H118002   0.371   2.609   5.190
 6015TIP3    H218003   0.294   2.605   5.320
 6016TIP3   OH218004   0.469   4.903   1.099
 6016TIP3    H118005   0.389   4.952   1.118
 6016TIP3    H218006   0.475   4.839   1.170
 6017TIP3   OH218007   7.209   3.564   5.102
 6017TIP3    H118008   7.184   3.651   5.133
 6017TIP3    H218009   7.241   3.579   5.013
 6018TIP3   OH218010   3.872   0.809   1.698
 6018TIP3    H118011   3.958   0.851   1.708
 6018TIP3    H218012   3.825   0.864   1.635
 6019TIP3   OH218013   2.390   6.650   4.385
 6019TIP3    H118014   2.473   6.661   4.337
 6019TIP3    H218015   2.333   6.718   4.350
 6020TIP3   OH218016   3.062   0.976   4.047
 6020TIP3    H118017   3.003   0.901   4.057
 6020TIP3    H218018   3.141   0.951   4.096
 6021TIP3   OH218019   0.157   5.719   5.466
 6021TIP3    H118020   0.192   5.777   5.534
 6021TIP3    H218021   0.091   5.667   5.511
 6022TIP3   OH218022   4.017   5.021   0.999
 6022TIP3    H118023   3.938   4.981   0.963
 6022TIP3    H218024   4.077   5.026   0.925
 6023TIP3   OH218025   7.398   7.624   0.948
 6023TIP3    H118026   7.398   7.710   0.906
 6023TIP3    H218027   7.316   7.620   0.996
 6024TIP3   OH218028   7.248   2.659   4.178
 6024TIP3    H118029   7.286   2.684   4.262
 6024TIP3    H218030   7.197   2.580   4.197
 6025TIP3   OH218031   1.307   4.274   4.852
 6025TIP3    H118032   1.294   4.184   4.881
 6025TIP3    H218033   1.385   4.304   4.899
 6026TIP3   OH218034   1.929   6.324   4.198
 6026TIP3    H118035   1.949   6.417   4.199
 6026TIP3    H218036   1.909   6.305   4.107
 6027TIP3   OH218037   4.208   3.020   2.409
 6027TIP3    H118038   4.202   3.031   2.504
 6027TIP3    H218039   4.171   3.102   2.375
 6028TIP3   OH218040   6.352   1.125   6.386
 6028TIP3    H118041   6.429   1.069   6.389
 6028TIP3    H218042   6.386   1.213   6.368
 6029TIP3   OH218043   7.024   6.091   4.047
 6029TIP3    H118044   7.018   6.120   4.139
 6029TIP3    H218045   6.980   6.160   3.998
 6030TIP3   OH218046   3.110   5.079   1.969
 6030TIP3    H118047   3.030   5.112   2.011
 6030TIP3    H218048   3.162   5.044   2.041
 6031TIP3   OH218049   7.788   4.614   2.785
 6031TIP3    H118050   7.845   4.648   2.716
 6031TIP3    H218051   7.707   4.665   2.777
 6032TIP3   OH218052   2.988   6.052   4.612
 6032TIP3    H118053   2.915   6.048   4.550
 6032TIP3    H218054   2.946   6.054   4.698
 6033TIP3   OH218055   1.181   2.026   1.045
 6033TIP3    H118056   1.199   2.100   1.102
 6033TIP3    H218057   1.147   1.958   1.103
 6034TIP3   OH218058   6.459   0.680   3.814
 6034TIP3    H118059   6.487   0.771   3.806
 6034TIP3    H218060   6.400   0.681   3.889
 6035TIP3   OH218061   5.883   5.230   5.507
 6035TIP3    H118062   5.875   5.147   5.555
 6035TIP3    H218063   5.881   5.297   5.575
 6036TIP3   OH218064   6.421   2.663   1.818
 6036TIP3    H118065   6.503   2.673   1.865
 6036TIP3    H218066   6.359   2.719   1.865
 6037TIP3   OH218067   6.211   3.220   5.030
 6037TIP3    H118068   6.153   3.294   5.013
 6037TIP3    H218069   6.248   3.198   4.945
 6038TIP3   OH218070   3.002   2.054   0.886
 6038TIP3    H118071   3.036   2.077   0.799
 6038TIP3    H218072   3.073   2.075   0.946
 6039TIP3   OH218073   6.991   2.899   1.060
 6039TIP3    H118074   7.020   2.883   0.970
 6039TIP3    H218075   7.024   2.824   1.110
 6040TIP3   OH218076   6.829   3.247   1.155
 6040TIP3    H118077   6.822   3.164   1.202
 6040TIP3    H218078   6.742   3.259   1.116
 6041TIP3   OH218079   0.946   3.386   0.216
 6041TIP3    H118080   0.965   3.479   0.229
 6041TIP3    H218081   0.864   3.384   0.168
 6042TIP3   OH218082   0.837   3.822   3.327
 6042TIP3    H118083   0.749   3.815   3.290
 6042TIP3    H218084   0.836   3.761   3.401
 6043TIP3   OH218085   7.102   5.370   3.284
 6043TIP3    H118086   7.051   5.410   3.213
 6043TIP3    H218087   7.065   5.282   3.292
 6044TIP3   OH218088   8.230   1.592   6.491
 6044TIP3    H118089   8.288   1.667   6.501
 6044TIP3    H218090   8.283   1.527   6.444
 6045TIP3   OH218091   2.123   4.091   2.298
 6045TIP3    H118092   2.190   4.036   2.257
 6045TIP3    H218093   2.159   4.113   2.384
 6046TIP3   OH218094   4.386   5.486   4.590
 6046TIP3    H118095   4.381   5.445   4.676
 6046TIP3    H218096   4.319   5.554   4.592
 6047TIP3   OH218097   4.110   7.186   5.090
 6047TIP3    H118098   4.032   7.142   5.056
 6047TIP3    H218099   4.136   7.246   5.020
 6048TIP3   OH218100   6.086   4.298   0.965
 6048TIP3    H118101   6.102   4.214   1.007
 6048TIP3    H218102   6.069   4.359   1.038
 6049TIP3   OH218103   3.077   6.832   2.190
 6049TIP3    H118104   3.163   6.873   2.201
 6049TIP3    H218105   3.015   6.896   2.226
 6050TIP3   OH218106   6.764   4.082   0.095
 6050TIP3    H118107   6.822   4.152   0.064
 6050TIP3    H218108   6.712   4.058   0.018
 6051TIP3   OH218109   5.545   4.983   5.166
 6051TIP3    H118110   5.606   4.939   5.225
 6051TIP3    H218111   5.530   5.069   5.206
 6052TIP3   OH218112   7.626   0.605   2.261
 6052TIP3    H118113   7.606   0.600   2.167
 6052TIP3    H218114   7.689   0.534   2.276
 6053TIP3   OH218115   4.849   5.776   6.754
 6053TIP3    H118116   4.909   5.769   6.828
 6053TIP3    H218117   4.763   5.758   6.791
 6054TIP3   OH218118   0.183   0.484   5.176
 6054TIP3    H118119   0.166   0.394   5.204
 6054TIP3    H218120   0.248   0.475   5.107
 6055TIP3   OH218121   5.108   4.550   5.504
 6055TIP3    H118122   5.057   4.631   5.500
 6055TIP3    H218123   5.091   4.516   5.592
 6056TIP3   OH218124   4.331   4.734   1.489
 6056TIP3    H118125   4.325   4.813   1.434
 6056TIP3    H218126   4.265   4.747   1.557
 6057TIP3   OH218127   5.622   0.236   0.194
 6057TIP3    H118128   5.571   0.292   0.136
 6057TIP3    H218129   5.696   0.290   0.221
 6058TIP3   OH218130   2.227   2.821   1.226
 6058TIP3    H118131   2.223   2.888   1.293
 6058TIP3    H218132   2.163   2.755   1.254
 6059TIP3   OH218133   7.104   1.815   0.837
 6059TIP3    H118134   7.068   1.863   0.911
 6059TIP3    H218135   7.188   1.858   0.819
 6060TIP3   OH218136   4.756   7.501   1.161
 6060TIP3    H118137   4.662   7.492   1.177
 6060TIP3    H218138   4.786   7.412   1.143
 6061TIP3   OH218139   4.479   4.234   0.340
 6061TIP3    H118140   4.426   4.172   0.290
 6061TIP3    H218141   4.418   4.273   0.403
 6062TIP3   OH218142   1.375   2.125   6.116
 6062TIP3    H118143   1.372   2.032   6.139
 6062TIP3    H218144   1.286   2.156   6.132
 6063TIP3   OH218145   7.660   1.165   3.358
 6063TIP3    H118146   7.729   1.107   3.389
 6063TIP3    H218147   7.583   1.108   3.348
 6064TIP3   OH218148   6.528   2.718   3.205
 6064TIP3    H118149   6.501   2.801   3.246
 6064TIP3    H218150   6.446   2.674   3.185
 6065TIP3   OH218151   2.755   3.383   6.360
 6065TIP3    H118152   2.752   3.287   6.368
 6065TIP3    H218153   2.666   3.411   6.379
 6066TIP3   OH218154   0.728   1.176   5.754
 6066TIP3    H118155   0.685   1.093   5.774
 6066TIP3    H218156   0.675   1.243   5.798
 6067TIP3   OH218157   4.385   2.290   1.227
 6067TIP3    H118158   4.362   2.326   1.142
 6067TIP3    H218159   4.479   2.272   1.223
 6068TIP3   OH218160   2.228  -0.010   2.878
 6068TIP3    H118161   2.313   0.028   2.854
 6068TIP3    H218162   2.225  -0.005   2.973
 6069TIP3   OH218163   0.032   5.899   5.957
 6069TIP3    H118164  -0.035   5.879   6.022
 6069TIP3    H218165   0.086   5.967   5.998
 6070TIP3   OH218166   5.304   3.371   6.394
 6070TIP3    H118167   5.292   3.436   6.464
 6070TIP3    H218168   5.217   3.359   6.357
 6071TIP3   OH218169   7.757   2.096   0.119
 6071TIP3    H118170   7.668   2.074   0.094
 6071TIP3    H218171   7.748   2.145   0.201
 6072TIP3   OH218172   4.318   3.215   2.106
 6072TIP3    H118173   4.252   3.239   2.172
 6072TIP3    H218174   4.399   3.207   2.156
 6073TIP3   OH218175   3.436   7.196   5.539
 6073TIP3    H118176   3.376   7.164   5.607
 6073TIP3    H218177   3.410   7.148   5.460
 6074TIP3   OH218178   8.183   0.497   0.173
 6074TIP3    H118179   8.186   0.583   0.132
 6074TIP3    H218180   8.226   0.439   0.111
 6075TIP3   OH218181   2.312   2.802   5.688
 6075TIP3    H118182   2.229   2.815   5.641
 6075TIP3    H218183   2.287   2.760   5.770
 6076TIP3   OH218184   1.737   2.988   2.602
 6076TIP3    H118185   1.786   2.919   2.647
 6076TIP3    H218186   1.720   3.053   2.670
 6077TIP3   OH218187   0.149   3.956   3.629
 6077TIP3    H118188   0.202   3.877   3.631
 6077TIP3    H218189   0.101   3.951   3.547
 6078TIP3   OH218190   2.186   2.346   4.808
 6078TIP3    H118191   2.169   2.375   4.718
 6078TIP3    H218192   2.259   2.285   4.800
 6079TIP3   OH218193   7.537   4.899   6.688
 6079TIP3    H118194   7.540   4.973   6.749
 6079TIP3    H218195   7.468   4.843   6.723
 6080TIP3   OH218196   0.868   7.341   1.094
 6080TIP3    H118197   0.929   7.374   1.160
 6080TIP3    H218198   0.835   7.259   1.131
 6081TIP3   OH218199   3.882   7.016   4.919
 6081TIP3    H118200   3.851   7.044   5.005
 6081TIP3    H218201   3.847   7.081   4.859
 6082TIP3   OH218202   0.803   7.326   5.001
 6082TIP3    H118203   0.735   7.262   5.021
 6082TIP3    H218204   0.777   7.405   5.048
 6083TIP3   OH218205   3.305   5.647   5.404
 6083TIP3    H118206   3.306   5.641   5.499
 6083TIP3    H218207   3.214   5.669   5.383
 6084TIP3   OH218208   7.894   5.297   6.064
 6084TIP3    H118209   7.888   5.379   6.113
 6084TIP3    H218210   7.810   5.289   6.020
 6085TIP3   OH218211   6.316   0.562   4.035
 6085TIP3    H118212   6.359   0.618   4.099
 6085TIP3    H218213   6.229   0.547   4.071
 6086TIP3   OH218214   2.508   7.053   4.555
 6086TIP3    H118215   2.417   7.070   4.533
 6086TIP3    H218216   2.506   7.023   4.646
 6087TIP3   OH218217   2.106   7.802   0.007
 6087TIP3    H118218   2.020   7.824   0.041
 6087TIP3    H218219   2.154   7.769   0.083
 6088TIP3   OH218220   6.295   6.164   3.062
 6088TIP3    H118221   6.355   6.237   3.047
 6088TIP3    H218222   6.348   6.100   3.110
 6089TIP3   OH218223   3.819   0.764   6.124
 6089TIP3    H118224   3.771   0.700   6.176
 6089TIP3    H218225   3.883   0.712   6.075
 6090TIP3   OH218226   8.271   3.575   4.423
 6090TIP3    H118227   8.301   3.663   4.445
 6090TIP3    H218228   8.290   3.523   4.502
 6091TIP3   OH218229   5.430   4.275   3.962
 6091TIP3    H118230   5.525   4.264   3.969
 6091TIP3    H218231   5.400   4.198   3.913
 6092TIP3   OH218232   8.044   3.469   6.083
 6092TIP3    H118233   8.118   3.525   6.105
 6092TIP3    H218234   8.074   3.381   6.103
 6093TIP3   OH218235   5.120   5.234   1.036
 6093TIP3    H118236   5.157   5.227   1.124
 6093TIP3    H218237   5.113   5.328   1.020
 6094TIP3   OH218238   5.658   6.400   5.641
 6094TIP3    H118239   5.691   6.489   5.628
 6094TIP3    H218240   5.669   6.383   5.734
 6095TIP3   OH218241   7.849   4.374   0.619
 6095TIP3    H118242   7.846   4.465   0.587
 6095TIP3    H218243   7.861   4.322   0.539
 6096TIP3   OH218244   7.744   6.333   4.485
 6096TIP3    H118245   7.796   6.319   4.406
 6096TIP3    H218246   7.808   6.328   4.556
 6097TIP3   OH218247   1.508   5.957   3.826
 6097TIP3    H118248   1.475   5.954   3.736
 6097TIP3    H218249   1.440   5.914   3.878
 6098TIP3   OH218250   0.998   7.023   2.878
 6098TIP3    H118251   0.912   6.993   2.849
 6098TIP3    H218252   0.999   7.116   2.858
 6099TIP3   OH218253   0.546   6.247   4.923
 6099TIP3    H118254   0.626   6.268   4.972
 6099TIP3    H218255   0.553   6.298   4.843
 6100TIP3   OH218256   7.483   5.754   3.997
 6100TIP3    H118257   7.390   5.761   4.019
 6100TIP3    H218258   7.497   5.823   3.932
 6101TIP3   OH218259   6.812   7.834   0.910
 6101TIP3    H118260   6.825   7.750   0.953
 6101TIP3    H218261   6.775   7.812   0.824
 6102TIP3   OH218262   3.451   0.338   1.606
 6102TIP3    H118263   3.377   0.289   1.640
 6102TIP3    H218264   3.517   0.335   1.676
 6103TIP3   OH218265   6.235   3.817   2.096
 6103TIP3    H118266   6.275   3.780   2.017
 6103TIP3    H218267   6.243   3.911   2.084
 6104TIP3   OH218268   0.716   0.865   1.170
 6104TIP3    H118269   0.648   0.823   1.117
 6104TIP3    H218270   0.704   0.826   1.257
 6105TIP3   OH218271   6.273   3.105   1.218
 6105TIP3    H118272   6.343   3.170   1.214
 6105TIP3    H218273   6.313   3.023   1.189
 6106TIP3   OH218274   3.962   5.643   1.758
 6106TIP3    H118275   3.918   5.728   1.769
 6106TIP3    H218276   4.052   5.660   1.783
 6107TIP3   OH218277   5.916   4.727   5.687
 6107TIP3    H118278   5.932   4.737   5.593
 6107TIP3    H218279   6.002   4.740   5.727
 6108TIP3   OH218280   0.996   1.740   1.584
 6108TIP3    H118281   0.952   1.776   1.507
 6108TIP3    H218282   0.974   1.800   1.655
 6109TIP3   OH218283   3.234   4.080   5.392
 6109TIP3    H118284   3.221   4.040   5.306
 6109TIP3    H218285   3.325   4.112   5.390
 6110TIP3   OH218286   5.836   2.545   5.527
 6110TIP3    H118287   5.845   2.472   5.465
 6110TIP3    H218288   5.742   2.555   5.539
 6111TIP3   OH218289   3.703   5.227   0.466
 6111TIP3    H118290   3.787   5.185   0.450
 6111TIP3    H218291   3.674   5.257   0.380
 6112TIP3   OH218292   4.594   4.746   4.485
 6112TIP3    H118293   4.514   4.773   4.529
 6112TIP3    H218294   4.617   4.819   4.429
 6113TIP3   OH218295   1.078   5.715   5.157
 6113TIP3    H118296   1.044   5.661   5.228
 6113TIP3    H218297   1.154   5.667   5.124
 6114TIP3   OH218298   7.798   4.973   6.263
 6114TIP3    H118299   7.739   5.012   6.327
 6114TIP3    H218300   7.804   4.881   6.288
 6115TIP3   OH218301   3.605   5.445   2.872
 6115TIP3    H118302   3.569   5.382   2.934
 6115TIP3    H218303   3.662   5.501   2.926
 6116TIP3   OH218304   1.947   2.998   4.258
 6116TIP3    H118305   1.887   2.942   4.307
 6116TIP3    H218306   2.009   2.936   4.219
 6117TIP3   OH218307   6.547   7.607   1.048
 6117TIP3    H118308   6.612   7.669   1.080
 6117TIP3    H218309   6.555   7.611   0.953
 6118TIP3   OH218310   5.029   0.384   4.998
 6118TIP3    H118311   4.995   0.383   4.908
 6118TIP3    H218312   4.951   0.391   5.053
 6119TIP3   OH218313   5.440   4.012   0.772
 6119TIP3    H118314   5.519   4.048   0.812
 6119TIP3    H218315   5.470   3.937   0.721
 6120TIP3   OH218316   1.258   1.719   4.249
 6120TIP3    H118317   1.319   1.792   4.259
 6120TIP3    H218318   1.284   1.655   4.316
 6121TIP3   OH218319   6.640   1.899   2.527
 6121TIP3    H118320   6.584   1.837   2.482
 6121TIP3    H218321   6.644   1.867   2.617
 6122TIP3   OH218322   6.921   3.956   4.072
 6122TIP3    H118323   6.901   3.864   4.057
 6122TIP3    H218324   7.015   3.959   4.085
 6123TIP3   OH218325   8.106   1.318   2.732
 6123TIP3    H118326   8.017   1.286   2.715
 6123TIP3    H218327   8.096   1.379   2.804
 6124TIP3   OH218328   5.265   7.241   1.102
 6124TIP3    H118329   5.322   7.205   1.035
 6124TIP3    H218330   5.202   7.172   1.120
 6125TIP3   OH218331   1.300   6.406   5.284
 6125TIP3    H118332   1.380   6.368   5.248
 6125TIP3    H218333   1.327   6.444   5.368
 6126TIP3   OH218334   5.631   1.050   0.560
 6126TIP3    H118335   5.652   1.060   0.467
 6126TIP3    H218336   5.554   1.106   0.574
 6127TIP3   OH218337   4.235   7.490   2.209
 6127TIP3    H118338   4.158   7.497   2.267
 6127TIP3    H218339   4.301   7.545   2.250
 6128TIP3   OH218340   3.567   2.279   1.991
 6128TIP3    H118341   3.532   2.336   1.923
 6128TIP3    H218342   3.600   2.339   2.058
 6129TIP3   OH218343   7.296   3.509   2.766
 6129TIP3    H118344   7.336   3.428   2.796
 6129TIP3    H218345   7.338   3.527   2.682
 6130TIP3   OH218346   6.976   6.750   1.981
 6130TIP3    H118347   6.966   6.824   2.041
 6130TIP3    H218348   6.890   6.708   1.980
 6131TIP3   OH218349   0.827   1.829   3.065
 6131TIP3    H118350   0.740   1.805   3.034
 6131TIP3    H218351   0.818   1.920   3.094
 6132TIP3   OH218352   3.210   3.505   5.627
 6132TIP3    H118353   3.156   3.567   5.577
 6132TIP3    H218354   3.291   3.500   5.577
 6133TIP3   OH218355   3.058   1.317   0.523
 6133TIP3    H118356   3.119   1.258   0.568
 6133TIP3    H218357   3.099   1.332   0.437
 6134TIP3   OH218358   6.115   2.398   3.146
 6134TIP3    H118359   6.142   2.322   3.198
 6134TIP3    H218360   6.086   2.463   3.211
 6135TIP3   OH218361   6.866   5.806   4.134
 6135TIP3    H118362   6.897   5.890   4.102
 6135TIP3    H218363   6.802   5.778   4.068
 6136TIP3   OH218364   0.459   5.100   0.478
 6136TIP3    H118365   0.489   5.072   0.565
 6136TIP3    H218366   0.535   5.146   0.441
 6137TIP3   OH218367   6.014   5.163   3.798
 6137TIP3    H118368   5.980   5.082   3.835
 6137TIP3    H218369   5.936   5.210   3.767
 6138TIP3   OH218370   1.322   5.476   6.243
 6138TIP3    H118371   1.360   5.536   6.178
 6138TIP3    H218372   1.389   5.469   6.311
 6139TIP3   OH218373   3.622   4.583   5.648
 6139TIP3    H118374   3.572   4.578   5.567
 6139TIP3    H218375   3.621   4.494   5.683
 6140TIP3   OH218376   6.773   3.768   1.784
 6140TIP3    H118377   6.697   3.760   1.842
 6140TIP3    H218378   6.837   3.818   1.834
 6141TIP3   OH218379   2.027   3.055   1.174
 6141TIP3    H118380   1.988   2.990   1.233
 6141TIP3    H218381   2.099   3.093   1.224
 6142TIP3   OH218382   6.072   6.600   2.905
 6142TIP3    H118383   6.091   6.533   2.839
 6142TIP3    H218384   6.001   6.651   2.868
 6143TIP3   OH218385   3.781   2.768   0.093
 6143TIP3    H118386   3.742   2.739   0.011
 6143TIP3    H218387   3.784   2.864   0.086
 6144TIP3   OH218388   0.753   2.076   3.142
 6144TIP3    H118389   0.840   2.090   3.103
 6144TIP3    H218390   0.751   2.136   3.217
 6145TIP3   OH218391   1.174   7.088   5.660
 6145TIP3    H118392   1.126   7.171   5.668
 6145TIP3    H218393   1.173   7.069   5.566
 6146TIP3   OH218394   3.531   0.720   5.494
 6146TIP3    H118395   3.457   0.679   5.449
 6146TIP3    H218396   3.607   0.673   5.460
 6147TIP3   OH218397   0.211   1.083   2.209
 6147TIP3    H118398   0.180   1.073   2.299
 6147TIP3    H218399   0.135   1.117   2.162
 6148TIP3   OH218400   3.033   1.128   0.091
 6148TIP3    H118401   3.112   1.081   0.119
 6148TIP3    H218402   2.985   1.145   0.172
 6149TIP3   OH218403   5.728   2.567   2.321
 6149TIP3    H118404   5.782   2.510   2.267
 6149TIP3    H218405   5.743   2.655   2.288
 6150TIP3   OH218406   6.486   2.970   2.122
 6150TIP3    H118407   6.577   2.943   2.109
 6150TIP3    H218408   6.471   2.958   2.216
 6151TIP3   OH218409   0.808   1.825   3.823
 6151TIP3    H118410   0.800   1.906   3.772
 6151TIP3    H218411   0.807   1.854   3.914
 6152TIP3   OH218412   0.615   4.640   0.957
 6152TIP3    H118413   0.670   4.705   1.002
 6152TIP3    H218414   0.597   4.679   0.872
 6153TIP3   OH218415   2.877   6.098   3.179
 6153TIP3    H118416   2.946   6.077   3.115
 6153TIP3    H218417   2.805   6.133   3.127
 6154TIP3   OH218418   2.656   0.158   1.211
 6154TIP3    H118419   2.750   0.166   1.190
 6154TIP3    H218420   2.650   0.182   1.303
 6155TIP3   OH218421   6.016   2.311   0.220
 6155TIP3    H118422   6.005   2.242   0.154
 6155TIP3    H218423   5.961   2.282   0.293
 6156TIP3   OH218424   7.237   6.015   1.063
 6156TIP3    H118425   7.195   5.950   1.007
 6156TIP3    H218426   7.219   6.099   1.020
 6157TIP3   OH218427   5.738   5.441   4.938
 6157TIP3    H118428   5.696   5.437   4.853
 6157TIP3    H218429   5.668   5.466   4.999
 6158TIP3   OH218430   7.983   6.619   5.764
 6158TIP3    H118431   8.002   6.530   5.734
 6158TIP3    H218432   7.913   6.609   5.828
 6159TIP3   OH218433   7.060   2.516   0.068
 6159TIP3    H118434   7.071   2.580  -0.002
 6159TIP3    H218435   6.979   2.470   0.047
 6160TIP3   OH218436   0.704   3.427   3.586
 6160TIP3    H118437   0.758   3.489   3.536
 6160TIP3    H218438   0.614   3.454   3.567
 6161TIP3   OH218439   6.201   1.576   3.424
 6161TIP3    H118440   6.171   1.491   3.455
 6161TIP3    H218441   6.187   1.634   3.499
 6162TIP3   OH218442   5.714   5.831   1.769
 6162TIP3    H118443   5.769   5.760   1.804
 6162TIP3    H218444   5.749   5.849   1.683
 6163TIP3   OH218445   4.615   0.533   3.688
 6163TIP3    H118446   4.626   0.527   3.593
 6163TIP3    H218447   4.663   0.458   3.722
 6164TIP3   OH218448   6.904   7.874   1.331
 6164TIP3    H118449   6.908   7.794   1.384
 6164TIP3    H218450   6.855   7.849   1.253
 6165TIP3   OH218451   5.919   1.590   5.595
 6165TIP3    H118452   5.873   1.577   5.678
 6165TIP3    H218453   5.857   1.637   5.540
 6166TIP3   OH218454   1.119   5.332   4.525
 6166TIP3    H118455   1.081   5.350   4.439
 6166TIP3    H218456   1.072   5.390   4.585
 6167TIP3   OH218457   4.527   6.301   0.581
 6167TIP3    H118458   4.511   6.290   0.487
 6167TIP3    H218459   4.485   6.225   0.622
 6168TIP3   OH218460   6.569   3.672   2.897
 6168TIP3    H118461   6.562   3.578   2.878
 6168TIP3    H218462   6.484   3.707   2.868
 6169TIP3   OH218463   1.538   2.416   1.370
 6169TIP3    H118464   1.562   2.341   1.423
 6169TIP3    H218465   1.605   2.421   1.302
 6170TIP3   OH218466   7.071   5.513   0.717
 6170TIP3    H118467   7.048   5.529   0.626
 6170TIP3    H218468   7.143   5.574   0.735
 6171TIP3   OH218469   3.023   1.077   5.339
 6171TIP3    H118470   3.041   1.139   5.409
 6171TIP3    H218471   2.998   1.130   5.264
 6172TIP3   OH218472   3.913   4.660   5.467
 6172TIP3    H118473   3.864   4.591   5.423
 6172TIP3    H218474   3.851   4.733   5.474
 6173TIP3   OH218475   4.447   4.236   5.909
 6173TIP3    H118476   4.513   4.187   5.958
 6173TIP3    H218477   4.449   4.324   5.947
 6174TIP3   OH218478   3.888   3.806   0.938
 6174TIP3    H118479   3.968   3.808   0.990
 6174TIP3    H218480   3.889   3.889   0.889
 6175TIP3   OH218481   3.902   0.786   2.275
 6175TIP3    H118482   3.903   0.708   2.220
 6175TIP3    H218483   3.833   0.840   2.238
 6176TIP3   OH218484   1.956   0.094   3.808
 6176TIP3    H118485   1.937   0.002   3.827
 6176TIP3    H218486   2.051   0.102   3.821
 6177TIP3   OH218487   2.956   6.636   2.014
 6177TIP3    H118488   2.959   6.707   2.078
 6177TIP3    H218489   3.033   6.582   2.033
 6178TIP3   OH218490   2.036   3.686   4.105
 6178TIP3    H118491   2.074   3.732   4.180
 6178TIP3    H218492   2.071   3.732   4.029
 6179TIP3   OH218493   4.962   4.017   0.876
 6179TIP3    H118494   5.021   3.946   0.851
 6179TIP3    H218495   5.009   4.097   0.852
 6180TIP3   OH218496   3.471   3.217   2.734
 6180TIP3    H118497   3.452   3.123   2.743
 6180TIP3    H218498   3.545   3.231   2.793
 6181TIP3   OH218499   0.140   4.909   1.724
 6181TIP3    H118500   0.174   4.920   1.813
 6181TIP3    H218501   0.152   4.995   1.683
 6182TIP3   OH218502   1.888   4.150   4.984
 6182TIP3    H118503   1.825   4.154   5.057
 6182TIP3    H218504   1.930   4.235   4.984
 6183TIP3   OH218505   4.891   4.519   1.963
 6183TIP3    H118506   4.873   4.492   2.053
 6183TIP3    H218507   4.814   4.570   1.937
 6184TIP3   OH218508   3.980   0.102   3.295
 6184TIP3    H118509   3.893   0.140   3.285
 6184TIP3    H218510   4.036   0.176   3.319
 6185TIP3   OH218511   7.990   6.844   0.304
 6185TIP3    H118512   7.931   6.868   0.233
 6185TIP3    H218513   8.043   6.772   0.269
 6186TIP3   OH218514   4.138   3.203   4.138
 6186TIP3    H118515   4.178   3.278   4.183
 6186TIP3    H218516   4.210   3.165   4.088
 6187TIP3   OH218517   7.738   2.170   2.664
 6187TIP3    H118518   7.647   2.162   2.636
 6187TIP3    H218519   7.783   2.209   2.589
 6188TIP3   OH218520   0.558   2.262   1.243
 6188TIP3    H118521   0.514   2.178   1.229
 6188TIP3    H218522   0.488   2.323   1.265
 6189TIP3   OH218523   5.746   4.791   4.084
 6189TIP3    H118524   5.780   4.704   4.065
 6189TIP3    H218525   5.775   4.810   4.173
 6190TIP3   OH218526   3.109   2.487   2.031
 6190TIP3    H118527   3.032   2.463   2.084
 6190TIP3    H218528   3.086   2.571   1.992
 6191TIP3   OH218529   7.048   1.644   0.605
 6191TIP3    H118530   7.041   1.688   0.690
 6191TIP3    H218531   7.086   1.710   0.548
 6192TIP3   OH218532   1.347   3.127   3.268
 6192TIP3    H118533   1.407   3.098   3.337
 6192TIP3    H218534   1.393   3.200   3.225
 6193TIP3   OH218535   5.811   6.797   4.767
 6193TIP3    H118536   5.716   6.781   4.766
 6193TIP3    H218537   5.831   6.826   4.679
 6194TIP3   OH218538   5.126   2.278   1.440
 6194TIP3    H118539   5.062   2.217   1.403
 6194TIP3    H218540   5.094   2.364   1.413
 6195TIP3   OH218541   2.910   7.739   6.587
 6195TIP3    H118542   2.865   7.695   6.659
 6195TIP3    H218543   2.943   7.820   6.626
 6196TIP3   OH218544   7.478   0.909   2.329
 6196TIP3    H118545   7.561   0.884   2.369
 6196TIP3    H218546   7.412   0.883   2.392
 6197TIP3   OH218547   1.259   2.530   0.082
 6197TIP3    H118548   1.271   2.598   0.147
 6197TIP3    H218549   1.192   2.472   0.119
 6198TIP3   OH218550   6.894   3.407   4.227
 6198TIP3    H118551   6.849   3.444   4.303
 6198TIP3    H218552   6.828   3.354   4.183
 6199TIP3   OH218553   4.053   3.213   5.238
 6199TIP3    H118554   4.114   3.140   5.226
 6199TIP3    H218555   4.050   3.226   5.333
 6200TIP3   OH218556   2.148   1.273   4.473
 6200TIP3    H118557   2.226   1.225   4.444
 6200TIP3    H218558   2.140   1.252   4.566
 6201TIP3   OH218559   4.110   0.518   6.257
 6201TIP3    H118560   4.204   0.503   6.266
 6201TIP3    H218561   4.084   0.465   6.182
 6202TIP3   OH218562   5.717   4.321   4.990
 6202TIP3    H118563   5.664   4.310   5.069
 6202TIP3    H218564   5.762   4.237   4.979
 6203TIP3   OH218565   2.667   0.680   2.622
 6203TIP3    H118566   2.621   0.631   2.554
 6203TIP3    H218567   2.639   0.771   2.610
 6204TIP3   OH218568   3.002   3.900   5.499
 6204TIP3    H118569   2.981   3.961   5.428
 6204TIP3    H218570   2.955   3.935   5.575
 6205TIP3   OH218571   7.218   5.499   2.450
 6205TIP3    H118572   7.313   5.499   2.449
 6205TIP3    H218573   7.193   5.585   2.417
 6206TIP3   OH218574   0.797   2.460   4.564
 6206TIP3    H118575   0.805   2.542   4.516
 6206TIP3    H218576   0.830   2.393   4.504
 6207TIP3   OH218577   2.309   7.656   0.775
 6207TIP3    H118578   2.304   7.744   0.739
 6207TIP3    H218579   2.395   7.652   0.817
 6208TIP3   OH218580   6.055   7.153   4.995
 6208TIP3    H118581   5.987   7.187   5.054
 6208TIP3    H218582   6.135   7.154   5.047
 6209TIP3   OH218583   1.681   5.197   4.790
 6209TIP3    H118584   1.775   5.198   4.810
 6209TIP3    H218585   1.656   5.289   4.786
 6210TIP3   OH218586   3.313   2.648   5.370
 6210TIP3    H118587   3.265   2.627   5.289
 6210TIP3    H218588   3.296   2.574   5.428
 6211TIP3   OH218589   8.053   5.329   2.875
 6211TIP3    H118590   8.027   5.336   2.783
 6211TIP3    H218591   8.148   5.335   2.873
 6212TIP3   OH218592   1.217   3.016   2.598
 6212TIP3    H118593   1.206   3.107   2.570
 6212TIP3    H218594   1.288   2.983   2.543
 6213TIP3   OH218595   2.937   7.371   6.363
 6213TIP3    H118596   2.845   7.358   6.385
 6213TIP3    H218597   2.982   7.375   6.448
 6214TIP3   OH218598   5.352   5.922   2.887
 6214TIP3    H118599   5.414   5.965   2.945
 6214TIP3    H218600   5.379   5.950   2.799
 6215TIP3   OH218601   2.541   6.786   5.814
 6215TIP3    H118602   2.472   6.726   5.785
 6215TIP3    H218603   2.533   6.862   5.756
 6216TIP3   OH218604   4.105   0.632   0.774
 6216TIP3    H118605   4.172   0.639   0.705
 6216TIP3    H218606   4.139   0.564   0.832
 6217TIP3   OH218607   1.712   7.442   5.465
 6217TIP3    H118608   1.633   7.460   5.414
 6217TIP3    H218609   1.729   7.349   5.451
 6218TIP3   OH218610   5.235   2.865   6.667
 6218TIP3    H118611   5.219   2.820   6.750
 6218TIP3    H218612   5.150   2.869   6.624
 6219TIP3   OH218613   5.934   3.005   0.471
 6219TIP3    H118614   5.918   3.052   0.390
 6219TIP3    H218615   5.862   2.942   0.477
 6220TIP3   OH218616   2.165   3.253   6.597
 6220TIP3    H118617   2.257   3.249   6.570
 6220TIP3    H218618   2.117   3.275   6.517
 6221TIP3   OH218619   7.038   5.055   5.199
 6221TIP3    H118620   7.011   5.147   5.200
 6221TIP3    H218621   7.134   5.058   5.196
 6222TIP3   OH218622   8.335   2.111   5.006
 6222TIP3    H118623   8.251   2.087   5.045
 6222TIP3    H218624   8.385   2.148   5.078
 6223TIP3   OH218625   0.616   2.172   2.442
 6223TIP3    H118626   0.524   2.175   2.467
 6223TIP3    H218627   0.617   2.124   2.359
 6224TIP3   OH218628   5.064   0.246   1.102
 6224TIP3    H118629   5.109   0.306   1.162
 6224TIP3    H218630   5.114   0.165   1.107
 6225TIP3   OH218631   2.516   3.605   3.718
 6225TIP3    H118632   2.492   3.532   3.660
 6225TIP3    H218633   2.450   3.672   3.700
 6226TIP3   OH218634   6.138   7.029   0.815
 6226TIP3    H118635   6.135   7.115   0.773
 6226TIP3    H218636   6.211   7.035   0.876
 6227TIP3   OH218637   3.316   6.258   5.259
 6227TIP3    H118638   3.313   6.239   5.166
 6227TIP3    H218639   3.314   6.172   5.302
 6228TIP3   OH218640   4.199   6.210   5.558
 6228TIP3    H118641   4.166   6.297   5.580
 6228TIP3    H218642   4.240   6.178   5.638
 6229TIP3   OH218643   5.639   3.305   6.036
 6229TIP3    H118644   5.621   3.212   6.049
 6229TIP3    H218645   5.611   3.347   6.117
 6230TIP3   OH218646   7.564   6.153   4.329
 6230TIP3    H118647   7.601   6.076   4.373
 6230TIP3    H218648   7.595   6.227   4.380
 6231TIP3   OH218649   3.131   4.821   6.770
 6231TIP3    H118650   3.106   4.866   6.690
 6231TIP3    H218651   3.208   4.770   6.746
 6232TIP3   OH218652   0.048   6.412   5.523
 6232TIP3    H118653   0.085   6.399   5.610
 6232TIP3    H218654   0.021   6.503   5.521
 6233TIP3   OH218655   8.035   4.430   0.842
 6233TIP3    H118656   8.080   4.514   0.843
 6233TIP3    H218657   7.988   4.429   0.758
 6234TIP3   OH218658   8.075   3.230   3.815
 6234TIP3    H118659   8.078   3.134   3.821
 6234TIP3    H218660   7.990   3.249   3.776
 6235TIP3   OH218661   0.034   6.382   0.257
 6235TIP3    H118662  -0.023   6.429   0.197
 6235TIP3    H218663   0.033   6.292   0.225
 6236TIP3   OH218664   0.939   2.687   1.099
 6236TIP3    H118665   1.002   2.644   1.042
 6236TIP3    H218666   0.942   2.636   1.180
 6237TIP3   OH218667   4.811   0.294   1.767
 6237TIP3    H118668   4.789   0.252   1.684
 6237TIP3    H218669   4.759   0.246   1.832
 6238TIP3   OH218670   4.061   4.756   5.170
 6238TIP3    H118671   4.036   4.776   5.079
 6238TIP3    H218672   4.072   4.661   5.172
 6239TIP3   OH218673   4.308   7.240   4.162
 6239TIP3    H118674   4.342   7.284   4.084
 6239TIP3    H218675   4.294   7.150   4.134
 6240TIP3   OH218676   5.864   7.542   4.148
 6240TIP3    H118677   5.915   7.517   4.070
 6240TIP3    H218678   5.877   7.469   4.209
 6241TIP3   OH218679   5.148   2.861   4.826
 6241TIP3    H118680   5.067   2.816   4.848
 6241TIP3    H218681   5.204   2.793   4.790
 6242TIP3   OH218682   5.535   1.913   5.620
 6242TIP3    H118683   5.582   1.955   5.691
 6242TIP3    H218684   5.459   1.873   5.662
 6243TIP3   OH218685   7.183   3.075   5.289
 6243TIP3    H118686   7.196   3.153   5.234
 6243TIP3    H218687   7.232   3.095   5.370
 6244TIP3   OH218688   0.707   7.791   0.242
 6244TIP3    H118689   0.614   7.781   0.220
 6244TIP3    H218690   0.721   7.728   0.313
 6245TIP3   OH218691   2.881   6.561   4.655
 6245TIP3    H118692   2.835   6.548   4.738
 6245TIP3    H218693   2.850   6.646   4.623
 6246TIP3   OH218694   2.375   0.310   3.599
 6246TIP3    H118695   2.363   0.349   3.686
 6246TIP3    H218696   2.340   0.375   3.539
 6247TIP3   OH218697   4.725   3.154   2.906
 6247TIP3    H118698   4.632   3.155   2.882
 6247TIP3    H218699   4.769   3.122   2.827
 6248TIP3   OH218700   0.457   4.282   6.447
 6248TIP3    H118701   0.456   4.320   6.535
 6248TIP3    H218702   0.519   4.336   6.398
 6249TIP3   OH218703   5.007   6.028   0.878
 6249TIP3    H118704   5.055   6.111   0.888
 6249TIP3    H218705   5.022   5.983   0.961
 6250TIP3   OH218706   0.674   2.800   4.589
 6250TIP3    H118707   0.612   2.850   4.536
 6250TIP3    H218708   0.719   2.867   4.641
 6251TIP3   OH218709   5.568   0.475   5.824
 6251TIP3    H118710   5.479   0.440   5.825
 6251TIP3    H218711   5.609   0.435   5.747
 6252TIP3   OH218712   6.593   1.841   6.370
 6252TIP3    H118713   6.513   1.790   6.379
 6252TIP3    H218714   6.608   1.846   6.276
 6253TIP3   OH218715   1.644   3.755   4.806
 6253TIP3    H118716   1.643   3.702   4.726
 6253TIP3    H218717   1.725   3.730   4.850
 6254TIP3   OH218718   1.646   7.477   3.172
 6254TIP3    H118719   1.695   7.410   3.123
 6254TIP3    H218720   1.554   7.457   3.156
 6255TIP3   OH218721   2.917   7.109   0.523
 6255TIP3    H118722   2.885   7.152   0.603
 6255TIP3    H218723   3.010   7.134   0.518
 6256TIP3   OH218724   1.890   2.786   0.944
 6256TIP3    H118725   1.913   2.703   0.901
 6256TIP3    H218726   1.848   2.758   1.026
 6257TIP3   OH218727   0.875   0.479   5.363
 6257TIP3    H118728   0.904   0.398   5.405
 6257TIP3    H218729   0.946   0.542   5.380
 6258TIP3   OH218730   3.740   7.336   1.258
 6258TIP3    H118731   3.826   7.305   1.286
 6258TIP3    H218732   3.735   7.426   1.290
 6259TIP3   OH218733   5.531   4.282   5.210
 6259TIP3    H118734   5.586   4.233   5.271
 6259TIP3    H218735   5.452   4.303   5.259
 6260TIP3   OH218736   4.658  -0.011   3.434
 6260TIP3    H118737   4.646  -0.084   3.373
 6260TIP3    H218738   4.744   0.025   3.412
 6261TIP3   OH218739   2.397   3.648   2.527
 6261TIP3    H118740   2.387   3.561   2.566
 6261TIP3    H218741   2.435   3.702   2.597
 6262TIP3   OH218742   0.092   1.175   1.015
 6262TIP3    H118743   0.001   1.160   0.987
 6262TIP3    H218744   0.093   1.151   1.107
 6263TIP3   OH218745   4.826   1.670   5.344
 6263TIP3    H118746   4.904   1.696   5.296
 6263TIP3    H218747   4.853   1.670   5.436
 6264TIP3   OH218748   8.031   4.296   3.726
 6264TIP3    H118749   8.082   4.341   3.659
 6264TIP3    H218750   8.055   4.204   3.718
 6265TIP3   OH218751   5.677   0.601   1.999
 6265TIP3    H118752   5.734   0.610   2.075
 6265TIP3    H218753   5.656   0.508   1.995
 6266TIP3   OH218754   6.282   2.233   3.286
 6266TIP3    H118755   6.373   2.205   3.298
 6266TIP3    H218756   6.230   2.161   3.320
 6267TIP3   OH218757   0.126   3.582   1.025
 6267TIP3    H118758   0.130   3.556   0.933
 6267TIP3    H218759   0.082   3.509   1.069
 6268TIP3   OH218760   5.703   0.259   0.584
 6268TIP3    H118761   5.699   0.196   0.656
 6268TIP3    H218762   5.765   0.325   0.613
 6269TIP3   OH218763   1.751   3.553   0.947
 6269TIP3    H118764   1.686   3.582   1.011
 6269TIP3    H218765   1.723   3.592   0.865
 6270TIP3   OH218766   1.714   0.358   2.214
 6270TIP3    H118767   1.704   0.300   2.139
 6270TIP3    H218768   1.700   0.446   2.179
 6271TIP3   OH218769   8.209   4.858   2.191
 6271TIP3    H118770   8.142   4.809   2.144
 6271TIP3    H218771   8.161   4.904   2.260
 6272TIP3   OH218772   2.438   6.518   4.988
 6272TIP3    H118773   2.522   6.536   5.031
 6272TIP3    H218774   2.377   6.502   5.060
 6273TIP3   OH218775   4.197   3.578   0.584
 6273TIP3    H118776   4.248   3.553   0.660
 6273TIP3    H218777   4.242   3.536   0.510
 6274TIP3   OH218778   7.173   5.488   3.513
 6274TIP3    H118779   7.180   5.417   3.577
 6274TIP3    H218780   7.148   5.444   3.432
 6275TIP3   OH218781   7.488   5.361   4.138
 6275TIP3    H118782   7.411   5.376   4.084
 6275TIP3    H218783   7.560   5.353   4.076
 6276TIP3   OH218784   0.852   1.909   1.375
 6276TIP3    H118785   0.867   2.001   1.352
 6276TIP3    H218786   0.834   1.866   1.292
 6277TIP3   OH218787   2.470   4.709   2.378
 6277TIP3    H118788   2.379   4.723   2.401
 6277TIP3    H218789   2.478   4.615   2.364
 6278TIP3   OH218790   2.803   2.551   3.954
 6278TIP3    H118791   2.746   2.592   4.019
 6278TIP3    H218792   2.750   2.548   3.874
 6279TIP3   OH218793   4.520   7.360   0.646
 6279TIP3    H118794   4.477   7.342   0.562
 6279TIP3    H218795   4.517   7.277   0.693
 6280TIP3   OH218796   7.657   3.912   1.755
 6280TIP3    H118797   7.710   3.925   1.677
 6280TIP3    H218798   7.648   3.816   1.762
 6281TIP3   OH218799   4.172   7.546   0.352
 6281TIP3    H118800   4.175   7.641   0.353
 6281TIP3    H218801   4.137   7.523   0.266
 6282TIP3   OH218802   1.600   4.018   4.939
 6282TIP3    H118803   1.652   3.941   4.917
 6282TIP3    H218804   1.629   4.042   5.027
 6283TIP3   OH218805   1.199   2.233   2.074
 6283TIP3    H118806   1.251   2.312   2.063
 6283TIP3    H218807   1.119   2.249   2.023
 6284TIP3   OH218808   1.439   0.726   0.829
 6284TIP3    H118809   1.390   0.797   0.870
 6284TIP3    H218810   1.387   0.647   0.848
 6285TIP3   OH218811   2.322   5.644   4.892
 6285TIP3    H118812   2.352   5.554   4.904
 6285TIP3    H218813   2.370   5.675   4.814
 6286TIP3   OH218814   5.155   7.078   1.994
 6286TIP3    H118815   5.227   7.044   1.941
 6286TIP3    H218816   5.095   7.118   1.932
 6287TIP3   OH218817   5.356   4.556   0.233
 6287TIP3    H118818   5.310   4.479   0.267
 6287TIP3    H218819   5.445   4.526   0.216
 6288TIP3   OH218820   0.573   1.316   1.494
 6288TIP3    H118821   0.525   1.297   1.575
 6288TIP3    H218822   0.665   1.307   1.519
 6289TIP3   OH218823   7.660   0.642   6.795
 6289TIP3    H118824   7.670   0.712   6.859
 6289TIP3    H218825   7.565   0.636   6.781
 6290TIP3   OH218826   7.938   0.287   1.537
 6290TIP3    H118827   7.999   0.245   1.597
 6290TIP3    H218828   7.867   0.223   1.527
 6291TIP3   OH218829   7.555   0.627   4.275
 6291TIP3    H118830   7.475   0.594   4.233
 6291TIP3    H218831   7.619   0.557   4.260
 6292TIP3   OH218832   2.173   0.293   3.982
 6292TIP3    H118833   2.220   0.275   3.901
 6292TIP3    H218834   2.205   0.379   4.010
 6293TIP3   OH218835   3.625   5.226   1.166
 6293TIP3    H118836   3.563   5.250   1.235
 6293TIP3    H218837   3.704   5.199   1.213
 6294TIP3   OH218838   4.923   2.083   0.517
 6294TIP3    H118839   4.958   1.997   0.494
 6294TIP3    H218840   4.945   2.094   0.610
 6295TIP3   OH218841   7.783   6.139   3.615
 6295TIP3    H118842   7.864   6.144   3.664
 6295TIP3    H218843   7.776   6.047   3.589
 6296TIP3   OH218844   5.103   7.638   5.156
 6296TIP3    H118845   5.056   7.676   5.230
 6296TIP3    H218846   5.037   7.633   5.086
 6297TIP3   OH218847   2.000   7.745   0.482
 6297TIP3    H118848   2.077   7.777   0.434
 6297TIP3    H218849   2.008   7.650   0.481
 6298TIP3   OH218850   7.157   7.602   6.717
 6298TIP3    H118851   7.217   7.612   6.643
 6298TIP3    H218852   7.071   7.592   6.676
 6299TIP3   OH218853   5.615   3.573   0.214
 6299TIP3    H118854   5.567   3.493   0.237
 6299TIP3    H218855   5.550   3.627   0.169
 6300TIP3   OH218856   6.230   4.061   5.424
 6300TIP3    H118857   6.263   3.993   5.364
 6300TIP3    H218858   6.293   4.133   5.415
 6301TIP3   OH218859   6.160   3.862   0.821
 6301TIP3    H118860   6.115   3.876   0.737
 6301TIP3    H218861   6.185   3.770   0.820
 6302TIP3   OH218862   4.725   1.784   3.640
 6302TIP3    H118863   4.647   1.780   3.585
 6302TIP3    H218864   4.719   1.706   3.696
 6303TIP3   OH218865   6.366   2.388   3.548
 6303TIP3    H118866   6.437   2.380   3.485
 6303TIP3    H218867   6.337   2.479   3.540
 6304TIP3   OH218868   3.351   4.251   2.578
 6304TIP3    H118869   3.315   4.163   2.594
 6304TIP3    H218870   3.290   4.310   2.622
 6305TIP3   OH218871   7.038   1.512   0.251
 6305TIP3    H118872   6.948   1.537   0.273
 6305TIP3    H218873   7.044   1.420   0.276
 6306TIP3   OH218874   4.808   7.650   6.519
 6306TIP3    H118875   4.851   7.726   6.479
 6306TIP3    H218876   4.771   7.602   6.445
 6307TIP3   OH218877   3.155   2.498   0.201
 6307TIP3    H118878   3.133   2.563   0.135
 6307TIP3    H218879   3.219   2.540   0.257
 6308TIP3   OH218880   4.836   1.607   0.527
 6308TIP3    H118881   4.774   1.589   0.598
 6308TIP3    H218882   4.917   1.565   0.555
 6309TIP3   OH218883   6.240   6.024   0.005
 6309TIP3    H118884   6.281   6.092   0.058
 6309TIP3    H218885   6.259   5.942   0.051
 6310TIP3   OH218886   7.672   6.177   0.592
 6310TIP3    H118887   7.673   6.107   0.527
 6310TIP3    H218888   7.745   6.157   0.651
 6311TIP3   OH218889   4.761   4.106   4.316
 6311TIP3    H118890   4.813   4.145   4.246
 6311TIP3    H218891   4.714   4.034   4.274
 6312TIP3   OH218892   5.467   2.957   4.863
 6312TIP3    H118893   5.408   3.008   4.918
 6312TIP3    H218894   5.492   3.017   4.792
 6313TIP3   OH218895   1.118   2.382   0.257
 6313TIP3    H118896   1.112   2.438   0.334
 6313TIP3    H218897   1.136   2.295   0.292
 6314TIP3   OH218898   6.555   4.677   6.417
 6314TIP3    H118899   6.479   4.645   6.368
 6314TIP3    H218900   6.522   4.691   6.506
 6315TIP3   OH218901   2.524   4.451   2.180
 6315TIP3    H118902   2.461   4.435   2.250
 6315TIP3    H218903   2.525   4.370   2.129
 6316TIP3   OH218904   0.764   5.665   3.988
 6316TIP3    H118905   0.775   5.686   4.081
 6316TIP3    H218906   0.724   5.579   3.987
 6317TIP3   OH218907   4.999   4.311   5.381
 6317TIP3    H118908   5.070   4.305   5.317
 6317TIP3    H218909   5.016   4.393   5.427
 6318TIP3   OH218910   4.847   6.143   1.582
 6318TIP3    H118911   4.895   6.212   1.537
 6318TIP3    H218912   4.808   6.091   1.512
 6319TIP3   OH218913   3.922   6.068   0.129
 6319TIP3    H118914   3.944   6.133   0.062
 6319TIP3    H218915   4.000   6.012   0.133
 6320TIP3   OH218916   7.394   6.787   0.424
 6320TIP3    H118917   7.446   6.862   0.395
 6320TIP3    H218918   7.440   6.756   0.503
 6321TIP3   OH218919   2.041   2.774   3.144
 6321TIP3    H118920   1.956   2.751   3.105
 6321TIP3    H218921   2.088   2.692   3.150
 6322TIP3   OH218922   4.360   2.812   6.538
 6322TIP3    H118923   4.342   2.767   6.620
 6322TIP3    H218924   4.427   2.876   6.560
 6323TIP3   OH218925   1.065   6.905   2.051
 6323TIP3    H118926   0.996   6.917   2.116
 6323TIP3    H218927   1.146   6.923   2.099
 6324TIP3   OH218928   3.016   2.829   5.183
 6324TIP3    H118929   2.987   2.745   5.219
 6324TIP3    H218930   3.039   2.809   5.092
 6325TIP3   OH218931   7.616   2.289   5.287
 6325TIP3    H118932   7.677   2.361   5.300
 6325TIP3    H218933   7.581   2.303   5.199
 6326TIP3   OH218934   4.238   2.110   6.488
 6326TIP3    H118935   4.324   2.138   6.456
 6326TIP3    H218936   4.239   2.131   6.581
 6327TIP3   OH218937   1.982   6.943   1.786
 6327TIP3    H118938   1.914   6.969   1.724
 6327TIP3    H218939   1.941   6.877   1.841
 6328TIP3   OH218940   7.930   4.056   1.163
 6328TIP3    H118941   7.943   3.991   1.232
 6328TIP3    H218942   7.891   4.006   1.090
 6329TIP3   OH218943   0.634   3.685   6.252
 6329TIP3    H118944   0.556   3.634   6.276
 6329TIP3    H218945   0.686   3.689   6.332
 6330TIP3   OH218946   1.418   2.353   4.307
 6330TIP3    H118947   1.494   2.403   4.336
 6330TIP3    H218948   1.438   2.328   4.217
 6331TIP3   OH218949   4.747   1.252   5.215
 6331TIP3    H118950   4.657   1.267   5.187
 6331TIP3    H218951   4.755   1.302   5.297
 6332TIP3   OH218952   4.201   2.603   1.748
 6332TIP3    H118953   4.183   2.550   1.826
 6332TIP3    H218954   4.117   2.609   1.703
 6333TIP3   OH218955   3.491   5.318   2.663
 6333TIP3    H118956   3.541   5.351   2.738
 6333TIP3    H218957   3.401   5.312   2.696
 6334TIP3   OH218958   5.425   7.383   1.307
 6334TIP3    H118959   5.509   7.356   1.346
 6334TIP3    H218960   5.388   7.302   1.272
 6335TIP3   OH218961   3.748   5.585   6.258
 6335TIP3    H118962   3.805   5.579   6.181
 6335TIP3    H218963   3.660   5.587   6.222
 6336TIP3   OH218964   1.536   1.003   3.121
 6336TIP3    H118965   1.631   1.000   3.125
 6336TIP3    H218966   1.508   0.998   3.213
 6337TIP3   OH218967   4.191   7.707   2.001
 6337TIP3    H118968   4.262   7.767   2.025
 6337TIP3    H218969   4.215   7.624   2.042
 6338TIP3   OH218970   3.563   2.765   1.790
 6338TIP3    H118971   3.468   2.762   1.777
 6338TIP3    H218972   3.579   2.706   1.864
 6339TIP3   OH218973   7.305   2.554   3.801
 6339TIP3    H118974   7.317   2.520   3.713
 6339TIP3    H218975   7.285   2.476   3.854
 6340TIP3   OH218976   7.443   7.427   0.656
 6340TIP3    H118977   7.372   7.377   0.696
 6340TIP3    H218978   7.421   7.519   0.674
 6341TIP3   OH218979   1.964   4.089   3.339
 6341TIP3    H118980   1.971   4.003   3.380
 6341TIP3    H218981   2.000   4.150   3.404
 6342TIP3   OH218982   2.581   5.263   2.054
 6342TIP3    H118983   2.551   5.265   1.963
 6342TIP3    H218984   2.558   5.176   2.085
 6343TIP3   OH218985   2.876   0.532   1.033
 6343TIP3    H118986   2.913   0.542   0.945
 6343TIP3    H218987   2.794   0.484   1.020
 6344TIP3   OH218988   6.873   6.427   0.197
 6344TIP3    H118989   6.928   6.351   0.177
 6344TIP3    H218990   6.849   6.416   0.289
 6345TIP3   OH218991   1.601   3.985   0.014
 6345TIP3    H118992   1.565   3.900  -0.015
 6345TIP3    H218993   1.682   3.994  -0.035
 6346TIP3   OH218994   6.085   5.478   6.343
 6346TIP3    H118995   6.113   5.570   6.347
 6346TIP3    H218996   6.088   5.457   6.250
 6347TIP3   OH218997   2.508   3.613   6.043
 6347TIP3    H118998   2.465   3.698   6.054
 6347TIP3    H218999   2.556   3.599   6.124
 6348TIP3   OH219000   0.159   0.719   0.287
 6348TIP3    H119001   0.114   0.673   0.217
 6348TIP3    H219002   0.251   0.695   0.276
 6349TIP3   OH219003   0.443   3.427   3.921
 6349TIP3    H119004   0.357   3.389   3.902
 6349TIP3    H219005   0.444   3.439   4.016
 6350TIP3   OH219006   0.336   4.022   5.900
 6350TIP3    H119007   0.266   3.959   5.887
 6350TIP3    H219008   0.314   4.067   5.982
 6351TIP3   OH219009   4.475   1.394   1.967
 6351TIP3    H119010   4.531   1.359   1.898
 6351TIP3    H219011   4.423   1.319   1.996
 6352TIP3   OH219012   3.875   5.106   1.268
 6352TIP3    H119013   3.906   5.039   1.329
 6352TIP3    H219014   3.897   5.072   1.181
 6353TIP3   OH219015   2.131   4.117   0.284
 6353TIP3    H119016   2.160   4.086   0.370
 6353TIP3    H219017   2.047   4.074   0.271
 6354TIP3   OH219018   6.829   4.857   5.141
 6354TIP3    H119019   6.903   4.915   5.153
 6354TIP3    H219020   6.847   4.782   5.198
 6355TIP3   OH219021   0.674   4.118   5.457
 6355TIP3    H119022   0.612   4.049   5.479
 6355TIP3    H219023   0.709   4.147   5.542
 6356TIP3   OH219024   5.448   4.847   5.862
 6356TIP3    H119025   5.435   4.759   5.825
 6356TIP3    H219026   5.539   4.848   5.892
 6357TIP3   OH219027   1.743   4.678   1.023
 6357TIP3    H119028   1.805   4.635   0.964
 6357TIP3    H219029   1.743   4.769   0.995
 6358TIP3   OH219030   5.125   6.028   0.164
 6358TIP3    H119031   5.124   6.105   0.106
 6358TIP3    H219032   5.034   5.997   0.163
 6359TIP3   OH219033   5.516   0.305   5.040
 6359TIP3    H119034   5.556   0.331   5.122
 6359TIP3    H219035   5.589   0.299   4.978
 6360TIP3   OH219036   3.643   2.507   3.022
 6360TIP3    H119037   3.614   2.465   3.103
 6360TIP3    H219038   3.676   2.434   2.968
 6361TIP3   OH219039   6.186   6.454   0.218
 6361TIP3    H119040   6.171   6.492   0.304
 6361TIP3    H219041   6.251   6.385   0.233
 6362TIP3   OH219042   4.193   3.484   6.285
 6362TIP3    H119043   4.281   3.454   6.305
 6362TIP3    H219044   4.173   3.548   6.353
 6363TIP3   OH219045   7.087   1.869   0.449
 6363TIP3    H119046   7.104   1.950   0.496
 6363TIP3    H219047   7.140   1.875   0.369
 6364TIP3   OH219048   1.495   0.651   5.441
 6364TIP3    H119049   1.411   0.693   5.462
 6364TIP3    H219050   1.506   0.665   5.347
 6365TIP3   OH219051   6.306   5.695   0.439
 6365TIP3    H119052   6.381   5.638   0.423
 6365TIP3    H219053   6.345   5.777   0.471
 6366TIP3   OH219054   7.437   0.352   4.211
 6366TIP3    H119055   7.447   0.293   4.286
 6366TIP3    H219056   7.433   0.293   4.135
 6367TIP3   OH219057   5.765   3.235   5.283
 6367TIP3    H119058   5.857   3.229   5.309
 6367TIP3    H219059   5.767   3.226   5.188
 6368TIP3   OH219060   4.465   6.000   5.216
 6368TIP3    H119061   4.434   5.967   5.131
 6368TIP3    H219062   4.444   6.093   5.214
 6369TIP3   OH219063   4.948   7.083   3.820
 6369TIP3    H119064   5.015   7.085   3.888
 6369TIP3    H219065   4.876   7.034   3.859
 6370TIP3   OH219066   2.501   7.344   3.838
 6370TIP3    H119067   2.564   7.338   3.766
 6370TIP3    H219068   2.475   7.436   3.840
 6371TIP3   OH219069   5.187   0.270   0.418
 6371TIP3    H119070   5.175   0.310   0.504
 6371TIP3    H219071   5.273   0.229   0.422
 6372TIP3   OH219072   4.100   0.331   3.398
 6372TIP3    H119073   4.193   0.341   3.376
 6372TIP3    H219074   4.099   0.286   3.482
 6373TIP3   OH219075   4.226   0.076   2.878
 6373TIP3    H119076   4.155   0.054   2.937
 6373TIP3    H219077   4.200   0.038   2.794
 6374TIP3   OH219078   4.201   0.363   4.097
 6374TIP3    H119079   4.225   0.352   4.005
 6374TIP3    H219080   4.123   0.419   4.094
 6375TIP3   OH219081   1.641   2.378   0.214
 6375TIP3    H119082   1.593   2.408   0.137
 6375TIP3    H219083   1.584   2.313   0.255
 6376TIP3   OH219084   0.536   0.918   5.668
 6376TIP3    H119085   0.472   0.989   5.667
 6376TIP3    H219086   0.595   0.938   5.595
 6377TIP3   OH219087   5.996   0.313   3.964
 6377TIP3    H119088   6.033   0.330   4.051
 6377TIP3    H219089   5.930   0.245   3.979
 6378TIP3   OH219090   4.443   0.736   0.939
 6378TIP3    H119091   4.365   0.783   0.970
 6378TIP3    H219092   4.495   0.804   0.895
 6379TIP3   OH219093   0.883   6.458   2.099
 6379TIP3    H119094   0.918   6.457   2.010
 6379TIP3    H219095   0.873   6.365   2.122
 6380TIP3   OH219096   3.374   1.590   2.160
 6380TIP3    H119097   3.292   1.603   2.208
 6380TIP3    H219098   3.428   1.537   2.219
 6381TIP3   OH219099   4.474   3.983   0.807
 6381TIP3    H119100   4.418   3.909   0.784
 6381TIP3    H219101   4.507   4.016   0.724
 6382TIP3   OH219102   3.726   3.194   5.368
 6382TIP3    H119103   3.692   3.177   5.280
 6382TIP3    H219104   3.789   3.124   5.383
 6383TIP3   OH219105   2.440   2.437   5.352
 6383TIP3    H119106   2.445   2.531   5.371
 6383TIP3    H219107   2.409   2.398   5.433
 6384TIP3   OH219108   6.540   3.490   5.387
 6384TIP3    H119109   6.503   3.440   5.315
 6384TIP3    H219110   6.627   3.515   5.356
 6385TIP3   OH219111   2.412   1.768   0.515
 6385TIP3    H119112   2.411   1.685   0.468
 6385TIP3    H219113   2.504   1.783   0.536
 6386TIP3   OH219114   0.058   6.422   2.465
 6386TIP3    H119115  -0.022   6.465   2.437
 6386TIP3    H219116   0.085   6.369   2.390
 6387TIP3   OH219117   0.370   6.635   5.592
 6387TIP3    H119118   0.299   6.684   5.633
 6387TIP3    H219119   0.368   6.664   5.500
 6388TIP3   OH219120   6.668   1.176   1.126
 6388TIP3    H119121   6.731   1.203   1.192
 6388TIP3    H219122   6.648   1.085   1.147
 6389TIP3   OH219123   6.638   5.787   1.678
 6389TIP3    H119124   6.582   5.857   1.643
 6389TIP3    H219125   6.584   5.709   1.673
 6390TIP3   OH219126   6.492   3.199   3.103
 6390TIP3    H119127   6.523   3.236   3.186
 6390TIP3    H219128   6.397   3.189   3.116
 6391TIP3   OH219129   8.102   7.735   1.417
 6391TIP3    H119130   8.101   7.814   1.364
 6391TIP3    H219131   8.183   7.691   1.394
 6392TIP3   OH219132   5.288   6.881   1.831
 6392TIP3    H119133   5.269   6.833   1.911
 6392TIP3    H219134   5.227   6.845   1.767
 6393TIP3   OH219135   2.673   7.533   4.956
 6393TIP3    H119136   2.733   7.601   4.987
 6393TIP3    H219137   2.650   7.483   5.035
 6394TIP3   OH219138   7.241   1.386   0.737
 6394TIP3    H119139   7.179   1.443   0.692
 6394TIP3    H219140   7.201   1.368   0.822
 6395TIP3   OH219141   3.862   6.065   1.655
 6395TIP3    H119142   3.919   5.990   1.639
 6395TIP3    H219143   3.801   6.065   1.581
 6396TIP3   OH219144   0.900   2.060   4.869
 6396TIP3    H119145   0.810   2.033   4.887
 6396TIP3    H219146   0.942   1.981   4.835
 6397TIP3   OH219147   6.226   2.421   0.658
 6397TIP3    H119148   6.270   2.353   0.709
 6397TIP3    H219149   6.135   2.416   0.687
 6398TIP3   OH219150   3.467   2.023   1.838
 6398TIP3    H119151   3.371   2.018   1.832
 6398TIP3    H219152   3.483   2.090   1.905
 6399TIP3   OH219153   4.098   7.531   1.682
 6399TIP3    H119154   4.147   7.491   1.753
 6399TIP3    H219155   4.147   7.507   1.603
 6400TIP3   OH219156   0.260   6.606   4.979
 6400TIP3    H119157   0.354   6.594   4.971
 6400TIP3    H219158   0.242   6.688   4.931
 6401TIP3   OH219159   0.494   0.109   2.702
 6401TIP3    H119160   0.477   0.085   2.793
 6401TIP3    H219161   0.585   0.083   2.687
 6402TIP3   OH219162   5.949   3.504   4.681
 6402TIP3    H119163   5.964   3.524   4.589
 6402TIP3    H219164   5.916   3.585   4.719
 6403TIP3   OH219165   5.635   1.400   2.368
 6403TIP3    H119166   5.711   1.372   2.318
 6403TIP3    H219167   5.561   1.356   2.326
 6404TIP3   OH219168   5.384   6.184   4.614
 6404TIP3    H119169   5.305   6.177   4.668
 6404TIP3    H219170   5.381   6.273   4.578
 6405TIP3   OH219171   7.641   3.159   0.810
 6405TIP3    H119172   7.706   3.215   0.851
 6405TIP3    H219173   7.582   3.134   0.881
 6406TIP3   OH219174   1.390   0.243   3.710
 6406TIP3    H119175   1.358   0.267   3.797
 6406TIP3    H219176   1.311   0.218   3.661
 6407TIP3   OH219177   6.008   6.845   5.038
 6407TIP3    H119178   6.076   6.777   5.039
 6407TIP3    H219179   5.997   6.867   4.946
 6408TIP3   OH219180   4.410   6.241   3.458
 6408TIP3    H119181   4.317   6.257   3.471
 6408TIP3    H219182   4.416   6.149   3.435
 6409TIP3   OH219183   7.725   3.654   5.443
 6409TIP3    H119184   7.819   3.672   5.438
 6409TIP3    H219185   7.685   3.719   5.385
 6410TIP3   OH219186   6.757   5.694   0.018
 6410TIP3    H119187   6.787   5.626  -0.042
 6410TIP3    H219188   6.835   5.747   0.037
 6411TIP3   OH219189   5.348   2.431   1.195
 6411TIP3    H119190   5.442   2.420   1.212
 6411TIP3    H219191   5.332   2.379   1.116
 6412TIP3   OH219192   1.544   4.481   0.923
 6412TIP3    H119193   1.470   4.462   0.980
 6412TIP3    H219194   1.573   4.568   0.951
 6413TIP3   OH219195   2.790   3.658   6.779
 6413TIP3    H119196   2.787   3.571   6.819
 6413TIP3    H219197   2.881   3.669   6.751
 6414TIP3   OH219198   1.672   4.546   5.732
 6414TIP3    H119199   1.608   4.565   5.663
 6414TIP3    H219200   1.619   4.512   5.804
 6415TIP3   OH219201   6.565   6.586   2.739
 6415TIP3    H119202   6.590   6.511   2.685
 6415TIP3    H219203   6.532   6.651   2.677
 6416TIP3   OH219204   3.003   5.248   2.295
 6416TIP3    H119205   2.982   5.323   2.351
 6416TIP3    H219206   3.094   5.262   2.269
 6417TIP3   OH219207   3.080   2.404   1.582
 6417TIP3    H119208   3.111   2.422   1.492
 6417TIP3    H219209   2.987   2.383   1.571
 6418TIP3   OH219210   7.131   2.676   1.173
 6418TIP3    H119211   7.225   2.660   1.177
 6418TIP3    H219212   7.093   2.606   1.227
 6419TIP3   OH219213   1.115   4.278   3.641
 6419TIP3    H119214   1.030   4.311   3.670
 6419TIP3    H219215   1.143   4.218   3.711
 6420TIP3   OH219216   2.658   1.984   2.851
 6420TIP3    H119217   2.731   1.924   2.833
 6420TIP3    H219218   2.624   2.005   2.764
 6421TIP3   OH219219   3.259   2.424   5.192
 6421TIP3    H119220   3.237   2.363   5.261
 6421TIP3    H219221   3.340   2.389   5.153
 6422TIP3   OH219222   5.936   4.366   0.741
 6422TIP3    H119223   6.008   4.345   0.800
 6422TIP3    H219224   5.957   4.320   0.660
 6423TIP3   OH219225   7.085   3.038   3.292
 6423TIP3    H119226   7.084   3.073   3.381
 6423TIP3    H219227   7.013   2.974   3.292
 6424TIP3   OH219228   4.741   0.138   1.540
 6424TIP3    H119229   4.771   0.091   1.462
 6424TIP3    H219230   4.714   0.069   1.601
 6425TIP3   OH219231   7.596   4.642   4.061
 6425TIP3    H119232   7.545   4.712   4.102
 6425TIP3    H219233   7.584   4.567   4.119
 6426TIP3   OH219234   6.553   6.148   4.152
 6426TIP3    H119235   6.610   6.095   4.209
 6426TIP3    H219236   6.490   6.187   4.212
 6427TIP3   OH219237   5.991   1.532   2.836
 6427TIP3    H119238   5.963   1.500   2.750
 6427TIP3    H219239   6.003   1.626   2.823
 6428TIP3   OH219240   4.018   1.512   2.263
 6428TIP3    H119241   4.110   1.534   2.258
 6428TIP3    H219242   4.016   1.427   2.307
 6429TIP3   OH219243   0.815   3.233   2.948
 6429TIP3    H119244   0.813   3.324   2.919
 6429TIP3    H219245   0.908   3.211   2.952
 6430TIP3   OH219246   5.360   1.878   6.126
 6430TIP3    H119247   5.361   1.789   6.162
 6430TIP3    H219248   5.281   1.880   6.072
 6431TIP3   OH219249   3.156   6.746   1.636
 6431TIP3    H119250   3.238   6.753   1.684
 6431TIP3    H219251   3.139   6.835   1.604
 6432TIP3   OH219252   3.986   0.988   6.084
 6432TIP3    H119253   4.056   0.936   6.046
 6432TIP3    H219254   3.942   0.929   6.145
 6433TIP3   OH219255   5.757   4.176   6.326
 6433TIP3    H119256   5.770   4.270   6.341
 6433TIP3    H219257   5.781   4.164   6.234
 6434TIP3   OH219258   6.405   6.976   0.961
 6434TIP3    H119259   6.364   7.041   1.018
 6434TIP3    H219260   6.349   6.898   0.970
 6435TIP3   OH219261   0.324   0.306   3.132
 6435TIP3    H119262   0.267   0.378   3.159
 6435TIP3    H219263   0.265   0.232   3.119
 6436TIP3   OH219264   2.037   6.183   0.596
 6436TIP3    H119265   2.031   6.121   0.524
 6436TIP3    H219266   1.949   6.219   0.605
 6437TIP3   OH219267   0.537   6.927   0.098
 6437TIP3    H119268   0.484   6.847   0.097
 6437TIP3    H219269   0.532   6.958   0.188
 6438TIP3   OH219270   1.811   0.537   0.700
 6438TIP3    H119271   1.827   0.447   0.726
 6438TIP3    H219272   1.717   0.542   0.684
 6439TIP3   OH219273   0.963   6.766   1.332
 6439TIP3    H119274   1.002   6.836   1.383
 6439TIP3    H219275   0.948   6.696   1.395
 6440TIP3   OH219276   3.845   2.857   0.602
 6440TIP3    H119277   3.792   2.851   0.522
 6440TIP3    H219278   3.928   2.897   0.572
 6441TIP3   OH219279   7.614   1.181   4.431
 6441TIP3    H119280   7.637   1.224   4.349
 6441TIP3    H219281   7.662   1.098   4.428
 6442TIP3   OH219282   3.723   2.080   1.725
 6442TIP3    H119283   3.701   2.104   1.635
 6442TIP3    H219284   3.639   2.055   1.764
 6443TIP3   OH219285   0.070   1.770   0.327
 6443TIP3    H119286   0.160   1.786   0.355
 6443TIP3    H219287   0.020   1.760   0.408
 6444TIP3   OH219288   2.340   3.987   5.500
 6444TIP3    H119289   2.272   4.045   5.534
 6444TIP3    H219290   2.341   3.913   5.561
 6445TIP3   OH219291   6.840   2.980   4.195
 6445TIP3    H119292   6.755   2.966   4.152
 6445TIP3    H219293   6.880   2.893   4.196
 6446TIP3   OH219294   0.248   5.135   1.620
 6446TIP3    H119295   0.259   5.216   1.670
 6446TIP3    H219296   0.208   5.163   1.537
 6447TIP3   OH219297   6.918   6.802   5.049
 6447TIP3    H119298   6.961   6.756   5.121
 6447TIP3    H219299   6.937   6.748   4.972
 6448TIP3   OH219300   4.262   3.237   6.100
 6448TIP3    H119301   4.232   3.174   6.035
 6448TIP3    H219302   4.239   3.322   6.064
 6449TIP3   OH219303   5.946   4.773   0.333
 6449TIP3    H119304   5.917   4.819   0.255
 6449TIP3    H219305   5.948   4.681   0.308
 6450TIP3   OH219306   3.271   4.951   4.328
 6450TIP3    H119307   3.247   4.887   4.261
 6450TIP3    H219308   3.227   4.920   4.408
 6451TIP3   OH219309   7.094   5.839   0.934
 6451TIP3    H119310   7.125   5.757   0.971
 6451TIP3    H219311   6.999   5.838   0.950
 6452TIP3   OH219312   4.738   3.716   2.776
 6452TIP3    H119313   4.824   3.758   2.772
 6452TIP3    H219314   4.723   3.701   2.870
 6453TIP3   OH219315   2.177   5.670   6.290
 6453TIP3    H119316   2.142   5.693   6.204
 6453TIP3    H219317   2.268   5.644   6.273
 6454TIP3   OH219318   8.111   7.457   5.384
 6454TIP3    H119319   8.195   7.473   5.341
 6454TIP3    H219320   8.107   7.523   5.454
 6455TIP3   OH219321   5.700   3.084   3.781
 6455TIP3    H119322   5.666   3.058   3.696
 6455TIP3    H219323   5.728   3.002   3.822
 6456TIP3   OH219324   6.935   2.447   1.831
 6456TIP3    H119325   7.017   2.406   1.801
 6456TIP3    H219326   6.963   2.522   1.883
 6457TIP3   OH219327   1.251   4.828   0.996
 6457TIP3    H119328   1.281   4.737   0.998
 6457TIP3    H219329   1.328   4.879   1.020
 6458TIP3   OH219330   3.876   5.417   2.063
 6458TIP3    H119331   3.844   5.388   2.149
 6458TIP3    H219332   3.888   5.511   2.073
 6459TIP3   OH219333   6.636   4.333   3.683
 6459TIP3    H119334   6.681   4.268   3.629
 6459TIP3    H219335   6.689   4.338   3.763
 6460TIP3   OH219336   3.994   0.543   4.097
 6460TIP3    H119337   3.911   0.497   4.104
 6460TIP3    H219338   4.006   0.585   4.182
 6461TIP3   OH219339   4.291   2.943   3.167
 6461TIP3    H119340   4.205   2.980   3.188
 6461TIP3    H219341   4.272   2.872   3.106
 6462TIP3   OH219342   7.862   5.256   1.039
 6462TIP3    H119343   7.851   5.272   0.945
 6462TIP3    H219344   7.948   5.214   1.046
 6463TIP3   OH219345   1.929   4.646   0.335
 6463TIP3    H119346   1.862   4.706   0.367
 6463TIP3    H219347   1.888   4.559   0.344
 6464TIP3   OH219348   6.919   0.038   5.652
 6464TIP3    H119349   6.897   0.053   5.560
 6464TIP3    H219350   6.874   0.108   5.699
 6465TIP3   OH219351   7.384   1.173   0.245
 6465TIP3    H119352   7.350   1.229   0.315
 6465TIP3    H219353   7.365   1.084   0.275
 6466TIP3   OH219354   5.480   7.070   2.387
 6466TIP3    H119355   5.450   7.014   2.458
 6466TIP3    H219356   5.401   7.114   2.357
 6467TIP3   OH219357   4.196   2.175   1.368
 6467TIP3    H119358   4.249   2.225   1.307
 6467TIP3    H219359   4.243   2.092   1.377
 6468TIP3   OH219360   7.064   1.755   6.305
 6468TIP3    H119361   6.990   1.719   6.354
 6468TIP3    H219362   7.095   1.828   6.358
 6469TIP3   OH219363   0.952   6.499   1.110
 6469TIP3    H119364   1.001   6.577   1.084
 6469TIP3    H219365   0.936   6.510   1.204
 6470TIP3   OH219366   2.422   7.471   3.512
 6470TIP3    H119367   2.490   7.417   3.553
 6470TIP3    H219368   2.358   7.408   3.480
 6471TIP3   OH219369   5.198   3.814   4.842
 6471TIP3    H119370   5.219   3.806   4.935
 6471TIP3    H219371   5.124   3.875   4.839
 6472TIP3   OH219372   3.208   7.189   0.831
 6472TIP3    H119373   3.166   7.112   0.870
 6472TIP3    H219374   3.291   7.156   0.796
 6473TIP3   OH219375   2.785   4.407   4.676
 6473TIP3    H119376   2.791   4.312   4.675
 6473TIP3    H219377   2.852   4.437   4.615
 6474TIP3   OH219378   5.568   1.060   4.655
 6474TIP3    H119379   5.474   1.047   4.671
 6474TIP3    H219380   5.605   0.972   4.653
 6475TIP3   OH219381   5.271   3.521   5.534
 6475TIP3    H119382   5.255   3.451   5.472
 6475TIP3    H219383   5.202   3.510   5.600
 6476TIP3   OH219384   6.367   4.366   1.736
 6476TIP3    H119385   6.312   4.326   1.803
 6476TIP3    H219386   6.358   4.460   1.750
 6477TIP3   OH219387   2.712   3.037   3.538
 6477TIP3    H119388   2.733   3.120   3.579
 6477TIP3    H219389   2.738   2.971   3.603
 6478TIP3   OH219390   4.323   7.343   0.426
 6478TIP3    H119391   4.285   7.257   0.411
 6478TIP3    H219392   4.255   7.405   0.399
 6479TIP3   OH219393   0.953   7.560   3.409
 6479TIP3    H119394   0.992   7.506   3.478
 6479TIP3    H219395   0.940   7.646   3.450
 6480TIP3   OH219396   0.693   4.367   6.048
 6480TIP3    H119397   0.695   4.291   6.105
 6480TIP3    H219398   0.699   4.442   6.108
 6481TIP3   OH219399   6.674   6.194   6.312
 6481TIP3    H119400   6.660   6.133   6.240
 6481TIP3    H219401   6.674   6.280   6.271
 6482TIP3   OH219402   1.039   4.964   2.886
 6482TIP3    H119403   0.981   5.016   2.941
 6482TIP3    H219404   1.079   4.900   2.946
 6483TIP3   OH219405   2.921   4.355   5.809
 6483TIP3    H119406   2.984   4.320   5.872
 6483TIP3    H219407   2.942   4.310   5.727
 6484TIP3   OH219408   6.698   0.969   2.787
 6484TIP3    H119409   6.643   0.930   2.855
 6484TIP3    H219410   6.778   0.916   2.787
 6485TIP3   OH219411   2.027   2.889   4.767
 6485TIP3    H119412   2.070   2.974   4.760
 6485TIP3    H219413   2.098   2.825   4.765
 6486TIP3   OH219414   0.357   2.354   1.500
 6486TIP3    H119415   0.330   2.295   1.430
 6486TIP3    H219416   0.374   2.437   1.455
 6487TIP3   OH219417   1.382   2.746   4.147
 6487TIP3    H119418   1.370   2.841   4.155
 6487TIP3    H219419   1.455   2.726   4.205
 6488TIP3   OH219420   2.254   0.207   2.149
 6488TIP3    H119421   2.349   0.202   2.136
 6488TIP3    H219422   2.243   0.203   2.244
 6489TIP3   OH219423   2.309   4.489   5.115
 6489TIP3    H119424   2.305   4.541   5.196
 6489TIP3    H219425   2.316   4.398   5.145
 6490TIP3   OH219426   6.464   3.028   2.621
 6490TIP3    H119427   6.546   3.054   2.663
 6490TIP3    H219428   6.396   3.072   2.672
 6491TIP3   OH219429   6.336   6.587   4.305
 6491TIP3    H119430   6.330   6.634   4.222
 6491TIP3    H219431   6.252   6.602   4.349
 6492TIP3   OH219432   2.631   4.756   0.902
 6492TIP3    H119433   2.575   4.832   0.916
 6492TIP3    H219434   2.605   4.694   0.970
 6493TIP3   OH219435   0.239   0.579   2.028
 6493TIP3    H119436   0.305   0.640   1.997
 6493TIP3    H219437   0.206   0.617   2.109
 6494TIP3   OH219438   4.704   0.767   6.768
 6494TIP3    H119439   4.638   0.789   6.703
 6494TIP3    H219440   4.657   0.769   6.851
 6495TIP3   OH219441   1.376   5.345   2.599
 6495TIP3    H119442   1.447   5.393   2.556
 6495TIP3    H219443   1.335   5.295   2.529
 6496TIP3   OH219444   7.505   6.931   5.131
 6496TIP3    H119445   7.548   6.863   5.078
 6496TIP3    H219446   7.430   6.887   5.170
 6497TIP3   OH219447   7.006   4.630   6.393
 6497TIP3    H119448   6.948   4.694   6.351
 6497TIP3    H219449   6.964   4.613   6.478
 6498TIP3   OH219450   6.476   7.185   2.828
 6498TIP3    H119451   6.535   7.190   2.903
 6498TIP3    H219452   6.404   7.129   2.859
 6499TIP3   OH219453   7.717   3.176   1.255
 6499TIP3    H119454   7.738   3.111   1.322
 6499TIP3    H219455   7.635   3.145   1.217
 6500TIP3   OH219456   1.312   4.172   5.154
 6500TIP3    H119457   1.219   4.188   5.141
 6500TIP3    H219458   1.346   4.255   5.188
 6501TIP3   OH219459   2.792   3.205   0.215
 6501TIP3    H119460   2.792   3.296   0.246
 6501TIP3    H219461   2.701   3.188   0.190
 6502TIP3   OH219462   1.371   4.060   0.351
 6502TIP3    H119463   1.397   4.142   0.392
 6502TIP3    H219464   1.377   4.076   0.257
 6503TIP3   OH219465   1.107   4.271   0.573
 6503TIP3    H119466   1.189   4.292   0.617
 6503TIP3    H219467   1.059   4.354   0.572
 6504TIP3   OH219468   1.173   7.569   3.079
 6504TIP3    H119469   1.166   7.553   3.173
 6504TIP3    H219470   1.262   7.540   3.056
 6505TIP3   OH219471   1.001   3.102   6.348
 6505TIP3    H119472   1.056   3.072   6.275
 6505TIP3    H219473   0.990   3.196   6.332
 6506TIP3   OH219474   2.439   3.047   6.254
 6506TIP3    H119475   2.477   3.043   6.166
 6506TIP3    H219476   2.477   2.971   6.299
 6507TIP3   OH219477   8.280   6.721   4.790
 6507TIP3    H119478   8.313   6.732   4.879
 6507TIP3    H219479   8.347   6.761   4.734
 6508TIP3   OH219480   3.237   6.035   5.396
 6508TIP3    H119481   3.145   6.037   5.370
 6508TIP3    H219482   3.241   5.967   5.464
 6509TIP3   OH219483   7.849   4.936   2.608
 6509TIP3    H119484   7.876   5.017   2.651
 6509TIP3    H219485   7.908   4.870   2.643
 6510TIP3   OH219486   5.579   0.746   0.658
 6510TIP3    H119487   5.541   0.819   0.707
 6510TIP3    H219488   5.512   0.724   0.592
 6511TIP3   OH219489   5.303   1.207   2.484
 6511TIP3    H119490   5.353   1.211   2.565
 6511TIP3    H219491   5.216   1.240   2.509
 6512TIP3   OH219492   6.747   7.472   1.358
 6512TIP3    H119493   6.706   7.412   1.295
 6512TIP3    H219494   6.674   7.525   1.391
 6513TIP3   OH219495   6.286   7.648   0.428
 6513TIP3    H119496   6.217   7.708   0.398
 6513TIP3    H219497   6.367   7.692   0.405
 6514TIP3   OH219498   5.897   6.197   0.483
 6514TIP3    H119499   5.954   6.126   0.512
 6514TIP3    H219500   5.933   6.276   0.524
 6515TIP3   OH219501   6.274   0.944   4.323
 6515TIP3    H119502   6.243   0.940   4.233
 6515TIP3    H219503   6.247   1.031   4.354
 6516TIP3   OH219504   0.002   5.670   3.452
 6516TIP3    H119505   0.034   5.748   3.405
 6516TIP3    H219506   0.074   5.607   3.445
 6517TIP3   OH219507   5.929   0.930   0.302
 6517TIP3    H119508   6.023   0.924   0.318
 6517TIP3    H219509   5.917   1.019   0.267
 6518TIP3   OH219510   2.504   3.402   3.550
 6518TIP3    H119511   2.508   3.349   3.471
 6518TIP3    H219512   2.477   3.341   3.618
 6519TIP3   OH219513   2.189   5.874   4.254
 6519TIP3    H119514   2.228   5.820   4.186
 6519TIP3    H219515   2.156   5.951   4.208
 6520TIP3   OH219516   2.529   1.367   2.246
 6520TIP3    H119517   2.444   1.372   2.290
 6520TIP3    H219518   2.578   1.301   2.296
 6521TIP3   OH219519   7.115   6.668   0.249
 6521TIP3    H119520   7.071   6.642   0.329
 6521TIP3    H219521   7.114   6.764   0.250
 6522TIP3   OH219522   7.930   3.715   0.704
 6522TIP3    H119523   8.005   3.659   0.685
 6522TIP3    H219524   7.910   3.698   0.796
 6523TIP3   OH219525   3.641   2.377   6.201
 6523TIP3    H119526   3.667   2.368   6.293
 6523TIP3    H219527   3.706   2.326   6.153
 6524TIP3   OH219528   0.801   3.346   1.926
 6524TIP3    H119529   0.867   3.303   1.980
 6524TIP3    H219530   0.770   3.419   1.979
 6525TIP3   OH219531   5.983   1.075   4.282
 6525TIP3    H119532   5.963   1.167   4.268
 6525TIP3    H219533   5.964   1.033   4.199
 6526TIP3   OH219534   6.548   6.578   5.538
 6526TIP3    H119535   6.609   6.651   5.553
 6526TIP3    H219536   6.462   6.613   5.563
 6527TIP3   OH219537   7.387   0.525   3.961
 6527TIP3    H119538   7.313   0.562   4.010
 6527TIP3    H219539   7.347   0.464   3.900
 6528TIP3   OH219540   0.509   7.798   3.855
 6528TIP3    H119541   0.467   7.738   3.794
 6528TIP3    H219542   0.525   7.745   3.933
 6529TIP3   OH219543   2.600   4.073   5.473
 6529TIP3    H119544   2.650   4.085   5.554
 6529TIP3    H219545   2.514   4.045   5.501
 6530TIP3   OH219546   6.508   3.960   4.346
 6530TIP3    H119547   6.566   4.036   4.343
 6530TIP3    H219548   6.435   3.983   4.288
 6531TIP3   OH219549   3.341   5.978   3.302
 6531TIP3    H119550   3.272   6.041   3.323
 6531TIP3    H219551   3.295   5.905   3.260
 6532TIP3   OH219552   5.652   1.041   4.321
 6532TIP3    H119553   5.613   0.955   4.332
 6532TIP3    H219554   5.742   1.024   4.295
 6533TIP3   OH219555   0.347   5.670   3.253
 6533TIP3    H119556   0.269   5.700   3.205
 6533TIP3    H219557   0.400   5.627   3.186
 6534TIP3   OH219558   8.156   4.633   4.075
 6534TIP3    H119559   8.248   4.653   4.054
 6534TIP3    H219560   8.106   4.687   4.014
 6535TIP3   OH219561   5.011   3.369   1.834
 6535TIP3    H119562   4.938   3.310   1.815
 6535TIP3    H219563   5.069   3.360   1.758
 6536TIP3   OH219564   0.831   7.301   5.742
 6536TIP3    H119565   0.926   7.302   5.730
 6536TIP3    H219566   0.796   7.273   5.657
 6537TIP3   OH219567   5.870   5.778   5.766
 6537TIP3    H119568   5.884   5.865   5.727
 6537TIP3    H219569   5.918   5.718   5.709
 6538TIP3   OH219570   1.060   3.511   1.387
 6538TIP3    H119571   0.978   3.537   1.428
 6538TIP3    H219572   1.037   3.491   1.297
 6539TIP3   OH219573   7.875   6.498   3.376
 6539TIP3    H119574   7.834   6.452   3.449
 6539TIP3    H219575   7.955   6.449   3.359
 6540TIP3   OH219576   3.906   7.825   3.431
 6540TIP3    H119577   3.941   7.820   3.520
 6540TIP3    H219578   3.979   7.801   3.375
 6541TIP3   OH219579   3.387   1.563   0.355
 6541TIP3    H119580   3.350   1.644   0.389
 6541TIP3    H219581   3.481   1.580   0.346
 6542TIP3   OH219582   0.284   1.786   3.820
 6542TIP3    H119583   0.307   1.810   3.910
 6542TIP3    H219584   0.303   1.692   3.815
 6543TIP3   OH219585   6.036   4.963   2.755
 6543TIP3    H119586   6.045   5.037   2.815
 6543TIP3    H219587   6.124   4.952   2.718
 6544TIP3   OH219588   6.119   0.185   2.492
 6544TIP3    H119589   6.168   0.184   2.410
 6544TIP3    H219590   6.184   0.209   2.558
 6545TIP3   OH219591   7.337   1.468   1.743
 6545TIP3    H119592   7.320   1.407   1.672
 6545TIP3    H219593   7.318   1.554   1.707
 6546TIP3   OH219594  -0.003   4.569   1.698
 6546TIP3    H119595  -0.098   4.564   1.694
 6546TIP3    H219596   0.016   4.612   1.781
 6547TIP3   OH219597   7.305   1.525   2.743
 6547TIP3    H119598   7.371   1.572   2.794
 6547TIP3    H219599   7.278   1.587   2.676
 6548TIP3   OH219600   2.491   4.206   4.776
 6548TIP3    H119601   2.447   4.160   4.848
 6548TIP3    H219602   2.428   4.274   4.750
 6549TIP3   OH219603   2.203   0.790   4.792
 6549TIP3    H119604   2.231   0.820   4.879
 6549TIP3    H219605   2.280   0.743   4.758
 6550TIP3   OH219606   0.421   4.535   5.532
 6550TIP3    H119607   0.358   4.491   5.590
 6550TIP3    H219608   0.373   4.610   5.497
 6551TIP3   OH219609   8.230   5.821   5.318
 6551TIP3    H119610   8.314   5.867   5.312
 6551TIP3    H219611   8.246   5.752   5.382
 6552TIP3   OH219612   1.923   5.590   2.302
 6552TIP3    H119613   1.933   5.509   2.251
 6552TIP3    H219614   2.010   5.630   2.300
 6553TIP3   OH219615   2.015   6.391   5.465
 6553TIP3    H119616   2.041   6.350   5.547
 6553TIP3    H219617   1.944   6.336   5.432
 6554TIP3   OH219618   6.833   5.003   3.267
 6554TIP3    H119619   6.812   5.052   3.188
 6554TIP3    H219620   6.928   5.000   3.269
 6555TIP3   OH219621   5.678   0.685   3.994
 6555TIP3    H119622   5.661   0.736   4.073
 6555TIP3    H219623   5.728   0.609   4.024
 6556TIP3   OH219624   2.459   2.110   4.837
 6556TIP3    H119625   2.493   2.186   4.883
 6556TIP3    H219626   2.527   2.043   4.846
 6557TIP3   OH219627   2.718   4.856   0.640
 6557TIP3    H119628   2.710   4.777   0.587
 6557TIP3    H219629   2.712   4.825   0.731
 6558TIP3   OH219630   2.952   2.486   6.567
 6558TIP3    H119631   2.928   2.413   6.510
 6558TIP3    H219632   3.018   2.534   6.518
 6559TIP3   OH219633   6.062   6.472   3.137
 6559TIP3    H119634   5.994   6.519   3.185
 6559TIP3    H219635   6.060   6.509   3.049
 6560TIP3   OH219636   2.879   7.108   6.593
 6560TIP3    H119637   2.970   7.093   6.570
 6560TIP3    H219638   2.863   7.200   6.572
 6561TIP3   OH219639   7.198   0.214   1.895
 6561TIP3    H119640   7.116   0.260   1.913
 6561TIP3    H219641   7.211   0.226   1.801
 6562TIP3   OH219642   3.558   5.751   0.602
 6562TIP3    H119643   3.582   5.718   0.689
 6562TIP3    H219644   3.503   5.828   0.620
 6563TIP3   OH219645   3.232   6.225   3.092
 6563TIP3    H119646   3.254   6.318   3.089
 6563TIP3    H219647   3.161   6.215   3.029
 6564TIP3   OH219648   0.791   0.866   4.653
 6564TIP3    H119649   0.805   0.870   4.748
 6564TIP3    H219650   0.797   0.957   4.625
 6565TIP3   OH219651   6.210   6.483   3.881
 6565TIP3    H119652   6.254   6.502   3.798
 6565TIP3    H219653   6.162   6.402   3.865
 6566TIP3   OH219654   5.141   1.538   1.967
 6566TIP3    H119655   5.179   1.470   1.911
 6566TIP3    H219656   5.160   1.509   2.056
 6567TIP3   OH219657   4.584   0.773   6.505
 6567TIP3    H119658   4.512   0.717   6.476
 6567TIP3    H219659   4.635   0.789   6.425
 6568TIP3   OH219660   1.695   3.472   2.097
 6568TIP3    H119661   1.600   3.467   2.088
 6568TIP3    H219662   1.712   3.439   2.186
 6569TIP3   OH219663   4.076   1.045   6.764
 6569TIP3    H119664   4.087   0.993   6.684
 6569TIP3    H219665   4.136   1.119   6.753
 6570TIP3   OH219666   2.260   2.183   5.685
 6570TIP3    H119667   2.266   2.112   5.749
 6570TIP3    H219668   2.303   2.148   5.606
 6571TIP3   OH219669   2.617   0.278   2.367
 6571TIP3    H119670   2.622   0.227   2.287
 6571TIP3    H219671   2.601   0.213   2.436
 6572TIP3   OH219672   5.805   0.064   6.255
 6572TIP3    H119673   5.810   0.039   6.163
 6572TIP3    H219674   5.777  -0.016   6.300
 6573TIP3   OH219675   7.668   0.952   4.086
 6573TIP3    H119676   7.741   0.934   4.145
 6573TIP3    H219677   7.677   0.887   4.016
 6574TIP3   OH219678   7.904   6.161   4.884
 6574TIP3    H119679   7.921   6.224   4.813
 6574TIP3    H219680   7.939   6.078   4.851
 6575TIP3   OH219681   2.311   4.832   3.141
 6575TIP3    H119682   2.348   4.905   3.091
 6575TIP3    H219683   2.345   4.753   3.097
 6576TIP3   OH219684   3.570   1.204   6.704
 6576TIP3    H119685   3.549   1.115   6.731
 6576TIP3    H219686   3.665   1.207   6.701
 6577TIP3   OH219687   2.833   0.223   6.787
 6577TIP3    H119688   2.846   0.228   6.881
 6577TIP3    H219689   2.819   0.313   6.759
 6578TIP3   OH219690   6.675   4.828   1.446
 6578TIP3    H119691   6.688   4.770   1.371
 6578TIP3    H219692   6.642   4.769   1.515
 6579TIP3   OH219693   1.068   7.729   0.532
 6579TIP3    H119694   1.016   7.676   0.471
 6579TIP3    H219695   1.141   7.761   0.480
 6580TIP3   OH219696   1.714   2.149   5.147
 6580TIP3    H119697   1.770   2.209   5.197
 6580TIP3    H219698   1.660   2.206   5.092
 6581TIP3   OH219699   2.102   0.209   3.200
 6581TIP3    H119700   2.132   0.135   3.254
 6581TIP3    H219701   2.052   0.263   3.261
 6582TIP3   OH219702   1.968   1.808   5.275
 6582TIP3    H119703   2.023   1.730   5.272
 6582TIP3    H219704   2.028   1.881   5.265
 6583TIP3   OH219705   4.030   4.856   3.074
 6583TIP3    H119706   4.080   4.909   3.136
 6583TIP3    H219707   4.093   4.829   3.008
 6584TIP3   OH219708   2.982   1.884   0.650
 6584TIP3    H119709   3.019   1.872   0.737
 6584TIP3    H219710   2.954   1.796   0.623
 6585TIP3   OH219711   0.908   4.840   3.142
 6585TIP3    H119712   0.823   4.798   3.135
 6585TIP3    H219713   0.895   4.929   3.108
 6586TIP3   OH219714   0.291   1.013   1.647
 6586TIP3    H119715   0.197   1.007   1.634
 6586TIP3    H219716   0.303   0.996   1.740
 6587TIP3   OH219717   3.249   7.334   3.749
 6587TIP3    H119718   3.250   7.416   3.799
 6587TIP3    H219719   3.157   7.307   3.749
 6588TIP3   OH219720   4.999   6.944   2.904
 6588TIP3    H119721   4.921   6.913   2.858
 6588TIP3    H219722   5.065   6.956   2.836
 6589TIP3   OH219723   2.086   4.112   5.590
 6589TIP3    H119724   2.033   4.033   5.583
 6589TIP3    H219725   2.046   4.161   5.662
 6590TIP3   OH219726   0.169   5.280   1.420
 6590TIP3    H119727   0.209   5.367   1.426
 6590TIP3    H219728   0.095   5.292   1.360
 6591TIP3   OH219729   7.626   7.512   4.103
 6591TIP3    H119730   7.601   7.585   4.160
 6591TIP3    H219731   7.721   7.511   4.107
 6592TIP3   OH219732   7.954   3.787   1.966
 6592TIP3    H119733   8.002   3.792   1.883
 6592TIP3    H219734   7.896   3.712   1.956
 6593TIP3   OH219735   4.713   6.020   1.923
 6593TIP3    H119736   4.639   6.080   1.931
 6593TIP3    H219737   4.724   5.984   2.010
 6594TIP3   OH219738   3.030   4.010   2.429
 6594TIP3    H119739   3.019   4.066   2.506
 6594TIP3    H219740   2.984   4.056   2.359
 6595TIP3   OH219741   6.931   7.704   2.616
 6595TIP3    H119742   6.965   7.725   2.529
 6595TIP3    H219743   7.009   7.703   2.672
 6596TIP3   OH219744   4.381   4.795   5.099
 6596TIP3    H119745   4.444   4.815   5.168
 6596TIP3    H219746   4.298   4.786   5.145
 6597TIP3   OH219747   3.256   1.262   3.061
 6597TIP3    H119748   3.320   1.193   3.044
 6597TIP3    H219749   3.183   1.217   3.103
 6598TIP3   OH219750   1.056   0.957   6.714
 6598TIP3    H119751   1.134   0.922   6.756
 6598TIP3    H219752   1.032   0.892   6.648
 6599TIP3   OH219753   8.042   4.507   1.263
 6599TIP3    H119754   8.009   4.418   1.260
 6599TIP3    H219755   8.115   4.508   1.201
 6600TIP3   OH219756   2.047   4.375   4.744
 6600TIP3    H119757   2.139   4.371   4.721
 6600TIP3    H219758   2.000   4.362   4.661
 6601TIP3   OH219759   1.438   3.145   6.460
 6601TIP3    H119760   1.345   3.166   6.467
 6601TIP3    H219761   1.441   3.057   6.424
 6602TIP3   OH219762   1.151   5.105   5.573
 6602TIP3    H119763   1.091   5.075   5.642
 6602TIP3    H219764   1.093   5.140   5.505
 6603TIP3   OH219765   4.010   5.905   4.988
 6603TIP3    H119766   3.966   5.872   4.910
 6603TIP3    H219767   4.009   5.832   5.050
 6604TIP3   OH219768   4.767   0.660   1.560
 6604TIP3    H119769   4.756   0.707   1.477
 6604TIP3    H219770   4.737   0.722   1.627
 6605TIP3   OH219771   5.146   7.837   1.238
 6605TIP3    H119772   5.096   7.916   1.217
 6605TIP3    H219773   5.079   7.770   1.252
 6606TIP3   OH219774   0.115   6.478   5.807
 6606TIP3    H119775   0.099   6.559   5.856
 6606TIP3    H219776   0.188   6.436   5.852
 6607TIP3   OH219777   0.620   6.986   1.899
 6607TIP3    H119778   0.612   7.047   1.826
 6607TIP3    H219779   0.699   6.935   1.880
 6608TIP3   OH219780   4.855   4.148   3.445
 6608TIP3    H119781   4.828   4.234   3.414
 6608TIP3    H219782   4.950   4.152   3.450
 6609TIP3   OH219783   5.396   7.628   5.538
 6609TIP3    H119784   5.323   7.681   5.568
 6609TIP3    H219785   5.355   7.547   5.507
 6610TIP3   OH219786   6.836   4.661   0.220
 6610TIP3    H119787   6.870   4.676   0.132
 6610TIP3    H219788   6.905   4.611   0.264
 6611TIP3   OH219789   5.410   2.825   6.467
 6611TIP3    H119790   5.366   2.892   6.416
 6611TIP3    H219791   5.372   2.831   6.554
 6612TIP3   OH219792   0.801   4.606   3.550
 6612TIP3    H119793   0.770   4.696   3.561
 6612TIP3    H219794   0.726   4.560   3.510
 6613TIP3   OH219795   8.170   0.384   2.665
 6613TIP3    H119796   8.234   0.337   2.719
 6613TIP3    H219797   8.146   0.460   2.718
 6614TIP3   OH219798   1.131   0.207   0.419
 6614TIP3    H119799   1.148   0.299   0.438
 6614TIP3    H219800   1.214   0.173   0.386
 6615TIP3   OH219801   5.875   7.386   1.566
 6615TIP3    H119802   5.817   7.459   1.585
 6615TIP3    H219803   5.961   7.426   1.549
 6616TIP3   OH219804   4.285   5.524   3.720
 6616TIP3    H119805   4.373   5.495   3.747
 6616TIP3    H219806   4.225   5.466   3.766
 6617TIP3   OH219807   2.787   7.314   3.940
 6617TIP3    H119808   2.868   7.280   3.902
 6617TIP3    H219809   2.727   7.240   3.939
 6618TIP3   OH219810   4.745   3.777   5.301
 6618TIP3    H119811   4.760   3.690   5.339
 6618TIP3    H219812   4.693   3.759   5.222
 6619TIP3   OH219813   1.055   3.256   2.072
 6619TIP3    H119814   1.112   3.188   2.036
 6619TIP3    H219815   1.026   3.221   2.156
 6620TIP3   OH219816   4.332   4.760   6.494
 6620TIP3    H119817   4.364   4.849   6.480
 6620TIP3    H219818   4.247   4.758   6.450
 6621TIP3   OH219819   0.882   0.010   5.174
 6621TIP3    H119820   0.804   0.059   5.200
 6621TIP3    H219821   0.950   0.077   5.165
 6622TIP3   OH219822   6.155   7.762   6.067
 6622TIP3    H119823   6.197   7.842   6.036
 6622TIP3    H219824   6.080   7.792   6.118
 6623TIP3   OH219825   2.711   4.768   3.988
 6623TIP3    H119826   2.729   4.773   3.894
 6623TIP3    H219827   2.701   4.859   4.015
 6624TIP3   OH219828   6.756   4.419   6.268
 6624TIP3    H119829   6.665   4.388   6.272
 6624TIP3    H219830   6.768   4.468   6.349
 6625TIP3   OH219831   1.805   6.538   3.708
 6625TIP3    H119832   1.882   6.549   3.763
 6625TIP3    H219833   1.731   6.558   3.765
 6626TIP3   OH219834   7.023   6.254   0.660
 6626TIP3    H119835   7.015   6.250   0.564
 6626TIP3    H219836   7.054   6.342   0.678
 6627TIP3   OH219837   7.796   5.224   3.358
 6627TIP3    H119838   7.763   5.312   3.336
 6627TIP3    H219839   7.864   5.208   3.293
 6628TIP3   OH219840   7.769   6.963   0.410
 6628TIP3    H119841   7.802   7.033   0.467
 6628TIP3    H219842   7.846   6.908   0.393
 6629TIP3   OH219843   7.826   0.544   2.799
 6629TIP3    H119844   7.749   0.589   2.833
 6629TIP3    H219845   7.803   0.451   2.803
 6630TIP3   OH219846   1.360   5.586   4.449
 6630TIP3    H119847   1.366   5.500   4.491
 6630TIP3    H219848   1.451   5.618   4.447
 6631TIP3   OH219849   2.980   4.540   1.090
 6631TIP3    H119850   2.945   4.518   1.177
 6631TIP3    H219851   3.074   4.524   1.098
 6632TIP3   OH219852   1.259   5.854   1.191
 6632TIP3    H119853   1.288   5.840   1.101
 6632TIP3    H219854   1.236   5.767   1.224
 6633TIP3   OH219855   0.645   1.901   4.294
 6633TIP3    H119856   0.722   1.918   4.348
 6633TIP3    H219857   0.575   1.952   4.334
 6634TIP3   OH219858   8.100   0.596   2.847
 6634TIP3    H119859   8.125   0.555   2.930
 6634TIP3    H219860   8.005   0.598   2.848
 6635TIP3   OH219861   1.140   1.638   2.146
 6635TIP3    H119862   1.066   1.694   2.171
 6635TIP3    H219863   1.115   1.603   2.061
 6636TIP3   OH219864   7.600   6.094   0.208
 6636TIP3    H119865   7.543   6.044   0.150
 6636TIP3    H219866   7.685   6.051   0.200
 6637TIP3   OH219867   2.636   0.425   0.069
 6637TIP3    H119868   2.674   0.374  -0.002
 6637TIP3    H219869   2.650   0.516   0.044
 6638TIP3   OH219870   2.163   2.524   3.685
 6638TIP3    H119871   2.221   2.583   3.733
 6638TIP3    H219872   2.133   2.461   3.751
 6639TIP3   OH219873   0.420   2.958   4.529
 6639TIP3    H119874   0.374   2.879   4.499
 6639TIP3    H219875   0.462   2.992   4.450
 6640TIP3   OH219876   6.291   2.155   1.377
 6640TIP3    H119877   6.373   2.174   1.332
 6640TIP3    H219878   6.225   2.160   1.309
 6641TIP3   OH219879   2.971   6.049   6.100
 6641TIP3    H119880   3.012   6.090   6.177
 6641TIP3    H219881   2.897   6.106   6.080
 6642TIP3   OH219882   3.270   5.599   1.977
 6642TIP3    H119883   3.192   5.549   2.003
 6642TIP3    H219884   3.281   5.578   1.884
 6643TIP3   OH219885   6.006   5.587   2.357
 6643TIP3    H119886   6.011   5.680   2.382
 6643TIP3    H219887   5.912   5.568   2.357
 6644TIP3   OH219888   5.743   4.578   2.690
 6644TIP3    H119889   5.668   4.602   2.745
 6644TIP3    H219890   5.765   4.659   2.644
 6645TIP3   OH219891   5.779   0.464   0.273
 6645TIP3    H119892   5.764   0.479   0.180
 6645TIP3    H219893   5.837   0.535   0.300
 6646TIP3   OH219894   8.303   6.400   1.440
 6646TIP3    H119895   8.327   6.490   1.417
 6646TIP3    H219896   8.265   6.364   1.360
 6647TIP3   OH219897   4.239   7.026   6.329
 6647TIP3    H119898   4.290   6.946   6.311
 6647TIP3    H219899   4.185   7.037   6.251
 6648TIP3   OH219900   4.967   7.002   5.036
 6648TIP3    H119901   5.054   7.041   5.041
 6648TIP3    H219902   4.978   6.925   4.980
 6649TIP3   OH219903   3.541   2.108   2.233
 6649TIP3    H119904   3.524   2.157   2.153
 6649TIP3    H219905   3.474   2.039   2.234
 6650TIP3   OH219906   3.699   2.112   0.073
 6650TIP3    H119907   3.607   2.109   0.049
 6650TIP3    H219908   3.734   2.029   0.044
 6651TIP3   OH219909   4.699   3.729   2.184
 6651TIP3    H119910   4.617   3.777   2.173
 6651TIP3    H219911   4.745   3.775   2.253
 6652TIP3   OH219912   4.506   5.429   0.806
 6652TIP3    H119913   4.592   5.436   0.849
 6652TIP3    H219914   4.524   5.448   0.714
 6653TIP3   OH219915   7.689   0.307   6.503
 6653TIP3    H119916   7.670   0.399   6.487
 6653TIP3    H219917   7.656   0.262   6.425
 6654TIP3   OH219918   2.471   3.461   4.347
 6654TIP3    H119919   2.430   3.447   4.433
 6654TIP3    H219920   2.450   3.383   4.297
 6655TIP3   OH219921   4.060   0.999   0.533
 6655TIP3    H119922   3.983   0.945   0.550
 6655TIP3    H219923   4.052   1.073   0.593
 6656TIP3   OH219924   2.797   0.360   4.599
 6656TIP3    H119925   2.834   0.312   4.673
 6656TIP3    H219926   2.785   0.293   4.532
 6657TIP3   OH219927   3.287   7.195   5.224
 6657TIP3    H119928   3.328   7.110   5.208
 6657TIP3    H219929   3.222   7.178   5.293
 6658TIP3   OH219930   2.874   0.976   3.406
 6658TIP3    H119931   2.858   0.934   3.490
 6658TIP3    H219932   2.868   1.070   3.425
 6659TIP3   OH219933   5.307   2.669   0.282
 6659TIP3    H119934   5.269   2.590   0.323
 6659TIP3    H219935   5.305   2.735   0.351
 6660TIP3   OH219936   4.035   1.383   5.341
 6660TIP3    H119937   4.080   1.349   5.419
 6660TIP3    H219938   3.944   1.354   5.352
 6661TIP3   OH219939   4.174   7.326   5.626
 6661TIP3    H119940   4.121   7.404   5.641
 6661TIP3    H219941   4.168   7.310   5.531
 6662TIP3   OH219942   2.098   4.747   4.405
 6662TIP3    H119943   2.091   4.724   4.497
 6662TIP3    H219944   2.189   4.727   4.383
 6663TIP3   OH219945   2.302   4.879   5.137
 6663TIP3    H119946   2.372   4.944   5.127
 6663TIP3    H219947   2.261   4.901   5.221
 6664TIP3   OH219948   4.325   1.798   3.331
 6664TIP3    H119949   4.345   1.886   3.300
 6664TIP3    H219950   4.230   1.797   3.341
 6665TIP3   OH219951   0.351   4.818   3.865
 6665TIP3    H119952   0.334   4.911   3.846
 6665TIP3    H219953   0.333   4.774   3.782
 6666TIP3   OH219954   0.130   4.867   2.812
 6666TIP3    H119955   0.120   4.772   2.801
 6666TIP3    H219956   0.070   4.905   2.749
 6667TIP3   OH219957   2.698   0.216   4.999
 6667TIP3    H119958   2.641   0.251   5.067
 6667TIP3    H219959   2.642   0.205   4.922
 6668TIP3   OH219960   7.300   2.965   0.490
 6668TIP3    H119961   7.352   3.011   0.556
 6668TIP3    H219962   7.301   3.023   0.414
 6669TIP3   OH219963   3.659   5.710   1.151
 6669TIP3    H119964   3.654   5.628   1.101
 6669TIP3    H219965   3.753   5.725   1.162
 6670TIP3   OH219966   6.365   3.189   0.730
 6670TIP3    H119967   6.429   3.144   0.786
 6670TIP3    H219968   6.403   3.275   0.714
 6671TIP3   OH219969   3.625   4.046   4.671
 6671TIP3    H119970   3.613   3.958   4.706
 6671TIP3    H219971   3.602   4.038   4.579
 6672TIP3   OH219972   4.538   1.769   2.177
 6672TIP3    H119973   4.538   1.837   2.110
 6672TIP3    H219974   4.549   1.817   2.260
 6673TIP3   OH219975   5.376   3.755   0.339
 6673TIP3    H119976   5.386   3.776   0.247
 6673TIP3    H219977   5.322   3.676   0.341
 6674TIP3   OH219978   5.381   1.473   3.848
 6674TIP3    H119979   5.304   1.475   3.791
 6674TIP3    H219980   5.347   1.450   3.934
 6675TIP3   OH219981   6.992   4.307   5.324
 6675TIP3    H119982   6.925   4.300   5.257
 6675TIP3    H219983   7.034   4.392   5.309
 6676TIP3   OH219984   7.996   4.419   4.326
 6676TIP3    H119985   8.028   4.476   4.257
 6676TIP3    H219986   8.023   4.462   4.407
 6677TIP3   OH219987   7.645   7.207   5.526
 6677TIP3    H119988   7.692   7.139   5.574
 6677TIP3    H219989   7.585   7.159   5.469
 6678TIP3   OH219990   1.217   4.571   1.393
 6678TIP3    H119991   1.178   4.493   1.353
 6678TIP3    H219992   1.174   4.644   1.351
 6679TIP3   OH219993   4.349   1.814   1.185
 6679TIP3    H119994   4.254   1.804   1.186
 6679TIP3    H219995   4.367   1.851   1.098
 6680TIP3   OH219996   7.080   5.086   0.461
 6680TIP3    H119997   7.013   5.111   0.397
 6680TIP3    H219998   7.048   5.120   0.544
 6681TIP3   OH219999   1.157   3.094   6.128
 6681TIP3    H120000   1.122   3.072   6.042
 6681TIP3    H220001   1.252   3.087   6.118
 6682TIP3   OH220002   1.896   5.422   4.039
 6682TIP3    H120003   1.925   5.427   3.948
 6682TIP3    H220004   1.865   5.511   4.059
 6683TIP3   OH220005   0.946   5.515   6.674
 6683TIP3    H120006   1.031   5.523   6.630
 6683TIP3    H220007   0.965   5.465   6.753
 6684TIP3   OH220008   0.183   1.284   3.973
 6684TIP3    H120009   0.261   1.338   3.977
 6684TIP3    H220010   0.112   1.343   3.999
 6685TIP3   OH220011   7.060   6.359   1.208
 6685TIP3    H120012   7.120   6.327   1.275
 6685TIP3    H220013   7.045   6.285   1.150
 6686TIP3   OH220014   8.201   7.137   6.683
 6686TIP3    H120015   8.232   7.111   6.597
 6686TIP3    H220016   8.197   7.054   6.732
 6687TIP3   OH220017   4.621   5.151   3.702
 6687TIP3    H120018   4.703   5.157   3.750
 6687TIP3    H220019   4.558   5.118   3.766
 6688TIP3   OH220020   1.823   3.449   4.731
 6688TIP3    H120021   1.753   3.483   4.674
 6688TIP3    H220022   1.860   3.375   4.682
 6689TIP3   OH220023   7.498   1.984   0.045
 6689TIP3    H120024   7.449   2.062   0.072
 6689TIP3    H220025   7.475   1.972  -0.047
 6690TIP3   OH220026   2.781   7.803   3.263
 6690TIP3    H120027   2.703   7.859   3.268
 6690TIP3    H220028   2.746   7.714   3.253
 6691TIP3   OH220029   6.270   4.102   3.456
 6691TIP3    H120030   6.275   4.191   3.489
 6691TIP3    H220031   6.336   4.054   3.506
 6692TIP3   OH220032   6.344   3.955   1.011
 6692TIP3    H120033   6.416   3.896   1.033
 6692TIP3    H220034   6.300   3.913   0.937
 6693TIP3   OH220035   3.388   0.875   0.870
 6693TIP3    H120036   3.299   0.908   0.879
 6693TIP3    H220037   3.395   0.847   0.779
 6694TIP3   OH220038   2.573   0.786   6.188
 6694TIP3    H120039   2.639   0.761   6.122
 6694TIP3    H220040   2.491   0.791   6.139
 6695TIP3   OH220041   5.384   6.439   4.513
 6695TIP3    H120042   5.362   6.479   4.429
 6695TIP3    H220043   5.478   6.456   4.523
 6696TIP3   OH220044   5.947   6.516   4.398
 6696TIP3    H120045   5.930   6.445   4.460
 6696TIP3    H220046   5.928   6.478   4.312
 6697TIP3   OH220047   4.840   0.621   6.567
 6697TIP3    H120048   4.826   0.567   6.645
 6697TIP3    H220049   4.784   0.697   6.582
 6698TIP3   OH220050   1.751   1.481   0.390
 6698TIP3    H120051   1.679   1.429   0.427
 6698TIP3    H220052   1.707   1.552   0.344
 6699TIP3   OH220053   6.844   4.637   6.121
 6699TIP3    H120054   6.837   4.645   6.025
 6699TIP3    H220055   6.807   4.552   6.141
 6700TIP3   OH220056   0.182   7.182   1.201
 6700TIP3    H120057   0.180   7.212   1.110
 6700TIP3    H220058   0.165   7.261   1.253
 6701TIP3   OH220059   5.421   7.010   1.252
 6701TIP3    H120060   5.426   7.050   1.339
 6701TIP3    H220061   5.367   7.071   1.200
 6702TIP3   OH220062   7.735   1.914   5.583
 6702TIP3    H120063   7.820   1.875   5.601
 6702TIP3    H220064   7.753   1.989   5.527
 6703TIP3   OH220065   3.383   4.058   4.806
 6703TIP3    H120066   3.392   4.003   4.883
 6703TIP3    H220067   3.473   4.071   4.775
 6704TIP3   OH220068   2.023   6.706   2.243
 6704TIP3    H120069   2.075   6.776   2.203
 6704TIP3    H220070   2.021   6.636   2.178
 6705TIP3   OH220071   4.942   4.304   6.655
 6705TIP3    H120072   4.988   4.380   6.692
 6705TIP3    H220073   4.930   4.245   6.730
 6706TIP3   OH220074   1.575   5.658   5.007
 6706TIP3    H120075   1.652   5.651   4.952
 6706TIP3    H220076   1.607   5.695   5.089
 6707TIP3   OH220077   7.400   3.151   0.681
 6707TIP3    H120078   7.486   3.130   0.718
 6707TIP3    H220079   7.347   3.177   0.756
 6708TIP3   OH220080   0.721   3.756   6.517
 6708TIP3    H120081   0.657   3.720   6.578
 6708TIP3    H220082   0.686   3.842   6.493
 6709TIP3   OH220083   4.062   5.857   0.567
 6709TIP3    H120084   4.053   5.930   0.505
 6709TIP3    H220085   4.156   5.846   0.578
 6710TIP3   OH220086   8.212   5.130   0.042
 6710TIP3    H120087   8.302   5.162   0.033
 6710TIP3    H220088   8.157   5.206   0.019
 6711TIP3   OH220089   3.484   7.493   5.847
 6711TIP3    H120090   3.492   7.475   5.753
 6711TIP3    H220091   3.480   7.407   5.887
 6712TIP3   OH220092   0.211   2.703   6.080
 6712TIP3    H120093   0.241   2.684   6.169
 6712TIP3    H220094   0.275   2.765   6.045
 6713TIP3   OH220095   4.067   0.124   1.985
 6713TIP3    H120096   4.126   0.114   1.910
 6713TIP3    H220097   4.124   0.112   2.061
 6714TIP3   OH220098   7.608   4.197   3.323
 6714TIP3    H120099   7.548   4.124   3.339
 6714TIP3    H220100   7.573   4.269   3.375
 6715TIP3   OH220101   4.304   4.211   2.443
 6715TIP3    H120102   4.237   4.252   2.388
 6715TIP3    H220103   4.313   4.122   2.407
 6716TIP3   OH220104   5.338   7.395   4.668
 6716TIP3    H120105   5.425   7.434   4.679
 6716TIP3    H220106   5.321   7.401   4.574
 6717TIP3   OH220107   3.720   5.913   3.764
 6717TIP3    H120108   3.715   5.869   3.849
 6717TIP3    H220109   3.800   5.881   3.724
 6718TIP3   OH220110   1.542   7.562   6.620
 6718TIP3    H120111   1.600   7.636   6.640
 6718TIP3    H220112   1.497   7.544   6.702
 6719TIP3   OH220113   0.184   2.833   3.094
 6719TIP3    H120114   0.255   2.806   3.035
 6719TIP3    H220115   0.199   2.927   3.106
 6720TIP3   OH220116   2.654   7.006   3.501
 6720TIP3    H120117   2.602   7.017   3.581
 6720TIP3    H220118   2.738   7.048   3.521
 6721TIP3   OH220119   4.622   7.051   0.501
 6721TIP3    H120120   4.694   7.003   0.542
 6721TIP3    H220121   4.569   7.082   0.575
 6722TIP3   OH220122   8.107   6.262   2.239
 6722TIP3    H120123   8.067   6.301   2.162
 6722TIP3    H220124   8.037   6.209   2.278
 6723TIP3   OH220125   1.656   7.820   1.976
 6723TIP3    H120126   1.666   7.838   2.070
 6723TIP3    H220127   1.632   7.904   1.938
 6724TIP3   OH220128   2.369   7.580   3.774
 6724TIP3    H120129   2.373   7.570   3.679
 6724TIP3    H220130   2.276   7.590   3.793
 6725TIP3   OH220131   1.633   3.898   0.351
 6725TIP3    H120132   1.644   3.818   0.299
 6725TIP3    H220133   1.539   3.906   0.363
 6726TIP3   OH220134   5.324   6.349   0.427
 6726TIP3    H120135   5.331   6.345   0.331
 6726TIP3    H220136   5.306   6.259   0.453
 6727TIP3   OH220137   0.106   6.654   3.135
 6727TIP3    H120138   0.084   6.572   3.089
 6727TIP3    H220139   0.119   6.718   3.064
 6728TIP3   OH220140   6.935   5.874   5.682
 6728TIP3    H120141   7.000   5.890   5.752
 6728TIP3    H220142   6.961   5.789   5.646
 6729TIP3   OH220143   1.564   2.095   2.335
 6729TIP3    H120144   1.589   2.071   2.425
 6729TIP3    H220145   1.499   2.029   2.311
 6730TIP3   OH220146   6.789   6.913   3.779
 6730TIP3    H120147   6.773   6.820   3.761
 6730TIP3    H220148   6.825   6.914   3.868
 6731TIP3   OH220149   6.385   4.334   1.222
 6731TIP3    H120150   6.352   4.336   1.311
 6731TIP3    H220151   6.348   4.412   1.180
 6732TIP3   OH220152   6.734   7.742   0.591
 6732TIP3    H120153   6.726   7.668   0.530
 6732TIP3    H220154   6.650   7.743   0.638
 6733TIP3   OH220155   3.961   0.908   4.938
 6733TIP3    H120156   3.956   0.814   4.924
 6733TIP3    H220157   3.974   0.917   5.033
 6734TIP3   OH220158   4.521   5.359   1.659
 6734TIP3    H120159   4.462   5.406   1.601
 6734TIP3    H220160   4.600   5.414   1.663
 6735TIP3   OH220161  -0.012   4.118   4.819
 6735TIP3    H120162   0.038   4.199   4.830
 6735TIP3    H220163  -0.047   4.124   4.730
 6736TIP3   OH220164   5.144   4.760   2.353
 6736TIP3    H120165   5.182   4.803   2.430
 6736TIP3    H220166   5.144   4.667   2.375
 6737TIP3   OH220167   4.778   3.337   5.139
 6737TIP3    H120168   4.833   3.402   5.096
 6737TIP3    H220169   4.833   3.302   5.209
 6738TIP3   OH220170   3.432   4.758   0.363
 6738TIP3    H120171   3.490   4.690   0.398
 6738TIP3    H220172   3.344   4.721   0.368
 6739TIP3   OH220173   6.537   0.077   1.664
 6739TIP3    H120174   6.508  -0.014   1.657
 6739TIP3    H220175   6.612   0.074   1.724
 6740TIP3   OH220176   8.003   5.227   2.598
 6740TIP3    H120177   8.070   5.159   2.592
 6740TIP3    H220178   8.036   5.298   2.544
 6741TIP3   OH220179   4.859   0.193   6.452
 6741TIP3    H120180   4.894   0.233   6.532
 6741TIP3    H220181   4.811   0.116   6.483
 6742TIP3   OH220182   2.348   2.037   3.688
 6742TIP3    H120183   2.297   2.097   3.633
 6742TIP3    H220184   2.390   1.977   3.626
 6743TIP3   OH220185   2.422   4.355   2.851
 6743TIP3    H120186   2.327   4.363   2.843
 6743TIP3    H220187   2.451   4.329   2.763
 6744TIP3   OH220188   7.304   0.699   5.843
 6744TIP3    H120189   7.325   0.639   5.773
 6744TIP3    H220190   7.317   0.649   5.923
 6745TIP3   OH220191   4.257   0.915   4.115
 6745TIP3    H120192   4.234   0.959   4.196
 6745TIP3    H220193   4.280   0.826   4.141
 6746TIP3   OH220194   3.376   6.317   1.848
 6746TIP3    H120195   3.361   6.328   1.941
 6746TIP3    H220196   3.296   6.349   1.806
 6747TIP3   OH220197   8.181   5.745   1.348
 6747TIP3    H120198   8.141   5.790   1.422
 6747TIP3    H220199   8.231   5.673   1.387
 6748TIP3   OH220200   3.778   4.655   5.084
 6748TIP3    H120201   3.711   4.630   5.021
 6748TIP3    H220202   3.751   4.614   5.166
 6749TIP3   OH220203   2.668   7.588   3.121
 6749TIP3    H120204   2.655   7.526   3.192
 6749TIP3    H220205   2.588   7.640   3.119
 6750TIP3   OH220206   4.450   2.020   3.558
 6750TIP3    H120207   4.362   1.993   3.583
 6750TIP3    H220208   4.502   1.939   3.561
 6751TIP3   OH220209   0.208   4.557   4.989
 6751TIP3    H120210   0.215   4.491   4.920
 6751TIP3    H220211   0.271   4.625   4.964
 6752TIP3   OH220212   1.163   4.257   2.486
 6752TIP3    H120213   1.130   4.294   2.404
 6752TIP3    H220214   1.258   4.250   2.472
 6753TIP3   OH220215   0.669   1.590   1.422
 6753TIP3    H120216   0.615   1.514   1.445
 6753TIP3    H220217   0.731   1.556   1.357
 6754TIP3   OH220218   4.284   6.934   0.352
 6754TIP3    H120219   4.216   6.938   0.284
 6754TIP3    H220220   4.367   6.935   0.304
 6755TIP3   OH220221   3.279   3.882   5.147
 6755TIP3    H120222   3.345   3.876   5.078
 6755TIP3    H220223   3.325   3.858   5.227
 6756TIP3   OH220224   3.367   4.790   1.805
 6756TIP3    H120225   3.428   4.864   1.808
 6756TIP3    H220226   3.422   4.713   1.820
 6757TIP3   OH220227   7.092   1.056   3.327
 6757TIP3    H120228   7.128   1.044   3.415
 6757TIP3    H220229   7.169   1.053   3.270
 6758TIP3   OH220230   3.661   0.566   6.313
 6758TIP3    H120231   3.596   0.530   6.253
 6758TIP3    H220232   3.673   0.497   6.379
 6759TIP3   OH220233   5.237   1.897   3.093
 6759TIP3    H120234   5.233   1.992   3.083
 6759TIP3    H220235   5.156   1.875   3.140
 6760TIP3   OH220236   5.379   5.992   5.525
 6760TIP3    H120237   5.329   6.060   5.571
 6760TIP3    H220238   5.317   5.956   5.461
 6761TIP3   OH220239   3.857   2.957   3.128
 6761TIP3    H120240   3.780   2.985   3.179
 6761TIP3    H220241   3.825   2.883   3.077
 6762TIP3   OH220242   1.508   4.090   4.677
 6762TIP3    H120243   1.546   4.169   4.640
 6762TIP3    H220244   1.525   4.096   4.771
 6763TIP3   OH220245   7.498   2.714   2.584
 6763TIP3    H120246   7.509   2.808   2.600
 6763TIP3    H220247   7.514   2.673   2.669
 6764TIP3   OH220248   4.617   1.486   4.544
 6764TIP3    H120249   4.640   1.575   4.516
 6764TIP3    H220250   4.635   1.432   4.467
 6765TIP3   OH220251   0.762   2.876   5.497
 6765TIP3    H120252   0.828   2.892   5.430
 6765TIP3    H220253   0.792   2.925   5.573
 6766TIP3   OH220254   6.809   2.800   3.961
 6766TIP3    H120255   6.764   2.855   3.898
 6766TIP3    H220256   6.889   2.772   3.916
 6767TIP3   OH220257   1.592   5.158   1.299
 6767TIP3    H120258   1.670   5.107   1.322
 6767TIP3    H220259   1.549   5.175   1.383
 6768TIP3   OH220260   3.732   5.072   4.152
 6768TIP3    H120261   3.652   5.044   4.197
 6768TIP3    H220262   3.706   5.152   4.105
 6769TIP3   OH220263   7.517   1.880   4.716
 6769TIP3    H120264   7.564   1.958   4.686
 6769TIP3    H220265   7.507   1.893   4.810
 6770TIP3   OH220266   2.789   5.938   4.439
 6770TIP3    H120267   2.701   5.914   4.411
 6770TIP3    H220268   2.815   5.870   4.501
 6771TIP3   OH220269   5.135   3.496   6.046
 6771TIP3    H120270   5.061   3.440   6.071
 6771TIP3    H220271   5.174   3.452   5.971
 6772TIP3   OH220272   0.056   4.317   1.845
 6772TIP3    H120273  -0.024   4.319   1.897
 6772TIP3    H220274   0.052   4.396   1.792
 6773TIP3   OH220275   3.322   5.870   5.098
 6773TIP3    H120276   3.383   5.818   5.151
 6773TIP3    H220277   3.247   5.885   5.156
 6774TIP3   OH220278   7.554   6.253   5.853
 6774TIP3    H120279   7.486   6.320   5.841
 6774TIP3    H220280   7.551   6.202   5.772
 6775TIP3   OH220281   5.714   7.487   5.618
 6775TIP3    H120282   5.662   7.522   5.690
 6775TIP3    H220283   5.750   7.565   5.575
 6776TIP3   OH220284   4.223   1.992   2.370
 6776TIP3    H120285   4.148   2.002   2.311
 6776TIP3    H220286   4.292   2.046   2.331
 6777TIP3   OH220287   3.471   5.535   4.887
 6777TIP3    H120288   3.524   5.612   4.868
 6777TIP3    H220289   3.404   5.535   4.819
 6778TIP3   OH220290   5.566   2.221   0.946
 6778TIP3    H120291   5.589   2.300   0.898
 6778TIP3    H220292   5.643   2.165   0.937
 6779TIP3   OH220293   5.831   5.968   4.708
 6779TIP3    H120294   5.775   5.960   4.630
 6779TIP3    H220295   5.792   5.909   4.772
 6780TIP3   OH220296   6.351   7.434   2.806
 6780TIP3    H120297   6.381   7.361   2.859
 6780TIP3    H220298   6.431   7.477   2.775
 6781TIP3   OH220299   7.592   7.023   3.274
 6781TIP3    H120300   7.562   6.932   3.286
 6781TIP3    H220301   7.676   7.015   3.229
 6782TIP3   OH220302   3.225   7.186   2.581
 6782TIP3    H120303   3.242   7.096   2.551
 6782TIP3    H220304   3.188   7.175   2.668
 6783TIP3   OH220305   0.083   3.327   5.932
 6783TIP3    H120306   0.174   3.306   5.955
 6783TIP3    H220307   0.083   3.337   5.837
 6784TIP3   OH220308   8.296   6.542   0.490
 6784TIP3    H120309   8.202   6.525   0.477
 6784TIP3    H220310   8.340   6.475   0.438
 6785TIP3   OH220311   5.984   4.471   1.171
 6785TIP3    H120312   5.964   4.561   1.144
 6785TIP3    H220313   5.902   4.424   1.159
 6786TIP3   OH220314   0.828   5.931   0.340
 6786TIP3    H120315   0.863   6.014   0.373
 6786TIP3    H220316   0.736   5.950   0.321
 6787TIP3   OH220317   7.482   7.314   3.995
 6787TIP3    H120318   7.495   7.341   3.904
 6787TIP3    H220319   7.549   7.362   4.044
 6788TIP3   OH220320   5.760   6.560   0.323
 6788TIP3    H120321   5.726   6.471   0.314
 6788TIP3    H220322   5.705   6.600   0.391
 6789TIP3   OH220323   8.104   3.856   1.746
 6789TIP3    H120324   8.116   3.951   1.741
 6789TIP3    H220325   8.070   3.832   1.660
 6790TIP3   OH220326   7.095   4.699   2.976
 6790TIP3    H120327   7.109   4.774   3.033
 6790TIP3    H220328   7.115   4.622   3.030
 6791TIP3   OH220329   4.458   2.086   2.214
 6791TIP3    H120330   4.387   2.092   2.151
 6791TIP3    H220331   4.537   2.104   2.164
 6792TIP3   OH220332   2.250   6.844   6.334
 6792TIP3    H120333   2.254   6.910   6.402
 6792TIP3    H220334   2.338   6.841   6.297
 6793TIP3   OH220335   3.865   4.699   1.615
 6793TIP3    H120336   3.847   4.750   1.535
 6793TIP3    H220337   3.921   4.755   1.667
 6794TIP3   OH220338   6.306   6.694   5.573
 6794TIP3    H120339   6.249   6.641   5.628
 6794TIP3    H220340   6.254   6.712   5.495
 6795TIP3   OH220341   1.121   3.219   0.866
 6795TIP3    H120342   1.159   3.260   0.943
 6795TIP3    H220343   1.053   3.160   0.900
 6796TIP3   OH220344   4.477   1.713   3.537
 6796TIP3    H120345   4.428   1.667   3.606
 6796TIP3    H220346   4.412   1.727   3.468
 6797TIP3   OH220347   2.306   6.007   4.495
 6797TIP3    H120348   2.248   5.992   4.421
 6797TIP3    H220349   2.307   6.102   4.507
 6798TIP3   OH220350   0.544   7.125   5.997
 6798TIP3    H120351   0.559   7.079   6.079
 6798TIP3    H220352   0.469   7.182   6.015
 6799TIP3   OH220353   0.806   1.431   1.245
 6799TIP3    H120354   0.878   1.426   1.183
 6799TIP3    H220355   0.780   1.340   1.259
 6800TIP3   OH220356   2.615   4.816   4.393
 6800TIP3    H120357   2.584   4.742   4.446
 6800TIP3    H220358   2.700   4.787   4.360
 6801TIP3   OH220359   0.930   3.087   0.070
 6801TIP3    H120360   0.937   2.998   0.037
 6801TIP3    H220361   0.976   3.141   0.005
 6802TIP3   OH220362   1.802   4.744   5.440
 6802TIP3    H120363   1.773   4.813   5.380
 6802TIP3    H220364   1.779   4.662   5.395
 6803TIP3   OH220365   5.632   2.438   2.552
 6803TIP3    H120366   5.679   2.357   2.534
 6803TIP3    H220367   5.660   2.498   2.482
 6804TIP3   OH220368   4.983   2.083   5.261
 6804TIP3    H120369   5.049   2.135   5.307
 6804TIP3    H220370   4.925   2.148   5.220
 6805TIP3   OH220371   1.259   6.848   1.758
 6805TIP3    H120372   1.238   6.889   1.842
 6805TIP3    H220373   1.244   6.755   1.772
 6806TIP3   OH220374   0.015   5.436   4.677
 6806TIP3    H120375   0.019   5.530   4.696
 6806TIP3    H220376   0.049   5.428   4.588
 6807TIP3   OH220377   6.231   0.950   6.212
 6807TIP3    H120378   6.186   1.013   6.155
 6807TIP3    H220379   6.239   0.996   6.296
 6808TIP3   OH220380   1.929   1.227   5.245
 6808TIP3    H120381   1.862   1.278   5.291
 6808TIP3    H220382   1.898   1.223   5.155
 6809TIP3   OH220383   1.365   6.335   2.479
 6809TIP3    H120384   1.429   6.380   2.424
 6809TIP3    H220385   1.379   6.242   2.461
 6810TIP3   OH220386   0.082   5.122   1.021
 6810TIP3    H120387   0.115   5.059   1.085
 6810TIP3    H220388   0.120   5.206   1.047
 6811TIP3   OH220389   8.161   7.667   5.542
 6811TIP3    H120390   8.137   7.759   5.555
 6811TIP3    H220391   8.164   7.631   5.630
 6812TIP3   OH220392   1.050   0.967   2.605
 6812TIP3    H120393   1.048   0.911   2.683
 6812TIP3    H220394   1.100   1.044   2.633
 6813TIP3   OH220395   0.250   4.352   6.257
 6813TIP3    H120396   0.329   4.314   6.296
 6813TIP3    H220397   0.273   4.367   6.166
 6814TIP3   OH220398   3.159   2.089   5.077
 6814TIP3    H120399   3.246   2.051   5.077
 6814TIP3    H220400   3.128   2.078   5.168
 6815TIP3   OH220401   5.130   7.545   2.927
 6815TIP3    H120402   5.218   7.518   2.899
 6815TIP3    H220403   5.106   7.483   2.996
 6816TIP3   OH220404   3.438   6.733   1.339
 6816TIP3    H120405   3.400   6.774   1.416
 6816TIP3    H220406   3.480   6.654   1.372
 6817TIP3   OH220407   4.925   2.858   6.148
 6817TIP3    H120408   4.954   2.947   6.167
 6817TIP3    H220409   4.834   2.868   6.118
 6818TIP3   OH220410   2.334   7.714   4.850
 6818TIP3    H120411   2.275   7.730   4.925
 6818TIP3    H220412   2.405   7.777   4.862
 6819TIP3   OH220413   4.221   6.947   6.709
 6819TIP3    H120414   4.273   6.897   6.647
 6819TIP3    H220415   4.249   7.037   6.697
 6820TIP3   OH220416   4.255   5.392   0.648
 6820TIP3    H120417   4.322   5.398   0.716
 6820TIP3    H220418   4.210   5.477   0.651
 6821TIP3   OH220419   3.447   1.001   1.659
 6821TIP3    H120420   3.511   0.930   1.655
 6821TIP3    H220421   3.379   0.969   1.719
 6822TIP3   OH220422   2.173   4.122   4.345
 6822TIP3    H120423   2.211   4.149   4.262
 6822TIP3    H220424   2.118   4.196   4.371
 6823TIP3   OH220425   5.832   0.117   3.983
 6823TIP3    H120426   5.785   0.097   4.064
 6823TIP3    H220427   5.771   0.093   3.913
 6824TIP3   OH220428   0.530   0.323   1.387
 6824TIP3    H120429   0.615   0.316   1.344
 6824TIP3    H220430   0.523   0.416   1.411
 6825TIP3   OH220431   3.853   6.626   3.179
 6825TIP3    H120432   3.869   6.542   3.137
 6825TIP3    H220433   3.873   6.610   3.272
 6826TIP3   OH220434   4.839   2.274   5.137
 6826TIP3    H120435   4.889   2.332   5.081
 6826TIP3    H220436   4.748   2.284   5.108
 6827TIP3   OH220437   6.091   4.047   1.086
 6827TIP3    H120438   6.033   3.993   1.032
 6827TIP3    H220439   6.179   4.013   1.066
 6828TIP3   OH220440   2.553   0.615   3.127
 6828TIP3    H120441   2.598   0.688   3.170
 6828TIP3    H220442   2.617   0.545   3.125
 6829TIP3   OH220443   5.991   0.709   1.873
 6829TIP3    H120444   5.927   0.774   1.845
 6829TIP3    H220445   5.976   0.698   1.967
 6830TIP3   OH220446   6.741   3.096   3.319
 6830TIP3    H120447   6.677   3.027   3.303
 6830TIP3    H220448   6.826   3.052   3.312
 6831TIP3   OH220449   5.751   4.831   1.629
 6831TIP3    H120450   5.735   4.921   1.656
 6831TIP3    H220451   5.843   4.830   1.602
 6832TIP3   OH220452   2.286   1.364   4.923
 6832TIP3    H120453   2.247   1.410   4.997
 6832TIP3    H220454   2.324   1.433   4.869
 6833TIP3   OH220455   0.666   6.832   5.626
 6833TIP3    H120456   0.678   6.739   5.605
 6833TIP3    H220457   0.686   6.877   5.544
 6834TIP3   OH220458   7.842   4.307   5.246
 6834TIP3    H120459   7.926   4.267   5.268
 6834TIP3    H220460   7.830   4.376   5.311
 6835TIP3   OH220461   6.669   0.416   6.791
 6835TIP3    H120462   6.714   0.462   6.862
 6835TIP3    H220463   6.739   0.389   6.732
 6836TIP3   OH220464   7.740   5.388   3.976
 6836TIP3    H120465   7.747   5.469   4.026
 6836TIP3    H220466   7.823   5.342   3.992
 6837TIP3   OH220467   4.406   4.316   3.952
 6837TIP3    H120468   4.469   4.251   3.984
 6837TIP3    H220469   4.360   4.271   3.881
 6838TIP3   OH220470   4.343   1.722   5.241
 6838TIP3    H120471   4.437   1.738   5.234
 6838TIP3    H220472   4.325   1.655   5.175
 6839TIP3   OH220473   4.113   7.102   5.791
 6839TIP3    H120474   4.155   7.043   5.729
 6839TIP3    H220475   4.042   7.142   5.742
 6840TIP3   OH220476   2.076   3.702   2.225
 6840TIP3    H120477   2.079   3.700   2.321
 6840TIP3    H220478   2.157   3.747   2.199
 6841TIP3   OH220479   7.433   5.484   2.859
 6841TIP3    H120480   7.406   5.392   2.854
 6841TIP3    H220481   7.387   5.518   2.935
 6842TIP3   OH220482   4.446   6.406   1.477
 6842TIP3    H120483   4.356   6.395   1.508
 6842TIP3    H220484   4.497   6.413   1.557
 6843TIP3   OH220485   0.698   2.607   0.970
 6843TIP3    H120486   0.685   2.664   0.894
 6843TIP3    H220487   0.766   2.651   1.021
 6844TIP3   OH220488   6.977   7.069   3.100
 6844TIP3    H120489   7.019   7.075   3.014
 6844TIP3    H220490   6.897   7.018   3.083
 6845TIP3   OH220491   7.820   4.716   1.390
 6845TIP3    H120492   7.874   4.770   1.447
 6845TIP3    H220493   7.879   4.689   1.319
 6846TIP3   OH220494   1.351   4.166   2.179
 6846TIP3    H120495   1.371   4.129   2.093
 6846TIP3    H220496   1.295   4.101   2.221
 6847TIP3   OH220497   3.923   1.668   1.444
 6847TIP3    H120498   3.905   1.759   1.467
 6847TIP3    H220499   3.992   1.641   1.505
 6848TIP3   OH220500   2.706   6.214   4.698
 6848TIP3    H120501   2.671   6.129   4.724
 6848TIP3    H220502   2.741   6.251   4.779
 6849TIP3   OH220503   6.791   1.994   2.167
 6849TIP3    H120504   6.782   2.088   2.154
 6849TIP3    H220505   6.873   1.972   2.122
 6850TIP3   OH220506   6.397   3.826   2.656
 6850TIP3    H120507   6.364   3.793   2.739
 6850TIP3    H220508   6.337   3.792   2.590
 6851TIP3   OH220509   4.204   0.395   4.995
 6851TIP3    H120510   4.127   0.352   4.959
 6851TIP3    H220511   4.273   0.379   4.931
 6852TIP3   OH220512   7.888   3.675   0.965
 6852TIP3    H120513   7.917   3.687   1.056
 6852TIP3    H220514   7.793   3.669   0.971
 6853TIP3   OH220515   5.819   0.969   6.397
 6853TIP3    H120516   5.898   1.018   6.417
 6853TIP3    H220517   5.819   0.960   6.302
 6854TIP3   OH220518   7.458   6.657   2.159
 6854TIP3    H120519   7.411   6.691   2.235
 6854TIP3    H220520   7.442   6.723   2.090
 6855TIP3   OH220521   3.548   5.778   6.068
 6855TIP3    H120522   3.583   5.821   6.146
 6855TIP3    H220523   3.545   5.847   6.002
 6856TIP3   OH220524   4.596   3.266   2.581
 6856TIP3    H120525   4.594   3.209   2.503
 6856TIP3    H220526   4.606   3.354   2.545
 6857TIP3   OH220527   7.328   2.931   4.101
 6857TIP3    H120528   7.296   2.841   4.106
 6857TIP3    H220529   7.326   2.962   4.191
 6858TIP3   OH220530   2.269   2.057   3.940
 6858TIP3    H120531   2.345   2.102   3.975
 6858TIP3    H220532   2.293   2.035   3.850
 6859TIP3   OH220533   6.943   3.757   5.392
 6859TIP3    H120534   7.031   3.734   5.420
 6859TIP3    H220535   6.943   3.742   5.297
 6860TIP3   OH220536   8.082   6.004   5.153
 6860TIP3    H120537   8.141   5.934   5.181
 6860TIP3    H220538   8.140   6.077   5.130
 6861TIP3   OH220539   5.133   2.506   2.982
 6861TIP3    H120540   5.114   2.448   2.909
 6861TIP3    H220541   5.059   2.496   3.042
 6862TIP3   OH220542   4.985   3.604   4.994
 6862TIP3    H120543   4.949   3.672   5.049
 6862TIP3    H220544   5.075   3.592   5.025
 6863TIP3   OH220545   2.448   5.513   5.214
 6863TIP3    H120546   2.422   5.462   5.291
 6863TIP3    H220547   2.375   5.504   5.153
 6864TIP3   OH220548   2.517   6.575   1.973
 6864TIP3    H120549   2.558   6.536   2.050
 6864TIP3    H220550   2.587   6.582   1.909
 6865TIP3   OH220551   2.532   5.217   4.640
 6865TIP3    H120552   2.615   5.215   4.686
 6865TIP3    H220553   2.516   5.310   4.624
 6866TIP3   OH220554   1.389   6.043   0.647
 6866TIP3    H120555   1.425   6.000   0.569
 6866TIP3    H220556   1.349   5.972   0.698
 6867TIP3   OH220557   7.954   5.222   6.354
 6867TIP3    H120558   7.892   5.175   6.410
 6867TIP3    H220559   7.929   5.199   6.265
 6868TIP3   OH220560   7.291   3.540   3.727
 6868TIP3    H120561   7.362   3.513   3.786
 6868TIP3    H220562   7.216   3.489   3.756
 6869TIP3   OH220563   2.734   3.853   4.537
 6869TIP3    H120564   2.818   3.818   4.566
 6869TIP3    H220565   2.736   3.846   4.442
 6870TIP3   OH220566   4.384   6.195   1.006
 6870TIP3    H120567   4.437   6.133   1.056
 6870TIP3    H220568   4.369   6.268   1.066
 6871TIP3   OH220569   0.715   6.829   4.137
 6871TIP3    H120570   0.657   6.768   4.092
 6871TIP3    H220571   0.767   6.869   4.067
 6872TIP3   OH220572   4.164   6.325   5.935
 6872TIP3    H120573   4.124   6.398   5.889
 6872TIP3    H220574   4.237   6.298   5.879
 6873TIP3   OH220575   6.052   1.016   4.547
 6873TIP3    H120576   5.981   1.072   4.578
 6873TIP3    H220577   6.028   0.996   4.456
 6874TIP3   OH220578   6.890   6.041   6.708
 6874TIP3    H120579   6.824   6.094   6.754
 6874TIP3    H220580   6.943   6.004   6.778
 6875TIP3   OH220581   5.778   6.131   3.886
 6875TIP3    H120582   5.856   6.120   3.940
 6875TIP3    H220583   5.768   6.047   3.841
 6876TIP3   OH220584   5.274   3.367   2.153
 6876TIP3    H120585   5.310   3.366   2.242
 6876TIP3    H220586   5.307   3.449   2.115
 6877TIP3   OH220587   0.822   4.782   1.065
 6877TIP3    H120588   0.876   4.786   0.986
 6877TIP3    H220589   0.839   4.865   1.109
 6878TIP3   OH220590   5.692   0.280   0.915
 6878TIP3    H120591   5.602   0.311   0.916
 6878TIP3    H220592   5.688   0.197   0.868
 6879TIP3   OH220593   7.514   4.197   3.838
 6879TIP3    H120594   7.442   4.238   3.789
 6879TIP3    H220595   7.592   4.244   3.809
 6880TIP3   OH220596   4.510   5.873   1.288
 6880TIP3    H120597   4.418   5.864   1.315
 6880TIP3    H220598   4.558   5.819   1.352
 6881TIP3   OH220599   6.924   5.760   4.783
 6881TIP3    H120600   6.971   5.765   4.866
 6881TIP3    H220601   6.949   5.841   4.737
 6882TIP3   OH220602   2.317   2.234   3.472
 6882TIP3    H120603   2.227   2.209   3.449
 6882TIP3    H220604   2.360   2.249   3.388
 6883TIP3   OH220605   1.584   2.501   3.490
 6883TIP3    H120606   1.547   2.563   3.552
 6883TIP3    H220607   1.670   2.537   3.469
 6884TIP3   OH220608   1.868   3.088   0.335
 6884TIP3    H120609   1.784   3.121   0.367
 6884TIP3    H220610   1.847   3.041   0.255
 6885TIP3   OH220611   3.956   3.643   1.746
 6885TIP3    H120612   3.898   3.645   1.821
 6885TIP3    H220613   3.983   3.734   1.734
 6886TIP3   OH220614   4.264   2.944   5.912
 6886TIP3    H120615   4.249   2.907   5.825
 6886TIP3    H220616   4.178   2.974   5.941
 6887TIP3   OH220617   3.722   3.227   1.800
 6887TIP3    H120618   3.672   3.308   1.790
 6887TIP3    H220619   3.814   3.255   1.799
 6888TIP3   OH220620   6.651   6.643   3.640
 6888TIP3    H120621   6.734   6.603   3.613
 6888TIP3    H220622   6.602   6.572   3.680
 6889TIP3   OH220623   4.501   2.088   6.622
 6889TIP3    H120624   4.510   2.078   6.527
 6889TIP3    H220625   4.432   2.153   6.633
 6890TIP3   OH220626   3.963   0.544   3.803
 6890TIP3    H120627   3.984   0.560   3.895
 6890TIP3    H220628   4.038   0.496   3.769
 6891TIP3   OH220629   6.781   4.683   3.922
 6891TIP3    H120630   6.831   4.604   3.942
 6891TIP3    H220631   6.819   4.750   3.979
 6892TIP3   OH220632   0.758   0.858   1.918
 6892TIP3    H120633   0.747   0.908   2.000
 6892TIP3    H220634   0.835   0.896   1.877
 6893TIP3   OH220635   1.513   7.581   4.425
 6893TIP3    H120636   1.436   7.617   4.468
 6893TIP3    H220637   1.587   7.618   4.473
 6894TIP3   OH220638   0.244   3.602   6.342
 6894TIP3    H120639   0.268   3.683   6.386
 6894TIP3    H220640   0.214   3.629   6.255
 6895TIP3   OH220641   6.453   5.000   1.389
 6895TIP3    H120642   6.524   4.940   1.411
 6895TIP3    H220643   6.484   5.047   1.312
 6896TIP3   OH220644   0.976   6.410   0.821
 6896TIP3    H120645   0.945   6.417   0.730
 6896TIP3    H220646   0.906   6.450   0.872
 6897TIP3   OH220647   5.685   4.996   6.162
 6897TIP3    H120648   5.623   5.027   6.096
 6897TIP3    H220649   5.701   5.072   6.218
 6898TIP3   OH220650   2.201   2.599   2.497
 6898TIP3    H120651   2.135   2.589   2.429
 6898TIP3    H220652   2.245   2.682   2.476
 6899TIP3   OH220653   1.482   0.922   2.077
 6899TIP3    H120654   1.446   0.876   2.002
 6899TIP3    H220655   1.489   0.855   2.145
 6900TIP3   OH220656   0.627   4.597   1.333
 6900TIP3    H120657   0.693   4.652   1.375
 6900TIP3    H220658   0.671   4.558   1.258
 6901TIP3   OH220659   2.091   0.910  -0.022
 6901TIP3    H120660   2.082   0.866   0.063
 6901TIP3    H220661   2.125   0.843  -0.080
 6902TIP3   OH220662   5.762   3.984   3.523
 6902TIP3    H120663   5.716   3.919   3.470
 6902TIP3    H220664   5.812   4.035   3.459
 6903TIP3   OH220665   4.232   7.738   0.930
 6903TIP3    H120666   4.276   7.816   0.899
 6903TIP3    H220667   4.255   7.670   0.867
 6904TIP3   OH220668   0.701   5.411   0.762
 6904TIP3    H120669   0.701   5.349   0.689
 6904TIP3    H220670   0.611   5.444   0.766
 6905TIP3   OH220671   0.084   2.856   0.643
 6905TIP3    H120672   0.152   2.790   0.652
 6905TIP3    H220673   0.047   2.841   0.556
 6906TIP3   OH220674   2.169   0.956   0.571
 6906TIP3    H120675   2.101   0.902   0.611
 6906TIP3    H220676   2.229   0.893   0.530
 6907TIP3   OH220677   6.781   0.389   1.551
 6907TIP3    H120678   6.701   0.441   1.543
 6907TIP3    H220679   6.762   0.308   1.505
 6908TIP3   OH220680   3.621   6.991   3.886
 6908TIP3    H120681   3.579   7.074   3.862
 6908TIP3    H220682   3.669   7.011   3.967
 6909TIP3   OH220683   4.535   4.869   6.198
 6909TIP3    H120684   4.615   4.836   6.239
 6909TIP3    H220685   4.566   4.940   6.141
 6910TIP3   OH220686   5.760   1.822   3.796
 6910TIP3    H120687   5.686   1.801   3.739
 6910TIP3    H220688   5.770   1.917   3.788
 6911TIP3   OH220689   8.074   6.533   2.020
 6911TIP3    H120690   8.088   6.440   2.002
 6911TIP3    H220691   8.020   6.564   1.948
 6912TIP3   OH220692   6.407   1.642   1.470
 6912TIP3    H120693   6.447   1.555   1.460
 6912TIP3    H220694   6.479   1.703   1.455
 6913TIP3   OH220695   2.298   5.149   3.810
 6913TIP3    H120696   2.232   5.105   3.756
 6913TIP3    H220697   2.297   5.100   3.892
 6914TIP3   OH220698   5.557   6.647   3.091
 6914TIP3    H120699   5.557   6.554   3.116
 6914TIP3    H220700   5.552   6.646   2.995
 6915TIP3   OH220701   6.577   2.980   5.083
 6915TIP3    H120702   6.609   2.890   5.095
 6915TIP3    H220703   6.624   3.031   5.149
 6916TIP3   OH220704   8.142   1.860   1.649
 6916TIP3    H120705   8.050   1.876   1.672
 6916TIP3    H220706   8.147   1.766   1.633
 6917TIP3   OH220707   3.236   0.875   2.370
 6917TIP3    H120708   3.255   0.813   2.440
 6917TIP3    H220709   3.179   0.827   2.310
 6918TIP3   OH220710   1.651   7.351   1.080
 6918TIP3    H120711   1.592   7.394   1.018
 6918TIP3    H220712   1.722   7.317   1.025
 6919TIP3   OH220713   4.051   4.820   0.076
 6919TIP3    H120714   4.018   4.759   0.143
 6919TIP3    H220715   4.146   4.809   0.078
 6920TIP3   OH220716   2.695   5.696   4.184
 6920TIP3    H120717   2.713   5.765   4.121
 6920TIP3    H220718   2.733   5.617   4.145
 6921TIP3   OH220719   3.533   1.918   4.479
 6921TIP3    H120720   3.527   1.941   4.571
 6921TIP3    H220721   3.571   1.831   4.478
 6922TIP3   OH220722   7.684   3.230   0.271
 6922TIP3    H120723   7.701   3.292   0.200
 6922TIP3    H220724   7.724   3.148   0.242
 6923TIP3   OH220725   8.060   7.797   2.746
 6923TIP3    H120726   8.116   7.852   2.799
 6923TIP3    H220727   8.038   7.723   2.802
 6924TIP3   OH220728   0.372   0.881   2.808
 6924TIP3    H120729   0.328   0.965   2.797
 6924TIP3    H220730   0.350   0.853   2.897
 6925TIP3   OH220731   1.922   0.221   1.901
 6925TIP3    H120732   1.975   0.286   1.856
 6925TIP3    H220733   1.849   0.205   1.841
 6926TIP3   OH220734   4.732   7.326   0.230
 6926TIP3    H120735   4.809   7.383   0.237
 6926TIP3    H220736   4.733   7.295   0.140
 6927TIP3   OH220737   4.066   3.441   5.756
 6927TIP3    H120738   4.007   3.496   5.807
 6927TIP3    H220739   4.130   3.409   5.819
 6928TIP3   OH220740   3.042   3.683   5.822
 6928TIP3    H120741   3.104   3.618   5.791
 6928TIP3    H220742   2.967   3.632   5.853
 6929TIP3   OH220743   7.477   4.604   0.606
 6929TIP3    H120744   7.525   4.663   0.664
 6929TIP3    H220745   7.457   4.657   0.529
 6930TIP3   OH220746   2.329   1.293   2.910
 6930TIP3    H120747   2.361   1.223   2.965
 6930TIP3    H220748   2.405   1.349   2.894
 6931TIP3   OH220749   2.845   7.753   1.635
 6931TIP3    H120750   2.852   7.663   1.666
 6931TIP3    H220751   2.935   7.784   1.629
 6932TIP3   OH220752   6.590   0.911   4.111
 6932TIP3    H120753   6.552   0.825   4.092
 6932TIP3    H220754   6.522   0.974   4.085
 6933TIP3   OH220755   0.952   7.482   1.564
 6933TIP3    H120756   1.000   7.532   1.629
 6933TIP3    H220757   0.931   7.400   1.608
 6934TIP3   OH220758   1.589   2.767   0.868
 6934TIP3    H120759   1.661   2.785   0.929
 6934TIP3    H220760   1.592   2.672   0.855
 6935TIP3   OH220761   5.786   6.518   3.203
 6935TIP3    H120762   5.748   6.468   3.276
 6935TIP3    H220763   5.734   6.491   3.127
 6936TIP3   OH220764   5.018   5.891   2.533
 6936TIP3    H120765   5.016   5.958   2.601
 6936TIP3    H220766   5.110   5.884   2.509
 6937TIP3   OH220767   3.797   6.248   5.571
 6937TIP3    H120768   3.765   6.270   5.484
 6937TIP3    H220769   3.738   6.293   5.631
 6938TIP3   OH220770   0.127   4.624   6.033
 6938TIP3    H120771   0.182   4.673   6.094
 6938TIP3    H220772   0.123   4.679   5.955
 6939TIP3   OH220773   8.087   6.916   4.936
 6939TIP3    H120774   8.147   6.914   5.011
 6939TIP3    H220775   8.000   6.909   4.974
 6940TIP3   OH220776   2.398   0.080   5.148
 6940TIP3    H120777   2.403   0.036   5.233
 6940TIP3    H220778   2.357   0.016   5.090
 6941TIP3   OH220779   3.777   5.638   6.765
 6941TIP3    H120780   3.707   5.575   6.751
 6941TIP3    H220781   3.806   5.623   6.855
 6942TIP3   OH220782   5.871   4.650   4.425
 6942TIP3    H120783   5.884   4.556   4.418
 6942TIP3    H220784   5.829   4.662   4.510
 6943TIP3   OH220785   2.451   0.326   5.086
 6943TIP3    H120786   2.490   0.368   5.163
 6943TIP3    H220787   2.428   0.238   5.116
 6944TIP3   OH220788   5.198   6.661   3.003
 6944TIP3    H120789   5.129   6.615   3.049
 6944TIP3    H220790   5.240   6.716   3.069
 6945TIP3   OH220791   6.100   5.507   1.936
 6945TIP3    H120792   6.165   5.458   1.886
 6945TIP3    H220793   6.043   5.440   1.974
 6946TIP3   OH220794   0.583   7.707   1.158
 6946TIP3    H120795   0.620   7.638   1.214
 6946TIP3    H220796   0.514   7.663   1.109
 6947TIP3   OH220797   5.119   1.960   6.006
 6947TIP3    H120798   5.161   2.040   5.976
 6947TIP3    H220799   5.026   1.980   6.009
 6948TIP3   OH220800   8.059   3.060   4.300
 6948TIP3    H120801   8.123   2.990   4.282
 6948TIP3    H220802   8.106   3.141   4.278
 6949TIP3   OH220803   6.173   3.086   5.514
 6949TIP3    H120804   6.187   3.108   5.606
 6949TIP3    H220805   6.196   2.993   5.508
 6950TIP3   OH220806   2.120   4.635   1.221
 6950TIP3    H120807   2.209   4.622   1.252
 6950TIP3    H220808   2.090   4.548   1.194
 6951TIP3   OH220809   7.277   6.379   4.506
 6951TIP3    H120810   7.246   6.469   4.519
 6951TIP3    H220811   7.340   6.366   4.577
 6952TIP3   OH220812   0.797   7.357   5.365
 6952TIP3    H120813   0.769   7.299   5.436
 6952TIP3    H220814   0.760   7.443   5.389
 6953TIP3   OH220815   4.478   4.809   2.976
 6953TIP3    H120816   4.399   4.806   2.922
 6953TIP3    H220817   4.466   4.740   3.041
 6954TIP3   OH220818   7.193   6.240   0.926
 6954TIP3    H120819   7.193   6.334   0.945
 6954TIP3    H220820   7.116   6.226   0.871
 6955TIP3   OH220821   4.423   2.742   1.812
 6955TIP3    H120822   4.419   2.804   1.885
 6955TIP3    H220823   4.334   2.708   1.804
 6956TIP3   OH220824   4.515   4.593   5.624
 6956TIP3    H120825   4.559   4.643   5.692
 6956TIP3    H220826   4.431   4.567   5.664
 6957TIP3   OH220827   2.031   4.467   5.272
 6957TIP3    H120828   2.003   4.484   5.182
 6957TIP3    H220829   2.087   4.541   5.294
 6958TIP3   OH220830   2.505   3.748   2.287
 6958TIP3    H120831   2.548   3.815   2.339
 6958TIP3    H220832   2.447   3.703   2.349
 6959TIP3   OH220833   5.917   7.449   1.906
 6959TIP3    H120834   5.837   7.431   1.955
 6959TIP3    H220835   5.938   7.540   1.926
 6960TIP3   OH220836   7.276   4.948   2.270
 6960TIP3    H120837   7.329   4.972   2.194
 6960TIP3    H220838   7.260   5.032   2.314
 6961TIP3   OH220839   4.960   1.121   2.208
 6961TIP3    H120840   4.874   1.124   2.250
 6961TIP3    H220841   4.972   1.209   2.172
 6962TIP3   OH220842   3.965   4.891   4.951
 6962TIP3    H120843   3.901   4.846   5.006
 6962TIP3    H220844   3.930   4.980   4.941
 6963TIP3   OH220845   5.990   4.761   0.597
 6963TIP3    H120846   5.972   4.750   0.503
 6963TIP3    H220847   5.939   4.838   0.623
 6964TIP3   OH220848   5.127   3.236   6.715
 6964TIP3    H120849   5.116   3.328   6.694
 6964TIP3    H220850   5.222   3.224   6.718
 6965TIP3   OH220851   5.472   4.525   2.360
 6965TIP3    H120852   5.548   4.466   2.360
 6965TIP3    H220853   5.419   4.495   2.286
 6966TIP3   OH220854   1.254   2.530   5.463
 6966TIP3    H120855   1.179   2.517   5.405
 6966TIP3    H220856   1.240   2.616   5.502
 6967TIP3   OH220857   7.421   4.158   0.133
 6967TIP3    H120858   7.506   4.119   0.151
 6967TIP3    H220859   7.357   4.092   0.160
 6968TIP3   OH220860   3.828   6.045   3.187
 6968TIP3    H120861   3.820   6.102   3.110
 6968TIP3    H220862   3.740   6.041   3.223
 6969TIP3   OH220863   5.276   6.399   1.310
 6969TIP3    H120864   5.362   6.437   1.319
 6969TIP3    H220865   5.230   6.456   1.248
 6970TIP3   OH220866   0.349   6.009   6.547
 6970TIP3    H120867   0.383   5.919   6.543
 6970TIP3    H220868   0.358   6.042   6.458
 6971TIP3   OH220869   6.684   5.675   5.560
 6971TIP3    H120870   6.631   5.736   5.610
 6971TIP3    H220871   6.690   5.713   5.473
 6972TIP3   OH220872   2.194   1.188   6.226
 6972TIP3    H120873   2.144   1.164   6.147
 6972TIP3    H220874   2.258   1.252   6.195
 6973TIP3   OH220875   2.986   1.387   6.571
 6973TIP3    H120876   3.057   1.346   6.521
 6973TIP3    H220877   3.026   1.465   6.610
 6974TIP3   OH220878   3.723   3.804   3.168
 6974TIP3    H120879   3.748   3.777   3.080
 6974TIP3    H220880   3.680   3.728   3.205
 6975TIP3   OH220881   7.870   6.625   1.525
 6975TIP3    H120882   7.816   6.546   1.515
 6975TIP3    H220883   7.806   6.697   1.531
 6976TIP3   OH220884   3.740   0.733   1.930
 6976TIP3    H120885   3.803   0.777   1.873
 6976TIP3    H220886   3.794   0.680   1.988
 6977TIP3   OH220887   7.822   2.380   6.519
 6977TIP3    H120888   7.800   2.375   6.612
 6977TIP3    H220889   7.852   2.292   6.496
 6978TIP3   OH220890   8.093   7.549   1.676
 6978TIP3    H120891   8.044   7.597   1.610
 6978TIP3    H220892   8.033   7.539   1.749
 6979TIP3   OH220893   3.897   5.387   1.645
 6979TIP3    H120894   3.948   5.465   1.668
 6979TIP3    H220895   3.940   5.316   1.692
 6980TIP3   OH220896   3.286   0.126   5.651
 6980TIP3    H120897   3.210   0.183   5.664
 6980TIP3    H220898   3.361   0.182   5.669
 6981TIP3   OH220899   7.656   0.480   5.794
 6981TIP3    H120900   7.621   0.394   5.818
 6981TIP3    H220901   7.732   0.493   5.850
 6982TIP3   OH220902   4.061   2.993   4.299
 6982TIP3    H120903   4.098   2.920   4.249
 6982TIP3    H220904   4.089   3.071   4.251
 6983TIP3   OH220905   2.717   6.678   6.539
 6983TIP3    H120906   2.753   6.667   6.627
 6983TIP3    H220907   2.625   6.652   6.548
 6984TIP3   OH220908   2.044   5.390   2.930
 6984TIP3    H120909   2.018   5.482   2.928
 6984TIP3    H220910   1.993   5.349   2.860
 6985TIP3   OH220911   6.290   0.169   3.225
 6985TIP3    H120912   6.228   0.098   3.242
 6985TIP3    H220913   6.254   0.215   3.149
 6986TIP3   OH220914   5.466   5.278   3.353
 6986TIP3    H120915   5.443   5.204   3.410
 6986TIP3    H220916   5.394   5.340   3.366
 6987TIP3   OH220917   7.994   3.027   2.747
 6987TIP3    H120918   8.088   3.044   2.759
 6987TIP3    H220919   7.985   3.010   2.654
 6988TIP3   OH220920   7.294   6.348   0.238
 6988TIP3    H120921   7.371   6.395   0.269
 6988TIP3    H220922   7.303   6.348   0.142
 6989TIP3   OH220923   1.591   2.305   2.669
 6989TIP3    H120924   1.637   2.222   2.653
 6989TIP3    H220925   1.661   2.371   2.670
 6990TIP3   OH220926   0.992   1.950   1.763
 6990TIP3    H120927   1.065   1.966   1.823
 6990TIP3    H220928   0.992   2.026   1.705
 6991TIP3   OH220929   4.286   4.535   5.762
 6991TIP3    H120930   4.287   4.520   5.857
 6991TIP3    H220931   4.262   4.451   5.724
 6992TIP3   OH220932   2.713   0.870   6.659
 6992TIP3    H120933   2.749   0.787   6.691
 6992TIP3    H220934   2.744   0.876   6.569
 6993TIP3   OH220935   3.699   1.197   6.135
 6993TIP3    H120936   3.708   1.137   6.209
 6993TIP3    H220937   3.689   1.139   6.059
 6994TIP3   OH220938   3.166   3.332   3.820
 6994TIP3    H120939   3.135   3.383   3.745
 6994TIP3    H220940   3.226   3.268   3.781
 6995TIP3   OH220941   0.795   1.937   2.002
 6995TIP3    H120942   0.788   1.850   2.042
 6995TIP3    H220943   0.829   1.921   1.914
 6996TIP3   OH220944   7.651   6.233   0.944
 6996TIP3    H120945   7.729   6.236   0.999
 6996TIP3    H220946   7.677   6.277   0.863
 6997TIP3   OH220947   6.724   1.945   1.103
 6997TIP3    H120948   6.702   1.876   1.040
 6997TIP3    H220949   6.757   1.898   1.180
 6998TIP3   OH220950   4.011   3.971   4.544
 6998TIP3    H120951   4.094   3.930   4.567
 6998TIP3    H220952   3.944   3.907   4.570
 6999TIP3   OH220953   0.367   1.466   5.640
 6999TIP3    H120954   0.386   1.522   5.716
 6999TIP3    H220955   0.453   1.450   5.600
 7000TIP3   OH220956   4.744   6.283   1.229
 7000TIP3    H120957   4.712   6.208   1.279
 7000TIP3    H220958   4.825   6.309   1.273
 7001TIP3   OH220959   0.582   3.072   2.130
 7001TIP3    H120960   0.625   2.990   2.152
 7001TIP3    H220961   0.613   3.092   2.041
 7002TIP3   OH220962   1.390   1.591   0.418
 7002TIP3    H120963   1.298   1.580   0.440
 7002TIP3    H220964   1.390   1.627   0.329
 7003TIP3   OH220965   5.150   2.085   3.990
 7003TIP3    H120966   5.103   2.141   3.928
 7003TIP3    H220967   5.217   2.142   4.028
 7004TIP3   OH220968   2.820   5.173   2.476
 7004TIP3    H120969   2.866   5.209   2.552
 7004TIP3    H220970   2.888   5.167   2.408
 7005TIP3   OH220971   5.913   0.365   2.575
 7005TIP3    H120972   5.939   0.344   2.665
 7005TIP3    H220973   5.945   0.291   2.523
 7006TIP3   OH220974   6.008   7.286   0.108
 7006TIP3    H120975   6.007   7.379   0.085
 7006TIP3    H220976   6.089   7.252   0.070
 7007TIP3   OH220977   2.820   3.206   4.994
 7007TIP3    H120978   2.879   3.281   4.999
 7007TIP3    H220979   2.859   3.148   4.928
 7008TIP3   OH220980   2.037   0.537   6.668
 7008TIP3    H120981   2.078   0.454   6.642
 7008TIP3    H220982   2.088   0.604   6.623
 7009TIP3   OH220983   4.167   4.411   0.725
 7009TIP3    H120984   4.124   4.496   0.738
 7009TIP3    H220985   4.121   4.351   0.783
 7010TIP3   OH220986   5.137   2.751   4.523
 7010TIP3    H120987   5.205   2.759   4.590
 7010TIP3    H220988   5.141   2.833   4.474
 7011TIP3   OH220989   2.246   0.974   3.987
 7011TIP3    H120990   2.317   0.997   3.927
 7011TIP3    H220991   2.291   0.950   4.068
 7012TIP3   OH220992   7.421   1.006   4.183
 7012TIP3    H120993   7.468   1.051   4.254
 7012TIP3    H220994   7.484   0.944   4.148
 7013TIP3   OH220995   0.061   7.055   1.801
 7013TIP3    H120996  -0.015   6.998   1.816
 7013TIP3    H220997   0.096   7.026   1.717
 7014TIP3   OH220998   1.718   0.740   6.561
 7014TIP3    H120999   1.726   0.647   6.578
 7014TIP3    H221000   1.806   0.768   6.536
 7015TIP3   OH221001   5.655   3.127   0.169
 7015TIP3    H121002   5.571   3.089   0.141
 7015TIP3    H221003   5.688   3.066   0.234
 7016TIP3   OH221004   7.608   3.491   0.715
 7016TIP3    H121005   7.693   3.457   0.743
 7016TIP3    H221006   7.572   3.421   0.660
 7017TIP3   OH221007   3.100   3.122   6.415
 7017TIP3    H121008   3.190   3.109   6.386
 7017TIP3    H221009   3.047   3.095   6.340
 7018TIP3   OH221010   7.195   4.685   0.113
 7018TIP3    H121011   7.118   4.668   0.168
 7018TIP3    H221012   7.223   4.598   0.084
 7019TIP3   OH221013   7.787   0.468   0.468
 7019TIP3    H121014   7.815   0.422   0.547
 7019TIP3    H221015   7.865   0.514   0.437
 7020TIP3   OH221016   0.121   3.239   2.687
 7020TIP3    H121017   0.195   3.179   2.677
 7020TIP3    H221018   0.150   3.321   2.645
 7021TIP3   OH221019   6.518   5.972   4.646
 7021TIP3    H121020   6.508   5.913   4.720
 7021TIP3    H221021   6.433   6.016   4.639
 7022TIP3   OH221022   1.496   6.388   4.016
 7022TIP3    H121023   1.537   6.336   4.085
 7022TIP3    H221024   1.479   6.326   3.946
 7023TIP3   OH221025   2.412   2.534   0.638
 7023TIP3    H121026   2.506   2.551   0.642
 7023TIP3    H221027   2.396   2.511   0.546
 7024TIP3   OH221028   6.877   4.189   4.254
 7024TIP3    H121029   6.844   4.128   4.188
 7024TIP3    H221030   6.971   4.194   4.238
 7025TIP3   OH221031   7.183   5.879   4.033
 7025TIP3    H121032   7.134   5.962   4.033
 7025TIP3    H221033   7.195   5.859   3.940
 7026TIP3   OH221034   0.341   1.305   2.097
 7026TIP3    H121035   0.269   1.354   2.058
 7026TIP3    H221036   0.301   1.225   2.131
 7027TIP3   OH221037   5.483   1.281   4.537
 7027TIP3    H121038   5.530   1.203   4.566
 7027TIP3    H221039   5.410   1.289   4.598
 7028TIP3   OH221040   8.058   4.980   2.400
 7028TIP3    H121041   7.972   4.993   2.441
 7028TIP3    H221042   8.118   4.970   2.474
 7029TIP3   OH221043   6.101   4.893   2.314
 7029TIP3    H121044   6.055   4.935   2.241
 7029TIP3    H221045   6.140   4.965   2.363
 7030TIP3   OH221046   7.555   1.420   6.362
 7030TIP3    H121047   7.586   1.475   6.433
 7030TIP3    H221048   7.554   1.478   6.285
 7031TIP3   OH221049   5.198   3.825   6.274
 7031TIP3    H121050   5.241   3.769   6.339
 7031TIP3    H221051   5.105   3.809   6.288
 7032TIP3   OH221052   6.481   0.714   6.308
 7032TIP3    H121053   6.447   0.625   6.313
 7032TIP3    H221054   6.456   0.746   6.222
 7033TIP3   OH221055   7.048   2.296   3.159
 7033TIP3    H121056   7.015   2.375   3.118
 7033TIP3    H221057   6.985   2.228   3.136
 7034TIP3   OH221058   6.563   5.545   1.542
 7034TIP3    H121059   6.601   5.492   1.471
 7034TIP3    H221060   6.568   5.488   1.619
 7035TIP3   OH221061   6.794   6.740   0.235
 7035TIP3    H121062   6.826   6.802   0.169
 7035TIP3    H221063   6.845   6.660   0.220
 7036TIP3   OH221064   0.090   0.231   5.324
 7036TIP3    H121065   0.066   0.165   5.390
 7036TIP3    H221066   0.186   0.232   5.325
 7037TIP3   OH221067   4.779   5.194   2.727
 7037TIP3    H121068   4.711   5.127   2.726
 7037TIP3    H221069   4.771   5.235   2.814
 7038TIP3   OH221070   5.085   0.510   6.421
 7038TIP3    H121071   5.039   0.567   6.358
 7038TIP3    H221072   5.085   0.560   6.503
 7039TIP3   OH221073   7.519   4.372   2.531
 7039TIP3    H121074   7.440   4.319   2.542
 7039TIP3    H221075   7.547   4.356   2.441
 7040TIP3   OH221076   4.249   4.557   6.049
 7040TIP3    H121077   4.211   4.469   6.053
 7040TIP3    H221078   4.322   4.555   6.110
 7041TIP3   OH221079   4.654   5.356   0.221
 7041TIP3    H121080   4.639   5.297   0.147
 7041TIP3    H221081   4.749   5.363   0.227
 7042TIP3   OH221082   4.131   0.678   3.189
 7042TIP3    H121083   4.106   0.695   3.280
 7042TIP3    H221084   4.053   0.635   3.151
 7043TIP3   OH221085   4.177   5.979   2.023
 7043TIP3    H121086   4.120   6.051   2.050
 7043TIP3    H221087   4.265   6.015   2.026
 7044TIP3   OH221088   6.440   4.712   4.266
 7044TIP3    H121089   6.455   4.804   4.242
 7044TIP3    H221090   6.514   4.665   4.227
 7045TIP3   OH221091   6.069   3.585   2.666
 7045TIP3    H121092   6.000   3.617   2.724
 7045TIP3    H221093   6.122   3.527   2.721
 7046TIP3   OH221094   7.232   0.997   2.071
 7046TIP3    H121095   7.286   0.918   2.077
 7046TIP3    H221096   7.271   1.058   2.134
 7047TIP3   OH221097   1.039   6.587   3.977
 7047TIP3    H121098   1.039   6.511   3.919
 7047TIP3    H221099   1.002   6.555   4.060
 7048TIP3   OH221100   2.207   6.034   0.189
 7048TIP3    H121101   2.279   5.974   0.173
 7048TIP3    H221102   2.247   6.108   0.234
 7049TIP3   OH221103   4.801   0.751   3.473
 7049TIP3    H121104   4.877   0.702   3.504
 7049TIP3    H221105   4.833   0.840   3.458
 7050TIP3   OH221106   3.404   7.824   2.933
 7050TIP3    H121107   3.396   7.729   2.927
 7050TIP3    H221108   3.320   7.853   2.969
 7051TIP3   OH221109   1.651   0.594   2.118
 7051TIP3    H121110   1.566   0.583   2.075
 7051TIP3    H221111   1.638   0.667   2.179
 7052TIP3   OH221112   5.936   2.978   2.675
 7052TIP3    H121113   6.029   2.953   2.670
 7052TIP3    H221114   5.888   2.899   2.653
 7053TIP3   OH221115   7.186   3.596   5.487
 7053TIP3    H121116   7.121   3.527   5.501
 7053TIP3    H221117   7.242   3.563   5.417
 7054TIP3   OH221118   5.978   6.619   1.553
 7054TIP3    H121119   5.970   6.530   1.586
 7054TIP3    H221120   6.021   6.667   1.624
 7055TIP3   OH221121   1.603   4.181   1.071
 7055TIP3    H121122   1.633   4.256   1.122
 7055TIP3    H221123   1.683   4.135   1.047
 7056TIP3   OH221124   3.577   6.303   3.662
 7056TIP3    H121125   3.604   6.230   3.606
 7056TIP3    H221126   3.658   6.351   3.678
 7057TIP3   OH221127   5.724   5.755   3.795
 7057TIP3    H121128   5.800   5.812   3.784
 7057TIP3    H221129   5.679   5.758   3.711
 7058TIP3   OH221130   2.920   3.074   0.428
 7058TIP3    H121131   2.870   3.126   0.365
 7058TIP3    H221132   2.878   2.988   0.426
 7059TIP3   OH221133   4.396   6.487   3.978
 7059TIP3    H121134   4.313   6.508   3.934
 7059TIP3    H221135   4.431   6.413   3.929
 7060TIP3   OH221136   3.437   7.139   0.639
 7060TIP3    H121137   3.506   7.205   0.651
 7060TIP3    H221138   3.485   7.058   0.619
 7061TIP3   OH221139   8.302   2.426   1.006
 7061TIP3    H121140   8.287   2.335   1.030
 7061TIP3    H221141   8.224   2.472   1.037
 7062TIP3   OH221142   7.284   5.876   5.244
 7062TIP3    H121143   7.330   5.848   5.165
 7062TIP3    H221144   7.276   5.797   5.297
 7063TIP3   OH221145   3.423   3.686   4.525
 7063TIP3    H121146   3.396   3.746   4.455
 7063TIP3    H221147   3.346   3.632   4.542
 7064TIP3   OH221148   7.367   1.927   2.750
 7064TIP3    H121149   7.410   1.854   2.795
 7064TIP3    H221150   7.277   1.898   2.737
 7065TIP3   OH221151   5.677   5.200   6.584
 7065TIP3    H121152   5.663   5.106   6.585
 7065TIP3    H221153   5.772   5.211   6.591
 7066TIP3   OH221154   2.097   3.114   4.919
 7066TIP3    H121155   2.016   3.082   4.959
 7066TIP3    H221156   2.142   3.160   4.990
 7067TIP3   OH221157   1.951   3.346   5.308
 7067TIP3    H121158   1.930   3.393   5.389
 7067TIP3    H221159   2.013   3.278   5.335
 7068TIP3   OH221160   2.444   6.702   6.651
 7068TIP3    H121161   2.353   6.698   6.622
 7068TIP3    H221162   2.441   6.749   6.734
 7069TIP3   OH221163   1.689   4.802   4.440
 7069TIP3    H121164   1.625   4.744   4.482
 7069TIP3    H221165   1.758   4.743   4.410
 7070TIP3   OH221166   0.470   2.688   0.296
 7070TIP3    H121167   0.534   2.672   0.366
 7070TIP3    H221168   0.423   2.767   0.324
 7071TIP3   OH221169   0.798   2.123   0.185
 7071TIP3    H121170   0.754   2.178   0.250
 7071TIP3    H221171   0.731   2.062   0.155
 7072TIP3   OH221172   1.320   7.624   5.626
 7072TIP3    H121173   1.370   7.703   5.602
 7072TIP3    H221174   1.230   7.647   5.604
 7073TIP3   OH221175   7.745   1.205   0.229
 7073TIP3    H121176   7.678   1.244   0.172
 7073TIP3    H221177   7.740   1.255   0.310
 7074TIP3   OH221178   0.493   0.786   3.977
 7074TIP3    H121179   0.586   0.790   4.001
 7074TIP3    H221180   0.484   0.701   3.934
 7075TIP3   OH221181   3.408   1.376   3.661
 7075TIP3    H121182   3.370   1.349   3.744
 7075TIP3    H221183   3.446   1.462   3.678
 7076TIP3   OH221184   7.964   1.816   3.493
 7076TIP3    H121185   7.903   1.842   3.562
 7076TIP3    H221186   8.028   1.761   3.537
 7077TIP3   OH221187   0.157   3.591   0.223
 7077TIP3    H121188   0.142   3.498   0.237
 7077TIP3    H221189   0.094   3.616   0.156
 7078TIP3   OH221190   6.936   2.166   4.476
 7078TIP3    H121191   6.878   2.107   4.524
 7078TIP3    H221192   6.950   2.239   4.536
 7079TIP3   OH221193   5.643   6.156   1.091
 7079TIP3    H121194   5.732   6.121   1.091
 7079TIP3    H221195   5.593   6.096   1.147
 7080TIP3   OH221196   4.711   0.616   0.105
 7080TIP3    H121197   4.728   0.531   0.145
 7080TIP3    H221198   4.792   0.665   0.116
 7081TIP3   OH221199   6.994   4.269   5.596
 7081TIP3    H121200   6.979   4.277   5.502
 7081TIP3    H221201   7.068   4.208   5.604
 7082TIP3   OH221202   5.025   1.834   0.420
 7082TIP3    H121203   5.029   1.830   0.325
 7082TIP3    H221204   4.975   1.757   0.446
 7083TIP3   OH221205   6.504   0.220   2.978
 7083TIP3    H121206   6.473   0.132   2.955
 7083TIP3    H221207   6.593   0.206   3.012
 7084TIP3   OH221208   5.680   5.570   6.709
 7084TIP3    H121209   5.609   5.512   6.736
 7084TIP3    H221210   5.721   5.525   6.636
 7085TIP3   OH221211   1.042   2.088   0.333
 7085TIP3    H121212   1.112   2.082   0.268
 7085TIP3    H221213   0.961   2.086   0.283
 7086TIP3   OH221214   2.153   6.346   1.026
 7086TIP3    H121215   2.235   6.321   0.984
 7086TIP3    H221216   2.177   6.415   1.087
 7087TIP3   OH221217   0.768   4.760   5.140
 7087TIP3    H121218   0.855   4.794   5.118
 7087TIP3    H221219   0.730   4.828   5.196
 7088TIP3   OH221220   5.416   3.508   0.851
 7088TIP3    H121221   5.392   3.508   0.759
 7088TIP3    H221222   5.482   3.577   0.859
 7089TIP3   OH221223   7.904   1.142   6.731
 7089TIP3    H121224   7.856   1.206   6.784
 7089TIP3    H221225   7.985   1.186   6.708
 7090TIP3   OH221226   0.908   6.208   1.421
 7090TIP3    H121227   0.849   6.162   1.361
 7090TIP3    H221228   0.995   6.195   1.383
 7091TIP3   OH221229   0.575   6.385   5.213
 7091TIP3    H121230   0.654   6.388   5.266
 7091TIP3    H221231   0.599   6.429   5.131
 7092TIP3   OH221232   8.246   7.101   4.010
 7092TIP3    H121233   8.293   7.049   4.075
 7092TIP3    H221234   8.166   7.130   4.055
 7093TIP3   OH221235   5.339   6.438   2.910
 7093TIP3    H121236   5.303   6.494   2.979
 7093TIP3    H221237   5.397   6.378   2.957
 7094TIP3   OH221238   0.158   1.301   3.043
 7094TIP3    H121239   0.247   1.332   3.058
 7094TIP3    H221240   0.146   1.308   2.948
 7095TIP3   OH221241   1.246   4.457   2.663
 7095TIP3    H121242   1.170   4.467   2.720
 7095TIP3    H221243   1.235   4.371   2.623
 7096TIP3   OH221244   4.296   1.086   6.046
 7096TIP3    H121245   4.316   1.094   6.140
 7096TIP3    H221246   4.255   1.170   6.024
 7097TIP3   OH221247   1.496   0.975   5.945
 7097TIP3    H121248   1.536   0.980   5.858
 7097TIP3    H221249   1.406   1.003   5.932
 7098TIP3   OH221250   5.561   7.439   3.116
 7098TIP3    H121251   5.559   7.528   3.081
 7098TIP3    H221252   5.488   7.395   3.073
 7099TIP3   OH221253   6.508   6.458   3.419
 7099TIP3    H121254   6.570   6.508   3.366
 7099TIP3    H221255   6.426   6.462   3.371
 7100TIP3   OH221256   5.696   2.554   1.999
 7100TIP3    H121257   5.669   2.488   2.062
 7100TIP3    H221258   5.790   2.566   2.016
 7101TIP3   OH221259   3.695   7.579   1.432
 7101TIP3    H121260   3.678   7.528   1.511
 7101TIP3    H221261   3.608   7.605   1.401
 7102TIP3   OH221262   8.074   4.712   1.761
 7102TIP3    H121263   8.034   4.698   1.676
 7102TIP3    H221264   8.063   4.805   1.778
 7103TIP3   OH221265   7.668   1.160   0.838
 7103TIP3    H121266   7.693   1.086   0.783
 7103TIP3    H221267   7.661   1.123   0.926
 7104TIP3   OH221268   0.366   1.069   6.679
 7104TIP3    H121269   0.343   1.131   6.748
 7104TIP3    H221270   0.419   1.003   6.723
 7105TIP3   OH221271   3.207   5.552   1.141
 7105TIP3    H121272   3.267   5.481   1.120
 7105TIP3    H221273   3.121   5.510   1.148
 7106TIP3   OH221274   2.909   5.648   1.814
 7106TIP3    H121275   2.940   5.698   1.738
 7106TIP3    H221276   2.919   5.708   1.888
 7107TIP3   OH221277   6.688   2.581   1.997
 7107TIP3    H121278   6.656   2.561   2.085
 7107TIP3    H221279   6.773   2.537   1.992
 7108TIP3   OH221280   3.633   0.558   3.211
 7108TIP3    H121281   3.573   0.530   3.280
 7108TIP3    H221282   3.575   0.589   3.141
 7109TIP3   OH221283   1.196   1.976   1.969
 7109TIP3    H121284   1.194   2.063   2.008
 7109TIP3    H221285   1.131   1.926   2.019
 7110TIP3   OH221286   0.844   1.424   2.259
 7110TIP3    H121287   0.765   1.377   2.287
 7110TIP3    H221288   0.883   1.455   2.341
 7111TIP3   OH221289   4.005   5.294   6.124
 7111TIP3    H121290   4.060   5.224   6.160
 7111TIP3    H221291   4.053   5.374   6.142
 7112TIP3   OH221292   2.266   6.823   3.359
 7112TIP3    H121293   2.223   6.738   3.368
 7112TIP3    H221294   2.356   6.808   3.387
 7113TIP3   OH221295   1.751   2.599   2.630
 7113TIP3    H121296   1.817   2.664   2.653
 7113TIP3    H221297   1.755   2.592   2.535
 7114TIP3   OH221298   3.521   0.155   4.971
 7114TIP3    H121299   3.428   0.163   4.990
 7114TIP3    H221300   3.525   0.126   4.880
 7115TIP3   OH221301   5.969   3.761   2.859
 7115TIP3    H121302   5.996   3.853   2.866
 7115TIP3    H221303   5.913   3.746   2.935
 7116TIP3   OH221304   0.783   4.202   6.283
 7116TIP3    H121305   0.848   4.202   6.354
 7116TIP3    H221306   0.720   4.135   6.309
 7117TIP3   OH221307   3.993   2.404   5.359
 7117TIP3    H121308   3.933   2.474   5.382
 7117TIP3    H221309   3.953   2.360   5.285
 7118TIP3   OH221310   0.607   5.346   5.503
 7118TIP3    H121311   0.647   5.275   5.554
 7118TIP3    H221312   0.571   5.405   5.569
 7119TIP3   OH221313   3.091   4.499   3.468
 7119TIP3    H121314   3.147   4.575   3.482
 7119TIP3    H221315   3.067   4.503   3.376
 7120TIP3   OH221316   2.102   4.185   3.802
 7120TIP3    H121317   2.095   4.215   3.711
 7120TIP3    H221318   2.085   4.091   3.798
 7121TIP3   OH221319   7.676   6.678   5.328
 7121TIP3    H121320   7.735   6.608   5.301
 7121TIP3    H221321   7.591   6.655   5.289
 7122TIP3   OH221322   6.744   5.640   2.634
 7122TIP3    H121323   6.690   5.637   2.555
 7122TIP3    H221324   6.745   5.549   2.665
 7123TIP3   OH221325   4.874   0.250   4.784
 7123TIP3    H121326   4.786   0.265   4.748
 7123TIP3    H221327   4.917   0.194   4.720
 7124TIP3   OH221328   7.627   0.980   0.116
 7124TIP3    H121329   7.667   1.055   0.160
 7124TIP3    H221330   7.700   0.934   0.075
 7125TIP3   OH221331   2.923   0.138   5.813
 7125TIP3    H121332   2.901   0.130   5.906
 7125TIP3    H221333   2.903   0.052   5.777
 7126TIP3   OH221334   6.177   2.210   6.815
 7126TIP3    H121335   6.168   2.136   6.754
 7126TIP3    H221336   6.153   2.173   6.900
 7127TIP3   OH221337   5.408   7.306   0.538
 7127TIP3    H121338   5.457   7.385   0.516
 7127TIP3    H221339   5.475   7.245   0.569
 7128TIP3   OH221340   7.861   3.264   2.753
 7128TIP3    H121341   7.925   3.201   2.720
 7128TIP3    H221342   7.866   3.338   2.692
 7129TIP3   OH221343   5.876   4.250   0.500
 7129TIP3    H121344   5.833   4.170   0.532
 7129TIP3    H221345   5.806   4.302   0.462
 7130TIP3   OH221346   0.577   6.029   4.213
 7130TIP3    H121347   0.670   6.010   4.223
 7130TIP3    H221348   0.535   5.943   4.222
 7131TIP3   OH221349   6.263   0.900   3.141
 7131TIP3    H121350   6.191   0.852   3.103
 7131TIP3    H221351   6.260   0.986   3.099
 7132TIP3   OH221352   7.986   1.056   4.784
 7132TIP3    H121353   8.010   0.999   4.711
 7132TIP3    H221354   8.005   1.144   4.753
 7133TIP3   OH221355   2.913   6.521   6.128
 7133TIP3    H121356   2.841   6.565   6.084
 7133TIP3    H221357   2.931   6.575   6.205
 7134TIP3   OH221358   3.649   4.325   4.792
 7134TIP3    H121359   3.640   4.393   4.859
 7134TIP3    H221360   3.701   4.257   4.835
 7135TIP3   OH221361   5.098   1.849   2.565
 7135TIP3    H121362   5.102   1.916   2.633
 7135TIP3    H221363   5.041   1.781   2.602
 7136TIP3   OH221364   4.794   0.323   5.172
 7136TIP3    H121365   4.736   0.349   5.244
 7136TIP3    H221366   4.752   0.360   5.094
 7137TIP3   OH221367   3.789   0.692   5.802
 7137TIP3    H121368   3.860   0.683   5.865
 7137TIP3    H221369   3.819   0.759   5.741
 7138TIP3   OH221370   4.273   4.567   1.109
 7138TIP3    H121371   4.335   4.528   1.048
 7138TIP3    H221372   4.277   4.661   1.091
 7139TIP3   OH221373   3.021   2.050   3.368
 7139TIP3    H121374   3.000   1.959   3.391
 7139TIP3    H221375   3.095   2.072   3.425
 7140TIP3   OH221376   7.153   1.998   6.375
 7140TIP3    H121377   7.121   2.081   6.338
 7140TIP3    H221378   7.215   2.025   6.443
 7141TIP3   OH221379   6.750   2.274   2.125
 7141TIP3    H121380   6.731   2.276   2.032
 7141TIP3    H221381   6.706   2.353   2.160
 7142TIP3   OH221382   4.791   2.371   6.301
 7142TIP3    H121383   4.799   2.410   6.214
 7142TIP3    H221384   4.835   2.286   6.294
 7143TIP3   OH221385   3.161   0.518   6.156
 7143TIP3    H121386   3.187   0.426   6.158
 7143TIP3    H221387   3.108   0.529   6.235
 7144TIP3   OH221388   1.469   5.305   3.300
 7144TIP3    H121389   1.421   5.317   3.382
 7144TIP3    H221390   1.497   5.214   3.301
 7145TIP3   OH221391   5.205   6.524   1.047
 7145TIP3    H121392   5.117   6.550   1.018
 7145TIP3    H221393   5.259   6.601   1.030
 7146TIP3   OH221394   8.103   6.269   1.660
 7146TIP3    H121395   8.077   6.360   1.676
 7146TIP3    H221396   8.191   6.276   1.623
 7147TIP3   OH221397   5.740   3.110   1.297
 7147TIP3    H121398   5.669   3.087   1.237
 7147TIP3    H221399   5.819   3.108   1.243
 7148TIP3   OH221400   5.603   5.524   5.754
 7148TIP3    H121401   5.643   5.609   5.737
 7148TIP3    H221402   5.594   5.521   5.849
 7149TIP3   OH221403   2.771   6.346   4.940
 7149TIP3    H121404   2.792   6.439   4.935
 7149TIP3    H221405   2.827   6.313   5.011
 7150TIP3   OH221406   7.000   1.959   1.580
 7150TIP3    H121407   6.988   1.983   1.672
 7150TIP3    H221408   7.062   2.023   1.546
 7151TIP3   OH221409   5.442   1.442   2.040
 7151TIP3    H121410   5.379   1.508   2.068
 7151TIP3    H221411   5.457   1.389   2.118
 7152TIP3   OH221412   6.904   5.373   3.781
 7152TIP3    H121413   6.864   5.312   3.720
 7152TIP3    H221414   6.830   5.416   3.825
 7153TIP3   OH221415   6.247   2.994   0.262
 7153TIP3    H121416   6.157   3.011   0.234
 7153TIP3    H221417   6.298   3.064   0.222
 7154TIP3   OH221418   6.128   4.613   6.092
 7154TIP3    H121419   6.150   4.526   6.060
 7154TIP3    H221420   6.053   4.598   6.150
 7155TIP3   OH221421   0.756   6.667   1.788
 7155TIP3    H121422   0.822   6.736   1.793
 7155TIP3    H221423   0.676   6.713   1.764
 7156TIP3   OH221424   6.517   3.158   3.861
 7156TIP3    H121425   6.519   3.151   3.766
 7156TIP3    H221426   6.449   3.222   3.879
 7157TIP3   OH221427   3.621   7.482   5.315
 7157TIP3    H121428   3.596   7.442   5.232
 7157TIP3    H221429   3.628   7.575   5.296
 7158TIP3   OH221430   5.172   1.388   5.795
 7158TIP3    H121431   5.190   1.343   5.877
 7158TIP3    H221432   5.243   1.451   5.786
 7159TIP3   OH221433   1.501   6.479   1.204
 7159TIP3    H121434   1.491   6.392   1.242
 7159TIP3    H221435   1.413   6.516   1.204
 7160TIP3   OH221436   5.644   1.767   2.133
 7160TIP3    H121437   5.620   1.811   2.052
 7160TIP3    H221438   5.677   1.682   2.105
 7161TIP3   OH221439   0.679   4.469   5.442
 7161TIP3    H121440   0.696   4.561   5.463
 7161TIP3    H221441   0.591   4.453   5.475
 7162TIP3   OH221442   7.257   4.125   5.277
 7162TIP3    H121443   7.293   4.214   5.282
 7162TIP3    H221444   7.164   4.138   5.259
 7163TIP3   OH221445   3.499   4.035   3.934
 7163TIP3    H121446   3.538   4.105   3.881
 7163TIP3    H221447   3.462   3.974   3.869
 7164TIP3   OH221448   5.092   2.050   0.756
 7164TIP3    H121449   5.173   2.056   0.807
 7164TIP3    H221450   5.050   1.970   0.786
 7165TIP3   OH221451   6.350   1.222   3.373
 7165TIP3    H121452   6.260   1.190   3.369
 7165TIP3    H221453   6.369   1.252   3.285
 7166TIP3   OH221454   3.215   6.664   5.499
 7166TIP3    H121455   3.296   6.613   5.492
 7166TIP3    H221456   3.156   6.608   5.549
 7167TIP3   OH221457   7.434   5.579   3.573
 7167TIP3    H121458   7.347   5.604   3.605
 7167TIP3    H221459   7.418   5.542   3.487
 7168TIP3   OH221460   7.122   6.712   3.907
 7168TIP3    H121461   7.197   6.750   3.954
 7168TIP3    H221462   7.046   6.738   3.958
 7169TIP3   OH221463   1.124   6.639   3.312
 7169TIP3    H121464   1.076   6.595   3.242
 7169TIP3    H221465   1.175   6.707   3.267
 7170TIP3   OH221466   4.250   3.097   0.036
 7170TIP3    H121467   4.188   3.034   0.071
 7170TIP3    H221468   4.297   3.049  -0.032
 7171TIP3   OH221469   3.904   4.318   5.838
 7171TIP3    H121470   3.929   4.226   5.827
 7171TIP3    H221471   3.970   4.366   5.787
 7172TIP3   OH221472   1.586   2.182   5.944
 7172TIP3    H121473   1.614   2.261   5.990
 7172TIP3    H221474   1.497   2.166   5.975
 7173TIP3   OH221475   6.828   0.666   1.569
 7173TIP3    H121476   6.828   0.673   1.664
 7173TIP3    H221477   6.849   0.574   1.551
 7174TIP3   OH221478   0.451   0.023   4.490
 7174TIP3    H121479   0.469   0.109   4.451
 7174TIP3    H221480   0.426   0.042   4.581
 7175TIP3   OH221481   6.052   6.543   5.999
 7175TIP3    H121482   6.086   6.454   5.993
 7175TIP3    H221483   6.050   6.563   6.092
 7176TIP3   OH221484   4.017   7.673   2.631
 7176TIP3    H121485   4.047   7.628   2.710
 7176TIP3    H221486   4.007   7.764   2.657
 7177TIP3   OH221487   5.312   6.128   1.229
 7177TIP3    H121488   5.318   6.201   1.291
 7177TIP3    H221489   5.347   6.163   1.147
 7178TIP3   OH221490   2.063   2.155  -0.058
 7178TIP3    H121491   2.109   2.202   0.012
 7178TIP3    H221492   2.062   2.064  -0.029
 7179TIP3   OH221493   2.241   6.140   5.392
 7179TIP3    H121494   2.187   6.131   5.313
 7179TIP3    H221495   2.214   6.067   5.448
 7180TIP3   OH221496   1.189   6.539   1.264
 7180TIP3    H121497   1.197   6.633   1.249
 7180TIP3    H221498   1.240   6.523   1.344
 7181TIP3   OH221499   7.824   3.497   6.274
 7181TIP3    H121500   7.904   3.476   6.225
 7181TIP3    H221501   7.755   3.453   6.225
 7182TIP3   OH221502   2.201   2.621   1.785
 7182TIP3    H121503   2.267   2.647   1.849
 7182TIP3    H221504   2.160   2.703   1.757
 7183TIP3   OH221505   4.318   5.193   4.269
 7183TIP3    H121506   4.361   5.142   4.338
 7183TIP3    H221507   4.265   5.258   4.315
 7184TIP3   OH221508   2.553   0.316   5.505
 7184TIP3    H121509   2.480   0.340   5.448
 7184TIP3    H221510   2.520   0.335   5.594
 7185TIP3   OH221511   1.242   2.585   6.521
 7185TIP3    H121512   1.336   2.606   6.519
 7185TIP3    H221513   1.236   2.497   6.483
 7186TIP3   OH221514   5.754   5.189   2.715
 7186TIP3    H121515   5.735   5.173   2.807
 7186TIP3    H221516   5.776   5.282   2.711
 7187TIP3   OH221517   1.688   7.262   2.112
 7187TIP3    H121518   1.720   7.303   2.192
 7187TIP3    H221519   1.611   7.313   2.087
 7188TIP3   OH221520   6.430   0.163   2.218
 7188TIP3    H121521   6.498   0.199   2.161
 7188TIP3    H221522   6.472   0.090   2.263
 7189TIP3   OH221523   4.897   5.670   5.170
 7189TIP3    H121524   4.961   5.602   5.149
 7189TIP3    H221525   4.923   5.745   5.117
 7190TIP3   OH221526   5.188   2.462   0.429
 7190TIP3    H121527   5.175   2.418   0.513
 7190TIP3    H221528   5.107   2.444   0.381
 7191TIP3   OH221529   3.887   3.003   5.116
 7191TIP3    H121530   3.919   3.092   5.131
 7191TIP3    H221531   3.793   3.014   5.104
 7192TIP3   OH221532   3.460   4.383   0.295
 7192TIP3    H121533   3.489   4.301   0.253
 7192TIP3    H221534   3.379   4.359   0.341
 7193TIP3   OH221535   4.554   7.273   2.713
 7193TIP3    H121536   4.592   7.294   2.798
 7193TIP3    H221537   4.460   7.281   2.727
 7194TIP3   OH221538   5.248   5.601   5.182
 7194TIP3    H121539   5.319   5.663   5.170
 7194TIP3    H221540   5.236   5.595   5.276
 7195TIP3   OH221541   7.744   3.572   5.711
 7195TIP3    H121542   7.836   3.582   5.737
 7195TIP3    H221543   7.744   3.579   5.616
 7196TIP3   OH221544   1.413   1.756   2.529
 7196TIP3    H121545   1.400   1.727   2.620
 7196TIP3    H221546   1.397   1.850   2.532
 7197TIP3   OH221547   3.902   2.590   4.809
 7197TIP3    H121548   3.944   2.647   4.872
 7197TIP3    H221549   3.947   2.609   4.726
 7198TIP3   OH221550   5.023   0.542   1.557
 7198TIP3    H121551   4.999   0.457   1.521
 7198TIP3    H221552   4.944   0.595   1.548
 7199TIP3   OH221553   6.216   6.734   0.166
 7199TIP3    H121554   6.169   6.752   0.247
 7199TIP3    H221555   6.250   6.645   0.177
 7200TIP3   OH221556   5.668   1.321   1.290
 7200TIP3    H121557   5.753   1.313   1.247
 7200TIP3    H221558   5.689   1.335   1.383
 7201TIP3   OH221559   1.682   6.819   2.038
 7201TIP3    H121560   1.626   6.765   2.094
 7201TIP3    H221561   1.721   6.883   2.098
 7202TIP3   OH221562   5.660   6.822   5.440
 7202TIP3    H121563   5.631   6.873   5.364
 7202TIP3    H221564   5.682   6.736   5.404
 7203TIP3   OH221565   3.946   6.884   4.043
 7203TIP3    H121566   3.878   6.826   4.077
 7203TIP3    H221567   4.009   6.892   4.115
 7204TIP3   OH221568   7.273   1.671   4.664
 7204TIP3    H121569   7.216   1.715   4.601
 7204TIP3    H221570   7.325   1.610   4.612
 7205TIP3   OH221571   2.313   6.626   2.662
 7205TIP3    H121572   2.230   6.652   2.621
 7205TIP3    H221573   2.321   6.683   2.738
 7206TIP3   OH221574   6.304   0.102   0.769
 7206TIP3    H121575   6.347   0.148   0.841
 7206TIP3    H221576   6.357   0.023   0.757
 7207TIP3   OH221577   7.670   6.779   4.939
 7207TIP3    H121578   7.696   6.821   4.856
 7207TIP3    H221579   7.754   6.759   4.982
 7208TIP3   OH221580   2.516   4.157   1.390
 7208TIP3    H121581   2.542   4.233   1.442
 7208TIP3    H221582   2.598   4.120   1.358
 7209TIP3   OH221583   5.353   5.925   2.563
 7209TIP3    H121584   5.357   5.934   2.467
 7209TIP3    H221585   5.366   5.831   2.578
 7210TIP3   OH221586   0.015   0.814   5.925
 7210TIP3    H121587   0.050   0.857   5.847
 7210TIP3    H221588  -0.079   0.808   5.908
 7211TIP3   OH221589   5.901   3.387   1.015
 7211TIP3    H121590   5.937   3.340   1.091
 7211TIP3    H221591   5.882   3.318   0.951
 7212TIP3   OH221592   5.592   3.848   3.377
 7212TIP3    H121593   5.531   3.922   3.384
 7212TIP3    H221594   5.543   3.773   3.410
 7213TIP3   OH221595   6.394   6.715   0.464
 7213TIP3    H121596   6.432   6.718   0.551
 7213TIP3    H221597   6.459   6.755   0.407
 7214TIP3   OH221598   1.068   3.241   3.225
 7214TIP3    H121599   1.142   3.192   3.261
 7214TIP3    H221600   0.998   3.176   3.216
 7215TIP3   OH221601   5.812   1.961   6.682
 7215TIP3    H121602   5.817   1.900   6.756
 7215TIP3    H221603   5.730   2.009   6.697
 7216TIP3   OH221604   7.712   7.575  -0.017
 7216TIP3    H121605   7.623   7.609  -0.030
 7216TIP3    H221606   7.705   7.517   0.058
 7217TIP3   OH221607   2.073   2.846   1.672
 7217TIP3    H121608   2.078   2.925   1.726
 7217TIP3    H221609   1.981   2.819   1.677
 7218TIP3   OH221610   6.029   5.501   4.626
 7218TIP3    H121611   6.054   5.500   4.534
 7218TIP3    H221612   6.034   5.410   4.654
 7219TIP3   OH221613   4.737   1.949   4.262
 7219TIP3    H121614   4.718   1.859   4.236
 7219TIP3    H221615   4.832   1.953   4.266
 7220TIP3   OH221616   2.173   0.819   1.110
 7220TIP3    H121617   2.200   0.902   1.072
 7220TIP3    H221618   2.088   0.838   1.151
 7221TIP3   OH221619   1.623   1.726   5.780
 7221TIP3    H121620   1.699   1.782   5.795
 7221TIP3    H221621   1.563   1.780   5.729
 7222TIP3   OH221622   0.522   5.429   4.363
 7222TIP3    H121623   0.547   5.341   4.392
 7222TIP3    H221624   0.427   5.429   4.364
 7223TIP3   OH221625   0.415   6.375   6.227
 7223TIP3    H121626   0.325   6.348   6.245
 7223TIP3    H221627   0.469   6.314   6.277
 7224TIP3   OH221628   4.086   7.203   4.314
 7224TIP3    H121629   4.116   7.248   4.235
 7224TIP3    H221630   3.993   7.226   4.320
 7225TIP3   OH221631   0.921   0.768   5.171
 7225TIP3    H121632   0.932   0.857   5.205
 7225TIP3    H221633   0.905   0.715   5.249
 7226TIP3   OH221634   4.068   7.754   3.235
 7226TIP3    H121635   3.974   7.739   3.222
 7226TIP3    H221636   4.110   7.688   3.179
 7227TIP3   OH221637   0.657   4.788   3.082
 7227TIP3    H121638   0.609   4.718   3.037
 7227TIP3    H221639   0.592   4.827   3.140
 7228TIP3   OH221640   4.277   6.961   4.057
 7228TIP3    H121641   4.248   6.927   4.142
 7228TIP3    H221642   4.233   6.905   3.993
 7229TIP3   OH221643   8.230   5.777   6.356
 7229TIP3    H121644   8.146   5.737   6.380
 7229TIP3    H221645   8.296   5.723   6.399
 7230TIP3   OH221646   5.099   3.755   6.011
 7230TIP3    H121647   5.175   3.791   6.057
 7230TIP3    H221648   5.098   3.662   6.036
 7231TIP3   OH221649   1.894   5.259   1.723
 7231TIP3    H121650   1.810   5.224   1.751
 7231TIP3    H221651   1.957   5.226   1.787
 7232TIP3   OH221652   5.181   2.584   6.287
 7232TIP3    H121653   5.197   2.532   6.208
 7232TIP3    H221654   5.087   2.578   6.301
 7233TIP3   OH221655   5.152   1.478   3.697
 7233TIP3    H121656   5.145   1.560   3.649
 7233TIP3    H221657   5.130   1.410   3.633
 7234TIP3   OH221658   7.259   7.338   2.082
 7234TIP3    H121659   7.315   7.353   2.158
 7234TIP3    H221660   7.170   7.332   2.117
 7235TIP3   OH221661   4.782   2.563   3.708
 7235TIP3    H121662   4.727   2.541   3.783
 7235TIP3    H221663   4.827   2.643   3.733
 7236TIP3   OH221664   1.673   1.530   1.331
 7236TIP3    H121665   1.727   1.564   1.260
 7236TIP3    H221666   1.613   1.602   1.353
 7237TIP3   OH221667   6.483   2.105   6.397
 7237TIP3    H121668   6.402   2.155   6.412
 7237TIP3    H221669   6.489   2.097   6.302
 7238TIP3   OH221670   0.563   3.628   2.583
 7238TIP3    H121671   0.558   3.610   2.489
 7238TIP3    H221672   0.622   3.561   2.617
 7239TIP3   OH221673   2.761   2.775   1.890
 7239TIP3    H121674   2.775   2.789   1.983
 7239TIP3    H221675   2.710   2.851   1.861
 7240TIP3   OH221676   3.801   2.607   5.332
 7240TIP3    H121677   3.719   2.557   5.332
 7240TIP3    H221678   3.784   2.680   5.391
 7241TIP3   OH221679   3.269   2.081   5.621
 7241TIP3    H121680   3.284   1.989   5.599
 7241TIP3    H221681   3.333   2.129   5.570
 7242TIP3   OH221682   5.565   4.238   1.475
 7242TIP3    H121683   5.579   4.288   1.555
 7242TIP3    H221684   5.584   4.299   1.405
 7243TIP3   OH221685   5.049   6.403   0.801
 7243TIP3    H121686   5.038   6.397   0.896
 7243TIP3    H221687   5.112   6.334   0.780
 7244TIP3   OH221688   8.029   4.109   3.303
 7244TIP3    H121689   8.095   4.050   3.266
 7244TIP3    H221690   7.946   4.067   3.282
 7245TIP3   OH221691   5.178   4.585   1.360
 7245TIP3    H121692   5.187   4.490   1.348
 7245TIP3    H221693   5.231   4.603   1.438
 7246TIP3   OH221694   5.151   3.600   4.664
 7246TIP3    H121695   5.148   3.683   4.711
 7246TIP3    H221696   5.126   3.534   4.729
 7247TIP3   OH221697   6.297   0.050   2.689
 7247TIP3    H121698   6.296  -0.046   2.682
 7247TIP3    H221699   6.222   0.071   2.744
 7248TIP3   OH221700   7.779   2.725   5.114
 7248TIP3    H121701   7.688   2.722   5.086
 7248TIP3    H221702   7.826   2.762   5.039
 7249TIP3   OH221703   5.969   4.974   5.993
 7249TIP3    H121704   5.949   4.896   6.044
 7249TIP3    H221705   5.886   5.023   5.990
 7250TIP3   OH221706   4.024   6.916   1.247
 7250TIP3    H121707   3.977   6.975   1.306
 7250TIP3    H221708   4.081   6.865   1.305
 7251TIP3   OH221709   6.945   1.064   1.301
 7251TIP3    H121710   7.001   1.116   1.243
 7251TIP3    H221711   6.920   0.988   1.248
 7252TIP3   OH221712   1.406   2.287   0.127
 7252TIP3    H121713   1.373   2.361   0.076
 7252TIP3    H221714   1.440   2.226   0.061
 7253TIP3   OH221715   4.782   3.502   3.934
 7253TIP3    H121716   4.720   3.430   3.924
 7253TIP3    H221717   4.728   3.581   3.925
 7254TIP3   OH221718   4.686   7.023   5.611
 7254TIP3    H121719   4.706   7.031   5.518
 7254TIP3    H221720   4.619   7.089   5.627
 7255TIP3   OH221721   4.078   1.497   6.465
 7255TIP3    H121722   4.113   1.574   6.511
 7255TIP3    H221723   4.109   1.507   6.375
 7256TIP3   OH221724   3.779   4.878   6.104
 7256TIP3    H121725   3.772   4.942   6.033
 7256TIP3    H221726   3.870   4.884   6.133
 7257TIP3   OH221727   3.342   6.090   6.147
 7257TIP3    H121728   3.345   6.134   6.232
 7257TIP3    H221729   3.429   6.104   6.110
 7258TIP3   OH221730   4.551   0.641   3.136
 7258TIP3    H121731   4.608   0.705   3.094
 7258TIP3    H221732   4.558   0.563   3.081
 7259TIP3   OH221733   8.085   1.460   0.137
 7259TIP3    H121734   8.014   1.446   0.075
 7259TIP3    H221735   8.056   1.534   0.191
 7260TIP3   OH221736   6.370   3.669   2.429
 7260TIP3    H121737   6.417   3.638   2.351
 7260TIP3    H221738   6.294   3.716   2.394
 7261TIP3   OH221739   2.405   3.818   5.295
 7261TIP3    H121740   2.351   3.863   5.360
 7261TIP3    H221741   2.488   3.802   5.340
 7262TIP3   OH221742   1.834   2.642   0.331
 7262TIP3    H121743   1.874   2.701   0.394
 7262TIP3    H221744   1.863   2.555   0.358
 7263TIP3   OH221745   8.024   6.974   2.464
 7263TIP3    H121746   8.021   7.062   2.501
 7263TIP3    H221747   8.012   6.986   2.370
 7264TIP3   OH221748   1.484   2.951   2.950
 7264TIP3    H121749   1.566   2.968   2.997
 7264TIP3    H221750   1.508   2.891   2.880
 7265TIP3   OH221751   0.881   5.628   4.882
 7265TIP3    H121752   0.904   5.693   4.949
 7265TIP3    H221753   0.837   5.678   4.814
 7266TIP3   OH221754   5.438   4.771   0.650
 7266TIP3    H121755   5.453   4.692   0.702
 7266TIP3    H221756   5.512   4.827   0.669
 7267TIP3   OH221757   4.949   1.677   2.693
 7267TIP3    H121758   4.862   1.666   2.730
 7267TIP3    H221759   5.003   1.610   2.736
 7268TIP3   OH221760   7.809   2.459   3.492
 7268TIP3    H121761   7.802   2.501   3.577
 7268TIP3    H221762   7.755   2.512   3.434
 7269TIP3   OH221763   7.442   3.251   6.508
 7269TIP3    H121764   7.444   3.253   6.412
 7269TIP3    H221765   7.354   3.220   6.529
 7270TIP3   OH221766   7.082   3.394   5.876
 7270TIP3    H121767   6.994   3.421   5.851
 7270TIP3    H221768   7.087   3.302   5.851
 7271TIP3   OH221769   3.198   1.707   4.034
 7271TIP3    H121770   3.175   1.648   3.962
 7271TIP3    H221771   3.267   1.662   4.082
 7272TIP3   OH221772   0.985   2.180   5.508
 7272TIP3    H121773   1.069   2.197   5.551
 7272TIP3    H221774   0.973   2.254   5.449
 7273TIP3   OH221775   5.956   3.291   3.963
 7273TIP3    H121776   5.922   3.266   3.877
 7273TIP3    H221777   6.012   3.367   3.945
 7274TIP3   OH221778   3.655   5.788   4.866
 7274TIP3    H121779   3.700   5.872   4.869
 7274TIP3    H221780   3.725   5.723   4.879
 7275TIP3   OH221781   0.802   3.300   1.405
 7275TIP3    H121782   0.895   3.278   1.406
 7275TIP3    H221783   0.789   3.352   1.484
 7276TIP3   OH221784   3.479   2.362   5.087
 7276TIP3    H121785   3.519   2.275   5.090
 7276TIP3    H221786   3.546   2.418   5.047
 7277TIP3   OH221787   4.419   1.092   1.211
 7277TIP3    H121788   4.511   1.094   1.237
 7277TIP3    H221789   4.388   1.006   1.239
 7278TIP3   OH221790   1.174   5.542   6.550
 7278TIP3    H121791   1.206   5.597   6.478
 7278TIP3    H221792   1.251   5.529   6.606
 7279TIP3   OH221793   2.430   2.254   4.054
 7279TIP3    H121794   2.510   2.267   4.004
 7279TIP3    H221795   2.383   2.337   4.046
 7280TIP3   OH221796   2.209   3.191   5.388
 7280TIP3    H121797   2.299   3.215   5.406
 7280TIP3    H221798   2.215   3.106   5.344
 7281TIP3   OH221799   8.313   0.185   3.652
 7281TIP3    H121800   8.260   0.263   3.638
 7281TIP3    H221801   8.365   0.176   3.572
 7282TIP3   OH221802   1.682   1.854   1.619
 7282TIP3    H121803   1.606   1.908   1.640
 7282TIP3    H221804   1.649   1.789   1.556
 7283TIP3   OH221805   5.446   4.868   6.265
 7283TIP3    H121806   5.456   4.961   6.247
 7283TIP3    H221807   5.523   4.845   6.317
 7284TIP3   OH221808   1.487   0.116   0.743
 7284TIP3    H121809   1.567   0.068   0.765
 7284TIP3    H221810   1.421   0.079   0.801
 7285TIP3   OH221811   4.436   3.305   4.625
 7285TIP3    H121812   4.493   3.327   4.698
 7285TIP3    H221813   4.494   3.302   4.549
 7286TIP3   OH221814   0.054   6.128   0.150
 7286TIP3    H121815   0.022   6.103   0.064
 7286TIP3    H221816   0.041   6.051   0.205
 7287TIP3   OH221817   4.226   0.173   3.604
 7287TIP3    H121818   4.298   0.203   3.549
 7287TIP3    H221819   4.207   0.085   3.573
 7288TIP3   OH221820   0.313   2.650   0.602
 7288TIP3    H121821   0.253   2.596   0.653
 7288TIP3    H221822   0.372   2.587   0.561
 7289TIP3   OH221823   6.377   6.438   2.881
 7289TIP3    H121824   6.434   6.502   2.837
 7289TIP3    H221825   6.342   6.385   2.809
 7290TIP3   OH221826   3.597   7.405   1.637
 7290TIP3    H121827   3.557   7.330   1.592
 7290TIP3    H221828   3.690   7.385   1.640
 7291TIP3   OH221829   7.733   6.881   4.682
 7291TIP3    H121830   7.801   6.817   4.661
 7291TIP3    H221831   7.701   6.912   4.597
 7292TIP3   OH221832   1.964   0.145   0.984
 7292TIP3    H121833   1.971   0.094   1.064
 7292TIP3    H221834   2.042   0.201   0.984
 7293TIP3   OH221835   4.607   2.838   1.632
 7293TIP3    H121836   4.575   2.906   1.573
 7293TIP3    H221837   4.528   2.808   1.678
 7294TIP3   OH221838   4.797   4.401   0.552
 7294TIP3    H121839   4.852   4.439   0.620
 7294TIP3    H221840   4.857   4.351   0.497
 7295TIP3   OH221841   5.085   0.250   1.839
 7295TIP3    H121842   5.143   0.248   1.763
 7295TIP3    H221843   4.997   0.245   1.802
 7296TIP3   OH221844   5.773   5.963   3.199
 7296TIP3    H121845   5.725   6.040   3.231
 7296TIP3    H221846   5.776   5.974   3.104
 7297TIP3   OH221847   2.333   3.634   4.702
 7297TIP3    H121848   2.264   3.682   4.656
 7297TIP3    H221849   2.413   3.683   4.684
 7298TIP3   OH221850   5.825   7.739   4.828
 7298TIP3    H121851   5.742   7.717   4.871
 7298TIP3    H221852   5.852   7.659   4.784
 7299TIP3   OH221853   0.058   5.348   3.607
 7299TIP3    H121854   0.094   5.389   3.529
 7299TIP3    H221855   0.001   5.279   3.575
 7300TIP3   OH221856   1.669   2.826   5.929
 7300TIP3    H121857   1.661   2.814   6.024
 7300TIP3    H221858   1.619   2.754   5.891
 7301TIP3   OH221859   4.721   7.707   0.456
 7301TIP3    H121860   4.725   7.730   0.548
 7301TIP3    H221861   4.806   7.669   0.436
 7302TIP3   OH221862   6.075   3.205   5.264
 7302TIP3    H121863   6.098   3.215   5.172
 7302TIP3    H221864   6.147   3.247   5.311
 7303TIP3   OH221865   1.526   4.211   6.146
 7303TIP3    H121866   1.576   4.153   6.202
 7303TIP3    H221867   1.489   4.154   6.079
 7304TIP3   OH221868   0.009   2.751   2.399
 7304TIP3    H121869   0.085   2.741   2.456
 7304TIP3    H221870   0.045   2.751   2.310
 7305TIP3   OH221871   3.045   5.755   0.927
 7305TIP3    H121872   3.019   5.674   0.884
 7305TIP3    H221873   3.044   5.734   1.021
 7306TIP3   OH221874   2.447   6.335   1.671
 7306TIP3    H121875   2.449   6.410   1.730
 7306TIP3    H221876   2.450   6.259   1.729
 7307TIP3   OH221877   6.016   5.893   0.336
 7307TIP3    H121878   6.031   5.917   0.428
 7307TIP3    H221879   6.102   5.897   0.296
 7308TIP3   OH221880   3.634   4.356   5.784
 7308TIP3    H121881   3.630   4.266   5.753
 7308TIP3    H221882   3.718   4.361   5.831
 7309TIP3   OH221883   5.123   2.424   6.624
 7309TIP3    H121884   5.137   2.329   6.628
 7309TIP3    H221885   5.071   2.443   6.701
 7310TIP3   OH221886   7.236   1.673   6.594
 7310TIP3    H121887   7.284   1.670   6.511
 7310TIP3    H221888   7.238   1.765   6.620
 7311TIP3   OH221889   3.673   1.740   1.170
 7311TIP3    H121890   3.723   1.658   1.177
 7311TIP3    H221891   3.621   1.743   1.250
 7312TIP3   OH221892   2.298   1.106   5.528
 7312TIP3    H121893   2.381   1.102   5.481
 7312TIP3    H221894   2.231   1.107   5.459
 7313TIP3   OH221895   1.547   3.497   1.759
 7313TIP3    H121896   1.540   3.585   1.796
 7313TIP3    H221897   1.524   3.507   1.667
 7314TIP3   OH221898   2.042   6.307   6.562
 7314TIP3    H121899   2.082   6.222   6.543
 7314TIP3    H221900   2.063   6.361   6.486
 7315TIP3   OH221901   0.935   4.525   0.870
 7315TIP3    H121902   0.877   4.469   0.921
 7315TIP3    H221903   0.889   4.538   0.787
 7316TIP3   OH221904   7.747   5.794   4.155
 7316TIP3    H121905   7.717   5.805   4.065
 7316TIP3    H221906   7.711   5.710   4.182
 7317TIP3   OH221907   3.512   7.040   6.650
 7317TIP3    H121908   3.462   6.972   6.695
 7317TIP3    H221909   3.600   7.035   6.688
 7318TIP3   OH221910   8.081   1.920   6.328
 7318TIP3    H121911   8.097   1.920   6.234
 7318TIP3    H221912   8.137   1.851   6.362
 7319TIP3   OH221913   2.970   0.252   3.032
 7319TIP3    H121914   2.897   0.288   3.082
 7319TIP3    H221915   2.986   0.166   3.072
 7320TIP3   OH221916   2.929   5.522   0.840
 7320TIP3    H121917   2.834   5.526   0.835
 7320TIP3    H221918   2.948   5.440   0.885
 7321TIP3   OH221919   4.785   2.349  -0.008
 7321TIP3    H121920   4.841   2.422   0.018
 7321TIP3    H221921   4.846   2.283  -0.040
 7322TIP3   OH221922   5.211   5.173   1.270
 7322TIP3    H121923   5.190   5.080   1.281
 7322TIP3    H221924   5.293   5.185   1.317
 7323TIP3   OH221925   3.645   1.733   2.994
 7323TIP3    H121926   3.641   1.691   2.908
 7323TIP3    H221927   3.646   1.660   3.056
 7324TIP3   OH221928   7.624   5.384   3.104
 7324TIP3    H121929   7.558   5.329   3.145
 7324TIP3    H221930   7.627   5.354   3.013
 7325TIP3   OH221931   5.166   1.646   4.023
 7325TIP3    H121932   5.075   1.630   3.997
 7325TIP3    H221933   5.200   1.560   4.048
 7326TIP3   OH221934   4.714   2.625   1.465
 7326TIP3    H121935   4.708   2.689   1.536
 7326TIP3    H221936   4.717   2.678   1.385
 7327TIP3   OH221937   0.948   4.920   0.047
 7327TIP3    H121938   0.893   4.970   0.107
 7327TIP3    H221939   0.975   4.983  -0.019
 7328TIP3   OH221940   7.775   5.637   3.178
 7328TIP3    H121941   7.746   5.556   3.137
 7328TIP3    H221942   7.752   5.627   3.270
 7329TIP3   OH221943   4.894   2.450   2.088
 7329TIP3    H121944   4.804   2.459   2.055
 7329TIP3    H221945   4.891   2.375   2.147
 7330TIP3   OH221946   8.212   2.736   5.691
 7330TIP3    H121947   8.277   2.670   5.716
 7330TIP3    H221948   8.235   2.759   5.601
 7331TIP3   OH221949   5.845   5.271   5.950
 7331TIP3    H121950   5.795   5.201   5.909
 7331TIP3    H221951   5.897   5.309   5.879
 7332TIP3   OH221952   5.843   0.121   1.468
 7332TIP3    H121953   5.906   0.051   1.487
 7332TIP3    H221954   5.811   0.100   1.380
 7333TIP3   OH221955   6.863   3.394   2.288
 7333TIP3    H121956   6.946   3.383   2.335
 7333TIP3    H221957   6.859   3.487   2.266
 7334TIP3   OH221958   6.797   7.731   4.343
 7334TIP3    H121959   6.877   7.697   4.384
 7334TIP3    H221960   6.811   7.717   4.249
 7335TIP3   OH221961   5.168   6.556   5.340
 7335TIP3    H121962   5.081   6.571   5.304
 7335TIP3    H221963   5.153   6.505   5.420
 7336TIP3   OH221964   1.569  -0.047   0.479
 7336TIP3    H121965   1.556   0.048   0.475
 7336TIP3    H221966   1.627  -0.066   0.405
 7337TIP3   OH221967   4.048   7.874   6.584
 7337TIP3    H121968   4.051   7.963   6.548
 7337TIP3    H221969   3.987   7.827   6.527
 7338TIP3   OH221970   5.658   1.932   6.345
 7338TIP3    H121971   5.580   1.964   6.389
 7338TIP3    H221972   5.674   1.846   6.383
 7339TIP3   OH221973   0.642   2.688   5.670
 7339TIP3    H121974   0.647   2.598   5.638
 7339TIP3    H221975   0.694   2.739   5.608
 7340TIP3   OH221976   7.313   5.029   5.130
 7340TIP3    H121977   7.332   5.011   5.038
 7340TIP3    H221978   7.397   5.055   5.167
 7341TIP3   OH221979   1.175   7.214   0.439
 7341TIP3    H121980   1.081   7.227   0.450
 7341TIP3    H221981   1.190   7.122   0.458
 7342TIP3   OH221982   7.647   6.808   2.599
 7342TIP3    H121983   7.563   6.847   2.620
 7342TIP3    H221984   7.672   6.847   2.515
 7343TIP3   OH221985   0.518   0.613   1.404
 7343TIP3    H121986   0.508   0.688   1.464
 7343TIP3    H221987   0.443   0.619   1.346
 7344TIP3   OH221988   3.857   6.754   0.159
 7344TIP3    H121989   3.792   6.789   0.098
 7344TIP3    H221990   3.934   6.809   0.146
 7345TIP3   OH221991   6.023   3.127   6.180
 7345TIP3    H121992   6.000   3.045   6.222
 7345TIP3    H221993   5.981   3.124   6.094
 7346TIP3   OH221994   3.710   1.462   0.811
 7346TIP3    H121995   3.759   1.409   0.874
 7346TIP3    H221996   3.718   1.552   0.844
 7347TIP3   OH221997   3.525   5.829   0.341
 7347TIP3    H121998   3.559   5.765   0.403
 7347TIP3    H221999   3.433   5.838   0.365
 7348TIP3   OH222000   5.357   6.619   6.035
 7348TIP3    H122001   5.315   6.611   5.949
 7348TIP3    H222002   5.288   6.651   6.092
 7349TIP3   OH222003   4.191   5.563   5.684
 7349TIP3    H122004   4.111   5.537   5.730
 7349TIP3    H222005   4.222   5.640   5.731
 7350TIP3   OH222006   2.394   4.846   2.657
 7350TIP3    H122007   2.304   4.873   2.640
 7350TIP3    H222008   2.441   4.869   2.577
 7351TIP3   OH222009   7.497   3.338   2.311
 7351TIP3    H122010   7.542   3.371   2.388
 7351TIP3    H222011   7.446   3.413   2.279
 7352TIP3   OH222012   0.778   4.979   2.690
 7352TIP3    H122013   0.733   4.995   2.772
 7352TIP3    H222014   0.859   5.029   2.697
 7353TIP3   OH222015   5.185   0.856   5.742
 7353TIP3    H122016   5.234   0.892   5.668
 7353TIP3    H222017   5.203   0.915   5.815
 7354TIP3   OH222018   0.266   6.617   1.017
 7354TIP3    H122019   0.178   6.655   1.020
 7354TIP3    H222020   0.325   6.690   1.033
 7355TIP3   OH222021   5.337   1.065   1.930
 7355TIP3    H122022   5.394   1.070   2.006
 7355TIP3    H222023   5.281   0.989   1.946
 7356TIP3   OH222024   6.920   0.552   5.192
 7356TIP3    H122025   6.991   0.499   5.155
 7356TIP3    H222026   6.936   0.551   5.286
 7357TIP3   OH222027   4.309   0.621   1.312
 7357TIP3    H122028   4.369   0.570   1.258
 7357TIP3    H222029   4.248   0.556   1.347
 7358TIP3   OH222030   2.689   7.539   2.445
 7358TIP3    H122031   2.756   7.580   2.390
 7358TIP3    H222032   2.617   7.520   2.385
 7359TIP3   OH222033   4.996   5.214   1.443
 7359TIP3    H122034   4.999   5.131   1.490
 7359TIP3    H222035   5.079   5.218   1.396
 7360TIP3   OH222036   2.687   2.120   6.611
 7360TIP3    H122037   2.772   2.147   6.646
 7360TIP3    H222038   2.643   2.077   6.684
 7361TIP3   OH222039   2.927   5.496   1.491
 7361TIP3    H122040   3.010   5.541   1.474
 7361TIP3    H222041   2.861   5.565   1.483
 7362TIP3   OH222042   2.465   4.558   4.879
 7362TIP3    H122043   2.422   4.529   4.959
 7362TIP3    H222044   2.451   4.653   4.876
 7363TIP3   OH222045   2.172   6.788   6.635
 7363TIP3    H122046   2.129   6.872   6.655
 7363TIP3    H222047   2.128   6.758   6.556
 7364TIP3   OH222048   2.745   7.780   1.355
 7364TIP3    H122049   2.772   7.780   1.447
 7364TIP3    H222050   2.695   7.861   1.345
 7365TIP3   OH222051   7.165   1.104   3.602
 7365TIP3    H122052   7.094   1.097   3.665
 7365TIP3    H222053   7.220   1.174   3.635
 7366TIP3   OH222054   3.203   3.606   4.831
 7366TIP3    H122055   3.216   3.700   4.823
 7366TIP3    H222056   3.194   3.575   4.741
 7367TIP3   OH222057   4.130   3.248   2.311
 7367TIP3    H122058   4.057   3.232   2.251
 7367TIP3    H222059   4.100   3.319   2.367
 7368TIP3   OH222060   1.484   1.425   3.651
 7368TIP3    H122061   1.543   1.454   3.721
 7368TIP3    H222062   1.492   1.330   3.652
 7369TIP3   OH222063   0.893   5.831   1.522
 7369TIP3    H122064   0.808   5.858   1.486
 7369TIP3    H222065   0.893   5.865   1.611
 7370TIP3   OH222066   5.648   2.062   5.848
 7370TIP3    H122067   5.725   2.118   5.849
 7370TIP3    H222068   5.630   2.044   5.941
 7371TIP3   OH222069   7.450   7.659   2.883
 7371TIP3    H122070   7.458   7.724   2.814
 7371TIP3    H222071   7.508   7.690   2.953
 7372TIP3   OH222072   0.239   0.847   0.874
 7372TIP3    H122073   0.145   0.865   0.884
 7372TIP3    H222074   0.273   0.925   0.830
 7373TIP3   OH222075   6.989   6.961   4.303
 7373TIP3    H122076   6.920   7.018   4.337
 7373TIP3    H222077   7.049   7.020   4.257
 7374TIP3   OH222078   5.717   2.954   0.915
 7374TIP3    H122079   5.764   3.009   0.851
 7374TIP3    H222080   5.779   2.943   0.987
 7375TIP3   OH222081   1.760   5.994   0.245
 7375TIP3    H122082   1.668   6.020   0.252
 7375TIP3    H222083   1.760   5.901   0.267
 7376TIP3   OH222084   0.234   0.158   4.679
 7376TIP3    H122085   0.266   0.083   4.729
 7376TIP3    H222086   0.170   0.200   4.737
 7377TIP3   OH222087   1.442   2.040   1.825
 7377TIP3    H122088   1.522   2.033   1.876
 7377TIP3    H222089   1.373   2.012   1.885
 7378TIP3   OH222090   7.601   5.443   5.786
 7378TIP3    H122091   7.682   5.488   5.810
 7378TIP3    H222092   7.628   5.381   5.718
 7379TIP3   OH222093   0.243   4.187   5.015
 7379TIP3    H122094   0.288   4.176   4.931
 7379TIP3    H222095   0.312   4.178   5.080
 7380TIP3   OH222096   7.100   2.926   5.578
 7380TIP3    H122097   7.065   2.900   5.493
 7380TIP3    H222098   7.195   2.932   5.563
 7381TIP3   OH222099   3.587   4.624   1.856
 7381TIP3    H122100   3.644   4.575   1.796
 7381TIP3    H222101   3.642   4.697   1.887
 7382TIP3   OH222102   4.456   0.774   3.385
 7382TIP3    H122103   4.366   0.764   3.416
 7382TIP3    H222104   4.457   0.730   3.300
 7383TIP3   OH222105  -0.006   0.164   4.999
 7383TIP3    H122106   0.048   0.128   5.069
 7383TIP3    H222107  -0.061   0.090   4.971
 7384TIP3   OH222108   7.516   4.449   5.919
 7384TIP3    H122109   7.452   4.386   5.884
 7384TIP3    H222110   7.567   4.475   5.842
 7385TIP3   OH222111   3.106   7.714   4.563
 7385TIP3    H122112   3.027   7.759   4.533
 7385TIP3    H222113   3.081   7.621   4.564
 7386TIP3   OH222114   4.512   2.678   3.435
 7386TIP3    H122115   4.594   2.640   3.466
 7386TIP3    H222116   4.519   2.675   3.339
 7387TIP3   OH222117   7.010   5.635   1.874
 7387TIP3    H122118   7.067   5.683   1.934
 7387TIP3    H222119   7.034   5.667   1.787
 7388TIP3   OH222120   6.381   7.180   4.344
 7388TIP3    H122121   6.312   7.226   4.392
 7388TIP3    H222122   6.349   7.178   4.253
 7389TIP3   OH222123   2.347   7.824   1.101
 7389TIP3    H122124   2.258   7.844   1.072
 7389TIP3    H222125   2.351   7.729   1.102
 7390TIP3   OH222126   2.450   3.734   1.099
 7390TIP3    H122127   2.407   3.734   1.013
 7390TIP3    H222128   2.450   3.826   1.126
 7391TIP3   OH222129   6.920   1.219   4.846
 7391TIP3    H122130   6.973   1.232   4.768
 7391TIP3    H222131   6.914   1.124   4.856
 7392TIP3   OH222132   5.465   7.590   0.923
 7392TIP3    H122133   5.538   7.529   0.935
 7392TIP3    H222134   5.440   7.615   1.012
 7393TIP3   OH222135   7.053   6.619   5.256
 7393TIP3    H122136   7.057   6.545   5.197
 7393TIP3    H222137   7.016   6.584   5.337
 7394TIP3   OH222138   5.085   1.284   0.851
 7394TIP3    H122139   5.166   1.257   0.895
 7394TIP3    H222140   5.059   1.364   0.896
 7395TIP3   OH222141   4.763   2.315   3.305
 7395TIP3    H122142   4.812   2.382   3.352
 7395TIP3    H222143   4.718   2.265   3.374
 7396TIP3   OH222144   5.369   2.202   1.702
 7396TIP3    H122145   5.282   2.163   1.709
 7396TIP3    H222146   5.358   2.273   1.639
 7397TIP3   OH222147   6.495   6.791   6.612
 7397TIP3    H122148   6.535   6.871   6.577
 7397TIP3    H222149   6.515   6.724   6.546
 7398TIP3   OH222150   8.254   2.457   5.453
 7398TIP3    H122151   8.248   2.552   5.442
 7398TIP3    H222152   8.258   2.423   5.364
 7399TIP3   OH222153   1.466   3.097   4.841
 7399TIP3    H122154   1.495   3.086   4.750
 7399TIP3    H222155   1.547   3.110   4.890
 7400TIP3   OH222156   0.114   1.814   3.436
 7400TIP3    H122157   0.088   1.873   3.365
 7400TIP3    H222158   0.044   1.748   3.438
 7401TIP3   OH222159   5.946   1.910   6.125
 7401TIP3    H122160   5.857   1.916   6.090
 7401TIP3    H222161   5.944   1.833   6.182
 7402TIP3   OH222162   3.709   4.825   5.503
 7402TIP3    H122163   3.686   4.749   5.556
 7402TIP3    H222164   3.633   4.840   5.447
 7403TIP3   OH222165   1.817   0.319   4.281
 7403TIP3    H122166   1.859   0.269   4.211
 7403TIP3    H222167   1.724   0.315   4.261
 7404TIP3   OH222168   2.016   1.147   1.162
 7404TIP3    H122169   1.975   1.221   1.207
 7404TIP3    H222170   1.947   1.081   1.158
 7405TIP3   OH222171   1.663   4.145   5.184
 7405TIP3    H122172   1.582   4.119   5.228
 7405TIP3    H222173   1.706   4.205   5.245
 7406TIP3   OH222174   1.695   7.548   0.535
 7406TIP3    H122175   1.700   7.641   0.513
 7406TIP3    H222176   1.698   7.504   0.450
 7407TIP3   OH222177   3.094   2.686   3.215
 7407TIP3    H122178   3.185   2.672   3.190
 7407TIP3    H222179   3.071   2.609   3.267
 7408TIP3   OH222180   7.349   1.810   2.334
 7408TIP3    H122181   7.439   1.808   2.301
 7408TIP3    H222182   7.296   1.780   2.260
 7409TIP3   OH222183   4.064   0.255   1.634
 7409TIP3    H122184   4.068   0.322   1.702
 7409TIP3    H222185   4.113   0.181   1.669
 7410TIP3   OH222186   7.613   6.286   6.363
 7410TIP3    H122187   7.525   6.279   6.398
 7410TIP3    H222188   7.668   6.305   6.439
 7411TIP3   OH222189   0.731   2.414   5.390
 7411TIP3    H122190   0.705   2.442   5.478
 7411TIP3    H222191   0.650   2.381   5.351
 7412TIP3   OH222192   1.857   2.532   5.635
 7412TIP3    H122193   1.849   2.588   5.558
 7412TIP3    H222194   1.936   2.480   5.619
 7413TIP3   OH222195   1.728   5.249   0.813
 7413TIP3    H122196   1.698   5.287   0.730
 7413TIP3    H222197   1.780   5.319   0.853
 7414TIP3   OH222198   0.355   3.936   1.035
 7414TIP3    H122199   0.428   3.990   1.004
 7414TIP3    H222200   0.389   3.893   1.113
 7415TIP3   OH222201  -0.003   6.420   3.002
 7415TIP3    H122202  -0.023   6.461   2.917
 7415TIP3    H222203   0.082   6.377   2.988
 7416TIP3   OH222204   4.397   2.302   2.599
 7416TIP3    H122205   4.462   2.236   2.625
 7416TIP3    H222206   4.423   2.328   2.511
 7417TIP3   OH222207   7.463   3.303   2.883
 7417TIP3    H122208   7.506   3.277   2.965
 7417TIP3    H222209   7.514   3.260   2.815
 7418TIP3   OH222210   0.368   1.701   0.914
 7418TIP3    H122211   0.319   1.648   0.978
 7418TIP3    H222212   0.459   1.692   0.941
 7419TIP3   OH222213   0.088   1.547   6.152
 7419TIP3    H122214   0.060   1.492   6.225
 7419TIP3    H222215   0.010   1.557   6.098
 7420TIP3   OH222216   7.656   5.047   6.488
 7420TIP3    H122217   7.611   5.127   6.462
 7420TIP3    H222218   7.588   4.995   6.532
 7421TIP3   OH222219   0.653   2.856   0.484
 7421TIP3    H122220   0.628   2.900   0.403
 7421TIP3    H222221   0.721   2.794   0.458
 7422TIP3   OH222222   8.236   0.488   3.791
 7422TIP3    H122223   8.165   0.441   3.834
 7422TIP3    H222224   8.309   0.482   3.853
 7423TIP3   OH222225   3.252   2.649   4.629
 7423TIP3    H122226   3.167   2.666   4.671
 7423TIP3    H222227   3.297   2.733   4.632
 7424TIP3   OH222228   1.380   0.838   1.486
 7424TIP3    H122229   1.378   0.747   1.515
 7424TIP3    H222230   1.364   0.834   1.392
 7425TIP3   OH222231   1.208   0.344   2.071
 7425TIP3    H122232   1.142   0.275   2.069
 7425TIP3    H222233   1.172   0.409   2.132
 7426TIP3   OH222234   6.071   6.294   6.418
 7426TIP3    H122235   6.014   6.285   6.494
 7426TIP3    H222236   6.125   6.214   6.420
 7427TIP3   OH222237   6.507   7.439   2.318
 7427TIP3    H122238   6.495   7.417   2.225
 7427TIP3    H222239   6.423   7.416   2.358
 7428TIP3   OH222240   7.729   6.598   2.088
 7428TIP3    H122241   7.735   6.673   2.030
 7428TIP3    H222242   7.639   6.600   2.121
 7429TIP3   OH222243   4.806   1.286   4.883
 7429TIP3    H122244   4.824   1.194   4.900
 7429TIP3    H222245   4.871   1.311   4.816
 7430TIP3   OH222246   2.344   3.391   2.115
 7430TIP3    H122247   2.383   3.479   2.110
 7430TIP3    H222248   2.250   3.406   2.117
 7431TIP3   OH222249   2.803   1.695   6.789
 7431TIP3    H122250   2.857   1.679   6.866
 7431TIP3    H222251   2.854   1.754   6.734
 7432TIP3   OH222252   5.931   1.781   3.083
 7432TIP3    H122253   5.936   1.803   2.990
 7432TIP3    H222254   6.021   1.761   3.108
 7433TIP3   OH222255   7.685   1.020   1.826
 7433TIP3    H122256   7.600   1.046   1.792
 7433TIP3    H222257   7.734   0.991   1.749
 7434TIP3   OH222258   5.671   7.895   0.923
 7434TIP3    H122259   5.598   7.874   0.865
 7434TIP3    H222260   5.740   7.926   0.865
 7435TIP3   OH222261   6.789   2.446   0.563
 7435TIP3    H122262   6.739   2.423   0.485
 7435TIP3    H222263   6.728   2.493   0.619
 7436TIP3   OH222264   1.445   5.782   2.930
 7436TIP3    H122265   1.478   5.713   2.873
 7436TIP3    H222266   1.519   5.842   2.940
 7437TIP3   OH222267   2.041   2.789   6.300
 7437TIP3    H122268   2.010   2.870   6.341
 7437TIP3    H222269   2.137   2.795   6.304
 7438TIP3   OH222270   0.795   3.905   1.607
 7438TIP3    H122271   0.705   3.872   1.604
 7438TIP3    H222272   0.818   3.922   1.516
 7439TIP3   OH222273   6.439   6.904   5.065
 7439TIP3    H122274   6.513   6.924   5.009
 7439TIP3    H222275   6.450   6.812   5.088
 7440TIP3   OH222276   0.257   0.846   3.416
 7440TIP3    H122277   0.241   0.940   3.413
 7440TIP3    H222278   0.181   0.807   3.371
 7441TIP3   OH222279   0.438   5.799   4.106
 7441TIP3    H122280   0.351   5.787   4.067
 7441TIP3    H222281   0.490   5.836   4.035
 7442TIP3   OH222282   5.839   5.378   4.011
 7442TIP3    H122283   5.866   5.302   4.064
 7442TIP3    H222284   5.917   5.400   3.960
 7443TIP3   OH222285   0.698   3.480   0.419
 7443TIP3    H122286   0.788   3.484   0.453
 7443TIP3    H222287   0.649   3.538   0.477
 7444TIP3   OH222288   2.943   5.586   3.897
 7444TIP3    H122289   2.925   5.549   3.983
 7444TIP3    H222290   2.865   5.567   3.845
 7445TIP3   OH222291   0.174   2.172   1.680
 7445TIP3    H122292   0.234   2.156   1.753
 7445TIP3    H222293   0.225   2.227   1.620
 7446TIP3   OH222294   2.345   3.095   2.292
 7446TIP3    H122295   2.439   3.115   2.294
 7446TIP3    H222296   2.341   3.000   2.304
 7447TIP3   OH222297   0.199   7.130   0.599
 7447TIP3    H122298   0.238   7.142   0.513
 7447TIP3    H222299   0.262   7.169   0.660
 7448TIP3   OH222300   4.468   3.371   1.583
 7448TIP3    H122301   4.433   3.437   1.524
 7448TIP3    H222302   4.547   3.410   1.619
 7449TIP3   OH222303   3.763   7.645   2.492
 7449TIP3    H122304   3.850   7.644   2.532
 7449TIP3    H222305   3.776   7.683   2.405
 7450TIP3   OH222306   2.974   3.856   6.322
 7450TIP3    H122307   3.057   3.816   6.347
 7450TIP3    H222308   2.999   3.926   6.261
 7451TIP3   OH222309   1.435   1.036   1.675
 7451TIP3    H122310   1.347   1.055   1.709
 7451TIP3    H222311   1.422   0.966   1.611
 7452TIP3   OH222312   8.235   1.826   5.257
 7452TIP3    H122313   8.307   1.793   5.205
 7452TIP3    H222314   8.210   1.908   5.215
 7453TIP3   OH222315   3.541   1.022   4.268
 7453TIP3    H122316   3.552   1.050   4.359
 7453TIP3    H222317   3.574   0.933   4.267
 7454TIP3   OH222318   6.880   0.935   4.057
 7454TIP3    H122319   6.885   1.018   4.105
 7454TIP3    H222320   6.787   0.920   4.044
 7455TIP3   OH222321   7.602   7.140   0.121
 7455TIP3    H122322   7.625   7.051   0.148
 7455TIP3    H222323   7.512   7.151   0.151
 7456TIP3   OH222324   3.986   6.521   5.879
 7456TIP3    H122325   3.944   6.484   5.957
 7456TIP3    H222326   3.912   6.547   5.823
 7457TIP3   OH222327   4.832   3.543   4.476
 7457TIP3    H122328   4.824   3.512   4.566
 7457TIP3    H222329   4.753   3.596   4.461
 7458TIP3   OH222330   1.819   4.675   0.725
 7458TIP3    H122331   1.797   4.638   0.640
 7458TIP3    H222332   1.802   4.768   0.717
 7459TIP3   OH222333   2.061   1.695   1.900
 7459TIP3    H122334   2.131   1.640   1.863
 7459TIP3    H222335   2.022   1.737   1.824
 7460TIP3   OH222336   4.528   6.798   5.672
 7460TIP3    H122337   4.504   6.803   5.764
 7460TIP3    H222338   4.581   6.876   5.656
 7461TIP3   OH222339   2.315   7.512   3.122
 7461TIP3    H122340   2.319   7.450   3.049
 7461TIP3    H222341   2.325   7.459   3.200
 7462TIP3   OH222342   0.088   0.959   2.832
 7462TIP3    H122343   0.150   0.917   2.892
 7462TIP3    H222344   0.013   0.981   2.886
 7463TIP3   OH222345   6.812   6.765   0.733
 7463TIP3    H122346   6.855   6.681   0.746
 7463TIP3    H222347   6.854   6.823   0.797
 7464TIP3   OH222348   4.009   0.866   5.208
 7464TIP3    H122349   3.973   0.907   5.287
 7464TIP3    H222350   4.104   0.862   5.225
 7465TIP3   OH222351   2.156   4.350   1.846
 7465TIP3    H122352   2.151   4.329   1.940
 7465TIP3    H222353   2.121   4.438   1.839
 7466TIP3   OH222354   4.078   1.794   1.256
 7466TIP3    H122355   4.065   1.699   1.254
 7466TIP3    H222356   4.026   1.824   1.331
 7467TIP3   OH222357   7.182   4.048   0.444
 7467TIP3    H122358   7.272   4.030   0.472
 7467TIP3    H222359   7.168   4.141   0.462
 7468TIP3   OH222360   6.798   6.828   6.738
 7468TIP3    H122361   6.717   6.873   6.765
 7468TIP3    H222362   6.775   6.736   6.737
 7469TIP3   OH222363   6.704   2.187   3.629
 7469TIP3    H122364   6.646   2.206   3.555
 7469TIP3    H222365   6.786   2.160   3.587
 7470TIP3   OH222366   4.348   1.143   4.030
 7470TIP3    H122367   4.301   1.061   4.018
 7470TIP3    H222368   4.361   1.150   4.125
 7471TIP3   OH222369   4.454   3.425   5.428
 7471TIP3    H122370   4.479   3.336   5.404
 7471TIP3    H222371   4.467   3.429   5.523
 7472TIP3   OH222372   5.911   0.167   1.074
 7472TIP3    H122373   5.970   0.137   1.005
 7472TIP3    H222374   5.860   0.089   1.098
 7473TIP3   OH222375   7.410   1.533   3.852
 7473TIP3    H122376   7.479   1.593   3.880
 7473TIP3    H222377   7.409   1.465   3.919
 7474TIP3   OH222378   8.204   7.085   2.066
 7474TIP3    H122379   8.279   7.053   2.116
 7474TIP3    H222380   8.218   7.050   1.978
 7475TIP3   OH222381   0.217   6.042   1.243
 7475TIP3    H122382   0.255   6.061   1.157
 7475TIP3    H222383   0.194   5.949   1.239
 7476TIP3   OH222384   1.461   1.969   5.789
 7476TIP3    H122385   1.419   1.991   5.706
 7476TIP3    H222386   1.544   2.017   5.787
 7477TIP3   OH222387   0.994   1.680   3.299
 7477TIP3    H122388   1.050   1.751   3.266
 7477TIP3    H222389   0.957   1.641   3.220
 7478TIP3   OH222390   6.191   6.124   1.697
 7478TIP3    H122391   6.218   6.100   1.786
 7478TIP3    H222392   6.266   6.171   1.662
 7479TIP3   OH222393   0.183   6.378   3.411
 7479TIP3    H122394   0.192   6.330   3.493
 7479TIP3    H222395   0.102   6.428   3.421
 7480TIP3   OH222396   0.707   6.676   1.143
 7480TIP3    H122397   0.791   6.686   1.188
 7480TIP3    H222398   0.684   6.584   1.155
 7481TIP3   OH222399   6.878   6.984   2.761
 7481TIP3    H122400   6.854   7.063   2.808
 7481TIP3    H222401   6.809   6.973   2.695
 7482TIP3   OH222402   7.336   4.037   6.478
 7482TIP3    H122403   7.376   3.987   6.407
 7482TIP3    H222404   7.410   4.079   6.522
 7483TIP3   OH222405   4.462   1.924   4.373
 7483TIP3    H122406   4.442   1.911   4.466
 7483TIP3    H222407   4.549   1.963   4.372
 7484TIP3   OH222408   7.638   4.246   1.293
 7484TIP3    H122409   7.630   4.150   1.294
 7484TIP3    H222410   7.668   4.268   1.380
 7485TIP3   OH222411   3.116   7.352   4.116
 7485TIP3    H122412   3.171   7.419   4.155
 7485TIP3    H222413   3.066   7.315   4.189
 7486TIP3   OH222414   6.011   6.808   0.702
 7486TIP3    H122415   6.058   6.880   0.744
 7486TIP3    H222416   6.022   6.734   0.761
 7487TIP3   OH222417   2.293   4.076   1.562
 7487TIP3    H122418   2.327   4.088   1.473
 7487TIP3    H222419   2.281   3.982   1.571
 7488TIP3   OH222420   6.224   2.768   2.219
 7488TIP3    H122421   6.282   2.742   2.292
 7488TIP3    H222422   6.155   2.820   2.261
 7489TIP3   OH222423   3.669   0.962   2.223
 7489TIP3    H122424   3.577   0.988   2.212
 7489TIP3    H222425   3.700   0.948   2.133
 7490TIP3   OH222426   4.807   2.469   4.294
 7490TIP3    H122427   4.763   2.394   4.335
 7490TIP3    H222428   4.828   2.527   4.367
 7491TIP3   OH222429   2.310   5.150   6.137
 7491TIP3    H122430   2.267   5.081   6.088
 7491TIP3    H222431   2.309   5.120   6.228
 7492TIP3   OH222432   3.229   3.205   1.233
 7492TIP3    H122433   3.167   3.205   1.306
 7492TIP3    H222434   3.195   3.138   1.173
 7493TIP3   OH222435   5.072   4.128   1.518
 7493TIP3    H122436   5.082   4.193   1.448
 7493TIP3    H222437   4.990   4.084   1.498
 7494TIP3   OH222438   3.843   7.435   0.337
 7494TIP3    H122439   3.786   7.456   0.264
 7494TIP3    H222440   3.915   7.386   0.298
 7495TIP3   OH222441   7.884   4.594   3.862
 7495TIP3    H122442   7.921   4.513   3.897
 7495TIP3    H222443   7.827   4.565   3.791
 7496TIP3   OH222444   6.443   3.670   6.645
 7496TIP3    H122445   6.364   3.722   6.659
 7496TIP3    H222446   6.416   3.581   6.668
 7497TIP3   OH222447   7.882   7.634   2.377
 7497TIP3    H122448   7.813   7.606   2.437
 7497TIP3    H222449   7.870   7.580   2.299
 7498TIP3   OH222450   3.276   5.703   0.099
 7498TIP3    H122451   3.336   5.732   0.030
 7498TIP3    H222452   3.218   5.779   0.114
 7499TIP3   OH222453   3.067   5.361   3.068
 7499TIP3    H122454   2.983   5.383   3.107
 7499TIP3    H222455   3.066   5.266   3.059
 7500TIP3   OH222456   1.701   2.159   4.357
 7500TIP3    H122457   1.626   2.111   4.392
 7500TIP3    H222458   1.732   2.106   4.284
 7501TIP3   OH222459   0.054   0.154   6.219
 7501TIP3    H122460   0.134   0.104   6.237
 7501TIP3    H222461   0.053   0.222   6.287
 7502TIP3   OH222462   1.788   2.243   2.892
 7502TIP3    H122463   1.840   2.188   2.951
 7502TIP3    H222464   1.697   2.225   2.915
 7503TIP3   OH222465   6.042   6.140   4.728
 7503TIP3    H122466   6.054   6.158   4.821
 7503TIP3    H222467   5.978   6.069   4.726
 7504TIP3   OH222468   1.344   7.016   6.650
 7504TIP3    H122469   1.391   7.065   6.717
 7504TIP3    H222470   1.341   6.926   6.683
 7505TIP3   OH222471   3.762   6.565   2.561
 7505TIP3    H122472   3.774   6.609   2.646
 7505TIP3    H222473   3.696   6.498   2.579
 7506TIP3   OH222474   2.888   2.020   2.405
 7506TIP3    H122475   2.842   2.056   2.329
 7506TIP3    H222476   2.845   2.059   2.480
 7507TIP3   OH222477   6.189   3.277   4.190
 7507TIP3    H122478   6.110   3.239   4.227
 7507TIP3    H222479   6.213   3.219   4.118
 7508TIP3   OH222480   0.249   3.814   5.067
 7508TIP3    H122481   0.235   3.868   4.989
 7508TIP3    H222482   0.344   3.802   5.071
 7509TIP3   OH222483   3.484   4.143   5.275
 7509TIP3    H122484   3.466   4.189   5.193
 7509TIP3    H222485   3.514   4.211   5.334
 7510TIP3   OH222486   0.447   5.055   5.936
 7510TIP3    H122487   0.417   5.002   6.010
 7510TIP3    H222488   0.401   5.139   5.946
 7511TIP3   OH222489   2.553   1.699   2.012
 7511TIP3    H122490   2.512   1.742   1.937
 7511TIP3    H222491   2.558   1.607   1.987
 7512TIP3   OH222492   2.169   0.903   6.309
 7512TIP3    H122493   2.096   0.891   6.249
 7512TIP3    H222494   2.189   0.997   6.303
 7513TIP3   OH222495   4.906   3.291   4.640
 7513TIP3    H122496   4.837   3.329   4.694
 7513TIP3    H222497   4.987   3.305   4.689
 7514TIP3   OH222498   0.589   3.634   1.513
 7514TIP3    H122499   0.529   3.575   1.467
 7514TIP3    H222500   0.532   3.695   1.560
 7515TIP3   OH222501   3.763   7.136   5.159
 7515TIP3    H122502   3.771   7.140   5.254
 7515TIP3    H222503   3.775   7.227   5.130
 7516TIP3   OH222504   1.034   6.589   3.564
 7516TIP3    H122505   1.038   6.679   3.596
 7516TIP3    H222506   1.064   6.594   3.473
 7517TIP3   OH222507   3.463   5.382   1.903
 7517TIP3    H122508   3.475   5.293   1.868
 7517TIP3    H222509   3.369   5.387   1.920
 7518TIP3   OH222510   1.780   3.176   4.046
 7518TIP3    H122511   1.686   3.165   4.060
 7518TIP3    H222512   1.805   3.243   4.109
 7519TIP3   OH222513   7.011   6.433   5.047
 7519TIP3    H122514   7.040   6.342   5.050
 7519TIP3    H222515   7.079   6.478   4.997
 7520TIP3   OH222516   5.079   3.882   5.666
 7520TIP3    H122517   5.135   3.837   5.602
 7520TIP3    H222518   5.140   3.913   5.733
 7521TIP3   OH222519   4.458   5.358   2.758
 7521TIP3    H122520   4.395   5.425   2.732
 7521TIP3    H222521   4.543   5.391   2.726
 7522TIP3   OH222522   6.941   3.464   4.688
 7522TIP3    H122523   6.915   3.460   4.780
 7522TIP3    H222524   6.952   3.558   4.671
 7523TIP3   OH222525   5.849   3.550   1.395
 7523TIP3    H122526   5.866   3.457   1.407
 7523TIP3    H222527   5.924   3.583   1.346
 7524TIP3   OH222528   3.893   2.235   0.757
 7524TIP3    H122529   3.820   2.259   0.816
 7524TIP3    H222530   3.919   2.318   0.717
 7525TIP3   OH222531   4.310   4.628   2.540
 7525TIP3    H122532   4.220   4.599   2.555
 7525TIP3    H222533   4.353   4.554   2.498
 7526TIP3   OH222534   1.644   1.555   4.150
 7526TIP3    H122535   1.698   1.529   4.225
 7526TIP3    H222536   1.562   1.507   4.162
 7527TIP3   OH222537   3.857   3.763   4.889
 7527TIP3    H122538   3.830   3.844   4.933
 7527TIP3    H222539   3.843   3.781   4.796
 7528TIP3   OH222540   8.226   3.881   5.881
 7528TIP3    H122541   8.241   3.976   5.874
 7528TIP3    H222542   8.271   3.844   5.805
 7529TIP3   OH222543   7.604   1.888   5.269
 7529TIP3    H122544   7.573   1.803   5.238
 7529TIP3    H222545   7.686   1.868   5.315
 7530TIP3   OH222546   0.947   7.510   6.630
 7530TIP3    H122547   0.926   7.526   6.538
 7530TIP3    H222548   1.041   7.490   6.630
 7531TIP3   OH222549   5.458   2.094   5.402
 7531TIP3    H122550   5.462   2.035   5.327
 7531TIP3    H222551   5.493   2.043   5.475
 7532TIP3   OH222552   6.766   7.466   6.088
 7532TIP3    H122553   6.718   7.465   6.005
 7532TIP3    H222554   6.705   7.505   6.151
 7533TIP3   OH222555   7.906   3.422   5.513
 7533TIP3    H122556   7.955   3.502   5.532
 7533TIP3    H222557   7.926   3.364   5.586
 7534TIP3   OH222558   0.063   6.497   4.603
 7534TIP3    H122559   0.040   6.580   4.644
 7534TIP3    H222560   0.126   6.457   4.663
 7535TIP3   OH222561   8.011   6.994   3.823
 7535TIP3    H122562   7.983   7.073   3.870
 7535TIP3    H222563   7.957   6.924   3.860
 7536TIP3   OH222564   4.553   1.445   0.420
 7536TIP3    H122565   4.617   1.403   0.363
 7536TIP3    H222566   4.530   1.527   0.375
 7537TIP3   OH222567   5.816   0.022   2.565
 7537TIP3    H122568   5.832   0.116   2.554
 7537TIP3    H222569   5.901  -0.018   2.547
 7538TIP3   OH222570   1.807   6.380   5.702
 7538TIP3    H122571   1.746   6.333   5.759
 7538TIP3    H222572   1.821   6.320   5.628
 7539TIP3   OH222573   8.036   2.199   0.956
 7539TIP3    H122574   8.102   2.204   1.025
 7539TIP3    H222575   7.988   2.281   0.964
 7540TIP3   OH222576   3.546   3.600   2.760
 7540TIP3    H122577   3.510   3.569   2.843
 7540TIP3    H222578   3.486   3.568   2.693
 7541TIP3   OH222579   3.718   1.239   2.062
 7541TIP3    H122580   3.633   1.269   2.094
 7541TIP3    H222581   3.759   1.318   2.027
 7542TIP3   OH222582   3.986   2.837   1.268
 7542TIP3    H122583   4.004   2.920   1.224
 7542TIP3    H222584   3.897   2.815   1.243
 7543TIP3   OH222585   3.969   1.983   4.709
 7543TIP3    H122586   3.987   2.015   4.797
 7543TIP3    H222587   3.889   2.029   4.682
 7544TIP3   OH222588   4.784   5.858   4.710
 7544TIP3    H122589   4.762   5.806   4.787
 7544TIP3    H222590   4.833   5.798   4.654
 7545TIP3   OH222591   4.306   4.148   3.508
 7545TIP3    H122592   4.397   4.174   3.525
 7545TIP3    H222593   4.256   4.192   3.577
 7546TIP3   OH222594   2.910   7.435   0.956
 7546TIP3    H122595   2.851   7.503   0.988
 7546TIP3    H222596   2.897   7.361   1.015
 7547TIP3   OH222597   0.789   2.553   3.591
 7547TIP3    H122598   0.734   2.480   3.618
 7547TIP3    H222599   0.763   2.570   3.500
 7548TIP3   OH222600   6.398   2.856   1.153
 7548TIP3    H122601   6.473   2.865   1.094
 7548TIP3    H222602   6.398   2.763   1.176
 7549TIP3   OH222603   0.189   3.169   6.220
 7549TIP3    H122604   0.257   3.102   6.212
 7549TIP3    H222605   0.203   3.227   6.145
 7550TIP3   OH222606   5.002   1.700   5.580
 7550TIP3    H122607   5.020   1.699   5.674
 7550TIP3    H222608   5.081   1.739   5.542
 7551TIP3   OH222609   8.269   3.012   4.872
 7551TIP3    H122610   8.180   3.013   4.907
 7551TIP3    H222611   8.273   2.933   4.818
 7552TIP3   OH222612   3.799   4.800   2.505
 7552TIP3    H122613   3.796   4.840   2.418
 7552TIP3    H222614   3.709   4.805   2.537
 7553TIP3   OH222615   7.934   1.054   0.116
 7553TIP3    H122616   7.905   1.126   0.172
 7553TIP3    H222617   7.985   0.998   0.174
 7554TIP3   OH222618   1.863   1.186   6.277
 7554TIP3    H122619   1.852   1.114   6.214
 7554TIP3    H222620   1.841   1.147   6.362
 7555TIP3   OH222621   5.119   0.824   0.326
 7555TIP3    H122622   5.031   0.819   0.289
 7555TIP3    H222623   5.150   0.733   0.327
 7556TIP3   OH222624   3.603   4.715   3.526
 7556TIP3    H122625   3.509   4.704   3.515
 7556TIP3    H222626   3.625   4.792   3.473
 7557TIP3   OH222627   2.446   1.627   1.541
 7557TIP3    H122628   2.415   1.565   1.607
 7557TIP3    H222629   2.519   1.581   1.499
 7558TIP3   OH222630   4.655   3.272   3.417
 7558TIP3    H122631   4.672   3.279   3.324
 7558TIP3    H222632   4.611   3.354   3.440
 7559TIP3   OH222633   3.974   4.032   3.000
 7559TIP3    H122634   4.006   3.961   2.944
 7559TIP3    H222635   3.943   3.988   3.079
 7560TIP3   OH222636   5.529   3.396   2.983
 7560TIP3    H122637   5.587   3.341   2.929
 7560TIP3    H222638   5.450   3.343   2.995
 7561TIP3   OH222639   4.769   4.662   6.133
 7561TIP3    H122640   4.724   4.578   6.124
 7561TIP3    H222641   4.843   4.643   6.191
 7562TIP3   OH222642   0.514   6.182   6.010
 7562TIP3    H122643   0.547   6.245   6.074
 7562TIP3    H222644   0.587   6.123   5.994
 7563TIP3   OH222645   5.062   3.699   4.384
 7563TIP3    H122646   4.976   3.684   4.344
 7563TIP3    H222647   5.084   3.617   4.427
 7564TIP3   OH222648   1.930   1.664   1.452
 7564TIP3    H122649   1.994   1.594   1.439
 7564TIP3    H222650   1.902   1.688   1.364
 7565TIP3   OH222651   4.582   2.977   4.775
 7565TIP3    H122652   4.609   2.969   4.683
 7565TIP3    H222653   4.616   3.062   4.803
 7566TIP3   OH222654   0.210   1.264   5.837
 7566TIP3    H122655   0.123   1.245   5.803
 7566TIP3    H222656   0.218   1.360   5.833
 7567TIP3   OH222657   7.061   0.138   3.547
 7567TIP3    H122658   6.990   0.082   3.577
 7567TIP3    H222659   7.088   0.187   3.625
 7568TIP3   OH222660   3.292   0.565   6.434
 7568TIP3    H122661   3.345   0.510   6.377
 7568TIP3    H222662   3.340   0.567   6.517
 7569TIP3   OH222663   7.787   2.670   3.715
 7569TIP3    H122664   7.762   2.759   3.692
 7569TIP3    H222665   7.870   2.679   3.762
 7570TIP3   OH222666   7.495   3.765   0.042
 7570TIP3    H122667   7.582   3.798   0.066
 7570TIP3    H222668   7.473   3.703   0.111
 7571TIP3   OH222669   3.482   5.004   3.724
 7571TIP3    H122670   3.535   4.945   3.778
 7571TIP3    H222671   3.393   4.971   3.733
 7572TIP3   OH222672   8.256   5.089   1.341
 7572TIP3    H122673   8.284   5.012   1.391
 7572TIP3    H222674   8.183   5.125   1.391
 7573TIP3   OH222675   5.481   6.107   3.045
 7573TIP3    H122676   5.401   6.155   3.064
 7573TIP3    H222677   5.509   6.073   3.130
 7574TIP3   OH222678   0.935   3.841   0.775
 7574TIP3    H122679   0.951   3.783   0.700
 7574TIP3    H222680   0.839   3.849   0.777
 7575TIP3   OH222681   8.177   4.669   0.782
 7575TIP3    H122682   8.203   4.759   0.802
 7575TIP3    H222683   8.206   4.654   0.693
 7576TIP3   OH222684   4.682   5.251   4.167
 7576TIP3    H122685   4.742   5.232   4.239
 7576TIP3    H222686   4.598   5.268   4.209
 7577TIP3   OH222687   6.499   7.650   6.030
 7577TIP3    H122688   6.494   7.669   6.123
 7577TIP3    H222689   6.425   7.591   6.014
 7578TIP3   OH222690   7.701   7.505   3.133
 7578TIP3    H122691   7.606   7.508   3.143
 7578TIP3    H222692   7.729   7.438   3.196
 7579TIP3   OH222693   1.758   0.134   4.649
 7579TIP3    H122694   1.839   0.148   4.599
 7579TIP3    H222695   1.788   0.118   4.738
 7580TIP3   OH222696   2.670   0.399   0.619
 7580TIP3    H122697   2.757   0.368   0.593
 7580TIP3    H222698   2.624   0.415   0.537
 7581TIP3   OH222699   4.093   2.801   4.104
 7581TIP3    H122700   4.159   2.746   4.061
 7581TIP3    H222701   4.045   2.842   4.031
 7582TIP3   OH222702   8.067   6.537   2.609
 7582TIP3    H122703   7.978   6.575   2.610
 7582TIP3    H222704   8.086   6.524   2.517
 7583TIP3   OH222705   3.694   5.191   3.806
 7583TIP3    H122706   3.612   5.230   3.835
 7583TIP3    H222707   3.685   5.098   3.827
 7584TIP3   OH222708   5.825   2.962   6.014
 7584TIP3    H122709   5.810   2.945   5.921
 7584TIP3    H222710   5.738   2.962   6.053
 7585TIP3   OH222711   3.971   3.709   1.282
 7585TIP3    H122712   3.993   3.792   1.239
 7585TIP3    H222713   4.036   3.700   1.351
 7586TIP3   OH222714   2.617   6.479   4.245
 7586TIP3    H122715   2.711   6.480   4.226
 7586TIP3    H222716   2.602   6.394   4.286
 7587TIP3   OH222717   5.793   1.388   5.317
 7587TIP3    H122718   5.740   1.336   5.377
 7587TIP3    H222719   5.736   1.462   5.293
 7588TIP3   OH222720   5.000   1.359   3.921
 7588TIP3    H122721   5.035   1.411   3.849
 7588TIP3    H222722   4.964   1.280   3.879
 7589TIP3   OH222723   3.112   2.515   5.618
 7589TIP3    H122724   3.052   2.542   5.688
 7589TIP3    H222725   3.072   2.550   5.538
 7590TIP3   OH222726   6.934   2.953   5.040
 7590TIP3    H122727   6.973   3.003   4.968
 7590TIP3    H222728   6.905   2.872   4.999
 7591TIP3   OH222729   6.047   6.573   5.162
 7591TIP3    H122730   5.976   6.544   5.105
 7591TIP3    H222731   6.114   6.506   5.154
 7592TIP3   OH222732   8.164   1.224   0.271
 7592TIP3    H122733   8.258   1.220   0.255
 7592TIP3    H222734   8.135   1.299   0.218
 7593TIP3   OH222735   5.597   1.467   0.183
 7593TIP3    H122736   5.578   1.407   0.112
 7593TIP3    H222737   5.600   1.411   0.261
 7594TIP3   OH222738   1.346   4.956   4.023
 7594TIP3    H122739   1.262   4.919   3.998
 7594TIP3    H222740   1.410   4.887   4.004
 7595TIP3   OH222741   1.509   6.478   0.530
 7595TIP3    H122742   1.473   6.565   0.544
 7595TIP3    H222743   1.570   6.465   0.603
 7596TIP3   OH222744   2.470   7.765   2.135
 7596TIP3    H122745   2.381   7.798   2.137
 7596TIP3    H222746   2.520   7.828   2.187
 7597TIP3   OH222747   5.028   7.661   6.700
 7597TIP3    H122748   4.984   7.701   6.775
 7597TIP3    H222749   4.967   7.593   6.671
 7598TIP3   OH222750   3.785   5.769   5.177
 7598TIP3    H122751   3.763   5.723   5.258
 7598TIP3    H222752   3.744   5.718   5.108
 7599TIP3   OH222753   0.515   4.713   5.303
 7599TIP3    H122754   0.451   4.646   5.329
 7599TIP3    H222755   0.530   4.695   5.210
 7600TIP3   OH222756   5.083   3.290   2.478
 7600TIP3    H122757   5.164   3.339   2.461
 7600TIP3    H222758   5.042   3.281   2.392
 7601TIP3   OH222759   0.791   1.678   2.217
 7601TIP3    H122760   0.804   1.583   2.214
 7601TIP3    H222761   0.699   1.691   2.197
 7602TIP3   OH222762   6.891   7.161   5.933
 7602TIP3    H122763   6.900   7.172   5.838
 7602TIP3    H222764   6.801   7.187   5.952
 7603TIP3   OH222765   2.506   3.615   2.060
 7603TIP3    H122766   2.590   3.583   2.092
 7603TIP3    H222767   2.489   3.694   2.111
 7604TIP3   OH222768   6.239   3.451   3.437
 7604TIP3    H122769   6.239   3.546   3.444
 7604TIP3    H222770   6.147   3.427   3.434
 7605TIP3   OH222771   3.095   3.931   3.195
 7605TIP3    H122772   3.139   3.910   3.277
 7605TIP3    H222773   3.072   4.024   3.203
 7606TIP3   OH222774   7.928   3.637   3.813
 7606TIP3    H122775   7.967   3.613   3.729
 7606TIP3    H222776   7.915   3.732   3.807
 7607TIP3   OH222777   6.351   1.374   1.265
 7607TIP3    H122778   6.312   1.393   1.350
 7607TIP3    H222779   6.277   1.369   1.204
 7608TIP3   OH222780   6.684   6.065   1.182
 7608TIP3    H122781   6.621   5.997   1.158
 7608TIP3    H222782   6.631   6.144   1.192
 7609TIP3   OH222783   7.410   3.961   3.910
 7609TIP3    H122784   7.466   4.033   3.880
 7609TIP3    H222785   7.466   3.883   3.905
 7610TIP3   OH222786   3.936   2.871   2.657
 7610TIP3    H122787   4.026   2.840   2.654
 7610TIP3    H222788   3.884   2.792   2.676
 7611TIP3   OH222789   5.562   3.294   2.429
 7611TIP3    H122790   5.630   3.273   2.492
 7611TIP3    H222791   5.532   3.209   2.397
 7612TIP3   OH222792   6.038   6.261   1.091
 7612TIP3    H122793   5.970   6.296   1.149
 7612TIP3    H222794   6.093   6.207   1.148
 7613TIP3   OH222795   7.325   0.247   0.064
 7613TIP3    H122796   7.331   0.301  -0.015
 7613TIP3    H222797   7.413   0.214   0.077
 7614TIP3   OH222798   2.369   0.452   6.065
 7614TIP3    H122799   2.299   0.438   6.002
 7614TIP3    H222800   2.420   0.525   6.028
 7615TIP3   OH222801   3.326   2.874   1.375
 7615TIP3    H122802   3.275   2.929   1.435
 7615TIP3    H222803   3.260   2.830   1.322
 7616TIP3   OH222804   1.933   0.817   5.489
 7616TIP3    H122805   1.915   0.813   5.583
 7616TIP3    H222806   1.993   0.744   5.473
 7617TIP3   OH222807   7.334   5.658   6.752
 7617TIP3    H122808   7.314   5.568   6.776
 7617TIP3    H222809   7.249   5.698   6.737
 7618TIP3   OH222810   7.121   1.510   2.044
 7618TIP3    H122811   7.115   1.422   2.007
 7618TIP3    H222812   7.087   1.502   2.133
 7619TIP3   OH222813   1.151   0.844   2.868
 7619TIP3    H122814   1.238   0.844   2.828
 7619TIP3    H222815   1.160   0.901   2.945
 7620TIP3   OH222816   1.035   1.982   0.584
 7620TIP3    H122817   1.032   2.008   0.492
 7620TIP3    H222818   1.087   1.902   0.585
 7621TIP3   OH222819   0.854   4.213   5.271
 7621TIP3    H122820   0.868   4.300   5.309
 7621TIP3    H222821   0.801   4.168   5.336
 7622TIP3   OH222822   3.056   6.701   6.372
 7622TIP3    H122823   3.084   6.745   6.453
 7622TIP3    H222824   3.098   6.615   6.375
 7623TIP3   OH222825   4.419   5.180   1.841
 7623TIP3    H122826   4.433   5.216   1.753
 7623TIP3    H222827   4.468   5.237   1.899
 7624TIP3   OH222828   5.767   3.699   6.252
 7624TIP3    H122829   5.809   3.783   6.235
 7624TIP3    H222830   5.677   3.721   6.277
 7625TIP3   OH222831   7.370   3.768   2.861
 7625TIP3    H122832   7.334   3.688   2.822
 7625TIP3    H222833   7.406   3.816   2.787
 7626TIP3   OH222834   1.151   3.783   3.671
 7626TIP3    H122835   1.204   3.789   3.591
 7626TIP3    H222836   1.109   3.869   3.678
 7627TIP3   OH222837   0.954   7.036   1.078
 7627TIP3    H122838   1.006   7.096   1.132
 7627TIP3    H222839   0.874   7.022   1.128
 7628TIP3   OH222840   4.243   0.528   5.599
 7628TIP3    H122841   4.216   0.620   5.594
 7628TIP3    H222842   4.321   0.524   5.543
 7629TIP3   OH222843   1.413   3.219   1.156
 7629TIP3    H122844   1.468   3.247   1.229
 7629TIP3    H222845   1.349   3.289   1.146
 7630TIP3   OH222846   2.146   1.893   6.202
 7630TIP3    H122847   2.082   1.895   6.130
 7630TIP3    H222848   2.208   1.962   6.180
 7631TIP3   OH222849   7.084   3.402   0.578
 7631TIP3    H122850   7.156   3.381   0.518
 7631TIP3    H222851   7.047   3.318   0.601
 7632TIP3   OH222852   5.301   2.473   3.589
 7632TIP3    H122853   5.373   2.452   3.528
 7632TIP3    H222854   5.337   2.542   3.644
 7633TIP3   OH222855   4.363   1.803   0.799
 7633TIP3    H122856   4.431   1.817   0.733
 7633TIP3    H222857   4.373   1.876   0.860
 7634TIP3   OH222858   3.901   2.296   6.156
 7634TIP3    H122859   3.928   2.386   6.137
 7634TIP3    H222860   3.936   2.278   6.244
 7635TIP3   OH222861   3.336   0.911   4.613
 7635TIP3    H122862   3.249   0.934   4.644
 7635TIP3    H222863   3.355   0.976   4.545
 7636TIP3   OH222864   5.367   0.140   3.837
 7636TIP3    H122865   5.302   0.097   3.781
 7636TIP3    H222866   5.330   0.132   3.925
 7637TIP3   OH222867   3.405   0.979   2.166
 7637TIP3    H122868   3.372   0.915   2.103
 7637TIP3    H222869   3.346   0.971   2.241
 7638TIP3   OH222870   6.493   5.943   3.941
 7638TIP3    H122871   6.498   5.990   4.025
 7638TIP3    H222872   6.580   5.904   3.930
 7639TIP3   OH222873   4.329   2.750   6.255
 7639TIP3    H122874   4.301   2.756   6.346
 7639TIP3    H222875   4.411   2.700   6.259
 7640TIP3   OH222876   0.220   3.905   2.660
 7640TIP3    H122877   0.251   3.965   2.728
 7640TIP3    H222878   0.158   3.956   2.608
 7641TIP3   OH222879   6.769   4.248   5.774
 7641TIP3    H122880   6.850   4.251   5.722
 7641TIP3    H222881   6.701   4.222   5.712
 7642TIP3   OH222882   3.742   7.412   1.921
 7642TIP3    H122883   3.766   7.320   1.917
 7642TIP3    H222884   3.673   7.416   1.988
 7643TIP3   OH222885   0.241   3.271   4.306
 7643TIP3    H122886   0.207   3.210   4.370
 7643TIP3    H222887   0.252   3.353   4.354
 7644TIP3   OH222888   6.580   2.235   3.374
 7644TIP3    H122889   6.594   2.152   3.329
 7644TIP3    H222890   6.640   2.296   3.332
 7645TIP3   OH222891   7.347   2.250   1.027
 7645TIP3    H122892   7.403   2.298   1.088
 7645TIP3    H222893   7.258   2.264   1.060
 7646TIP3   OH222894   0.909   6.460   0.057
 7646TIP3    H122895   0.979   6.413   0.102
 7646TIP3    H222896   0.943   6.550   0.049
 7647TIP3   OH222897   3.562   2.564   5.642
 7647TIP3    H122898   3.594   2.512   5.716
 7647TIP3    H222899   3.475   2.529   5.623
 7648TIP3   OH222900   7.747   7.397   1.055
 7648TIP3    H122901   7.809   7.467   1.076
 7648TIP3    H222902   7.666   7.422   1.099
 7649TIP3   OH222903   2.527   0.845   0.695
 7649TIP3    H122904   2.461   0.845   0.764
 7649TIP3    H222905   2.590   0.778   0.722
 7650TIP3   OH222906   8.246   2.420   5.167
 7650TIP3    H122907   8.254   2.515   5.157
 7650TIP3    H222908   8.335   2.386   5.155
 7651TIP3   OH222909   7.190   0.981   5.760
 7651TIP3    H122910   7.096   0.998   5.752
 7651TIP3    H222911   7.227   1.013   5.678
 7652TIP3   OH222912   0.286   6.486   0.319
 7652TIP3    H122913   0.198   6.451   0.305
 7652TIP3    H222914   0.319   6.506   0.231
 7653TIP3   OH222915   3.849   3.134   6.756
 7653TIP3    H122916   3.787   3.195   6.716
 7653TIP3    H222917   3.796   3.082   6.817
 7654TIP3   OH222918   5.728   3.923   5.373
 7654TIP3    H122919   5.802   3.960   5.420
 7654TIP3    H222920   5.693   3.856   5.431
 7655TIP3   OH222921   5.108   3.500   6.643
 7655TIP3    H122922   5.058   3.578   6.671
 7655TIP3    H222923   5.191   3.508   6.689
 7656TIP3   OH222924   3.914   1.180  -0.011
 7656TIP3    H122925   3.935   1.203   0.080
 7656TIP3    H222926   3.857   1.251  -0.041
 7657TIP3   OH222927   0.376   1.309   1.284
 7657TIP3    H122928   0.449   1.318   1.345
 7657TIP3    H222929   0.304   1.357   1.325
 7658TIP3   OH222930   5.849   7.435   1.203
 7658TIP3    H122931   5.844   7.427   1.299
 7658TIP3    H222932   5.835   7.528   1.187
 7659TIP3   OH222933   0.297   3.107   1.980
 7659TIP3    H122934   0.283   3.200   1.998
 7659TIP3    H222935   0.288   3.065   2.065
 7660TIP3   OH222936   3.462   3.333   2.088
 7660TIP3    H122937   3.488   3.242   2.095
 7660TIP3    H222938   3.484   3.358   1.998
 7661TIP3   OH222939   6.533   5.073   5.177
 7661TIP3    H122940   6.619   5.116   5.174
 7661TIP3    H222941   6.474   5.136   5.136
 7662TIP3   OH222942   3.260   7.563   4.200
 7662TIP3    H122943   3.292   7.578   4.289
 7662TIP3    H222944   3.338   7.574   4.145
 7663TIP3   OH222945   6.929   7.628   6.531
 7663TIP3    H122946   6.978   7.608   6.451
 7663TIP3    H222947   6.856   7.566   6.531
 7664TIP3   OH222948   5.154   6.790   3.727
 7664TIP3    H122949   5.162   6.864   3.667
 7664TIP3    H222950   5.211   6.813   3.801
 7665TIP3   OH222951   5.152   6.464   6.322
 7665TIP3    H122952   5.196   6.379   6.319
 7665TIP3    H222953   5.107   6.465   6.406
 7666TIP3   OH222954   2.469   2.999   5.482
 7666TIP3    H122955   2.512   3.010   5.567
 7666TIP3    H222956   2.468   3.086   5.444
 7667TIP3   OH222957   0.103   1.121   6.480
 7667TIP3    H122958   0.134   1.054   6.419
 7667TIP3    H222959   0.169   1.125   6.548
 7668TIP3   OH222960   1.731   7.114   0.275
 7668TIP3    H122961   1.778   7.034   0.300
 7668TIP3    H222962   1.794   7.164   0.223
 7669TIP3   OH222963   6.124   0.540   0.151
 7669TIP3    H122964   6.088   0.594   0.222
 7669TIP3    H222965   6.084   0.455   0.162
 7670TIP3   OH222966   7.416   6.586   6.611
 7670TIP3    H122967   7.422   6.649   6.683
 7670TIP3    H222968   7.328   6.599   6.575
 7671TIP3   OH222969   5.222   5.802   1.789
 7671TIP3    H122970   5.146   5.820   1.734
 7671TIP3    H222971   5.192   5.822   1.878
 7672TIP3   OH222972   3.413   3.728   4.205
 7672TIP3    H122973   3.379   3.817   4.207
 7672TIP3    H222974   3.335   3.673   4.190
 7673TIP3   OH222975   5.874   3.259   3.698
 7673TIP3    H122976   5.898   3.207   3.622
 7673TIP3    H222977   5.805   3.209   3.742
 7674TIP3   OH222978   1.139   1.154   1.267
 7674TIP3    H122979   1.095   1.070   1.276
 7674TIP3    H222980   1.230   1.132   1.246
 7675TIP3   OH222981   8.179   2.048   2.701
 7675TIP3    H122982   8.096   2.080   2.736
 7675TIP3    H222983   8.197   1.969   2.752
 7676TIP3   OH222984   5.314   5.533   6.660
 7676TIP3    H122985   5.378   5.526   6.590
 7676TIP3    H222986   5.259   5.455   6.651
 7677TIP3   OH222987   2.511   3.820   4.667
 7677TIP3    H122988   2.595   3.821   4.622
 7677TIP3    H222989   2.454   3.877   4.615
 7678TIP3   OH222990   7.512   7.462   1.163
 7678TIP3    H122991   7.452   7.479   1.236
 7678TIP3    H222992   7.482   7.519   1.093
 7679TIP3   OH222993   3.301   7.415   6.421
 7679TIP3    H122994   3.234   7.422   6.488
 7679TIP3    H222995   3.319   7.321   6.415
 7680TIP3   OH222996   1.893   5.378   2.139
 7680TIP3    H122997   1.929   5.301   2.095
 7680TIP3    H222998   1.799   5.364   2.140
 7681TIP3   OH222999   3.110   2.933   2.813
 7681TIP3    H123000   3.053   2.997   2.854
 7681TIP3    H223001   3.090   2.851   2.858
 7682TIP3   OH223002   2.472   2.561   4.965
 7682TIP3    H123003   2.392   2.523   5.001
 7682TIP3    H223004   2.454   2.568   4.871
 7683TIP3   OH223005   5.777   7.193   1.738
 7683TIP3    H123006   5.817   7.253   1.674
 7683TIP3    H223007   5.733   7.251   1.801
 7684TIP3   OH223008   3.689   7.720   1.133
 7684TIP3    H123009   3.662   7.804   1.171
 7684TIP3    H223010   3.770   7.697   1.178
 7685TIP3   OH223011   3.294   3.971   2.342
 7685TIP3    H123012   3.363   3.905   2.342
 7685TIP3    H223013   3.306   4.018   2.424
 7686TIP3   OH223014   3.290   4.998   2.683
 7686TIP3    H123015   3.258   5.016   2.595
 7686TIP3    H223016   3.228   4.933   2.718
 7687TIP3   OH223017   4.244   5.781   3.338
 7687TIP3    H123018   4.306   5.854   3.332
 7687TIP3    H223019   4.158   5.822   3.331
 7688TIP3   OH223020   7.444   6.336   4.727
 7688TIP3    H123021   7.523   6.302   4.769
 7688TIP3    H223022   7.474   6.409   4.673
 7689TIP3   OH223023   4.887   3.283   4.358
 7689TIP3    H123024   4.893   3.377   4.371
 7689TIP3    H223025   4.931   3.245   4.434
 7690TIP3   OH223026   6.603   0.175   5.565
 7690TIP3    H123027   6.538   0.245   5.573
 7690TIP3    H223028   6.679   0.208   5.612
 7691TIP3   OH223029   4.593   5.046   0.787
 7691TIP3    H123030   4.676   5.071   0.747
 7691TIP3    H223031   4.531   5.045   0.714
 7692TIP3   OH223032   2.418   1.481   0.746
 7692TIP3    H123033   2.503   1.490   0.703
 7692TIP3    H223034   2.355   1.471   0.674
 7693TIP3   OH223035   0.676   3.983   0.289
 7693TIP3    H123036   0.742   4.008   0.224
 7693TIP3    H223037   0.615   3.926   0.241
 7694TIP3   OH223038   7.844   4.659   0.511
 7694TIP3    H123039   7.854   4.701   0.425
 7694TIP3    H223040   7.871   4.727   0.574
 7695TIP3   OH223041   2.026   2.687   1.379
 7695TIP3    H123042   2.095   2.666   1.441
 7695TIP3    H223043   1.963   2.615   1.387
 7696TIP3   OH223044   6.352   5.215   5.697
 7696TIP3    H123045   6.298   5.203   5.775
 7696TIP3    H223046   6.348   5.309   5.679
 7697TIP3   OH223047   5.897   3.931   4.327
 7697TIP3    H123048   5.823   3.942   4.386
 7697TIP3    H223049   5.857   3.926   4.240
 7698TIP3   OH223050   3.760   4.467   1.679
 7698TIP3    H123051   3.801   4.547   1.647
 7698TIP3    H223052   3.798   4.397   1.625
 7699TIP3   OH223053   7.436   0.959   4.771
 7699TIP3    H123054   7.446   0.865   4.787
 7699TIP3    H223055   7.525   0.993   4.767
 7700TIP3   OH223056   4.290   3.123   5.614
 7700TIP3    H123057   4.266   3.186   5.545
 7700TIP3    H223058   4.371   3.158   5.651
 7701TIP3   OH223059   7.283   7.341   3.661
 7701TIP3    H123060   7.319   7.296   3.584
 7701TIP3    H223061   7.242   7.271   3.712
 7702TIP3   OH223062   7.889   7.196   6.661
 7702TIP3    H123063   7.865   7.199   6.754
 7702TIP3    H223064   7.932   7.111   6.650
 7703TIP3   OH223065   2.784   3.437   0.349
 7703TIP3    H123066   2.724   3.512   0.342
 7703TIP3    H223067   2.772   3.405   0.438
 7704TIP3   OH223068   1.600   7.466   0.082
 7704TIP3    H123069   1.651   7.442   0.159
 7704TIP3    H223070   1.644   7.422   0.009
 7705TIP3   OH223071   2.724   5.463   3.320
 7705TIP3    H123072   2.750   5.476   3.229
 7705TIP3    H223073   2.629   5.476   3.320
 7706TIP3   OH223074   3.092   5.975   3.025
 7706TIP3    H123075   3.130   6.046   2.973
 7706TIP3    H223076   3.153   5.902   3.014
 7707TIP3   OH223077   7.202   1.654   2.512
 7707TIP3    H123078   7.259   1.694   2.447
 7707TIP3    H223079   7.145   1.725   2.542
 7708TIP3   OH223080   5.747   1.695   6.498
 7708TIP3    H123081   5.693   1.659   6.568
 7708TIP3    H223082   5.784   1.775   6.534
 7709TIP3   OH223083   8.026   2.741   1.331
 7709TIP3    H123084   7.939   2.775   1.311
 7709TIP3    H223085   8.041   2.768   1.422
 7710TIP3   OH223086   0.305   1.150   4.961
 7710TIP3    H123087   0.379   1.138   4.901
 7710TIP3    H223088   0.270   1.061   4.972
 7711TIP3   OH223089   7.505   3.443   1.465
 7711TIP3    H123090   7.596   3.434   1.435
 7711TIP3    H223091   7.478   3.529   1.435
 7712TIP3   OH223092   6.935   6.516   3.886
 7712TIP3    H123093   6.897   6.528   3.973
 7712TIP3    H223094   7.010   6.576   3.884
 7713TIP3   OH223095   6.156   3.798   3.639
 7713TIP3    H123096   6.153   3.791   3.544
 7713TIP3    H223097   6.214   3.727   3.667
 7714TIP3   OH223098   0.706   7.069   5.809
 7714TIP3    H123099   0.650   7.091   5.884
 7714TIP3    H223100   0.768   7.142   5.803
 7715TIP3   OH223101   3.105   1.446   1.275
 7715TIP3    H123102   3.155   1.365   1.290
 7715TIP3    H223103   3.160   1.515   1.313
 7716TIP3   OH223104   3.112   3.155   4.714
 7716TIP3    H123105   3.140   3.216   4.783
 7716TIP3    H223106   3.016   3.152   4.723
 7717TIP3   OH223107   0.295   3.338   5.258
 7717TIP3    H123108   0.278   3.291   5.177
 7717TIP3    H223109   0.261   3.426   5.243
 7718TIP3   OH223110   7.316   2.510   1.634
 7718TIP3    H123111   7.369   2.570   1.685
 7718TIP3    H223112   7.262   2.464   1.699
 7719TIP3   OH223113   3.485   3.639   1.316
 7719TIP3    H123114   3.441   3.559   1.345
 7719TIP3    H223115   3.578   3.621   1.327
 7720TIP3   OH223116   2.486   7.424   6.315
 7720TIP3    H123117   2.438   7.506   6.330
 7720TIP3    H223118   2.495   7.386   6.402
 7721TIP3   OH223119   1.378   1.589   1.220
 7721TIP3    H123120   1.386   1.618   1.311
 7721TIP3    H223121   1.431   1.651   1.171
 7722TIP3   OH223122   5.979   4.004   0.288
 7722TIP3    H123123   5.969   3.917   0.325
 7722TIP3    H223124   6.072   4.008   0.262
 7723TIP3   OH223125   3.192   5.541   4.153
 7723TIP3    H123126   3.270   5.559   4.206
 7723TIP3    H223127   3.123   5.523   4.217
 7724TIP3   OH223128   8.022   6.759   3.275
 7724TIP3    H123129   7.974   6.771   3.357
 7724TIP3    H223130   7.993   6.674   3.242
 7725TIP3   OH223131   3.885   5.417   5.407
 7725TIP3    H123132   3.953   5.437   5.471
 7725TIP3    H223133   3.917   5.338   5.363
 7726TIP3   OH223134   7.128   1.340   3.331
 7726TIP3    H123135   7.201   1.340   3.269
 7726TIP3    H223136   7.099   1.249   3.334
 7727TIP3   OH223137   0.041   3.340   6.429
 7727TIP3    H123138   0.110   3.351   6.495
 7727TIP3    H223139   0.082   3.291   6.359
 7728TIP3   OH223140   1.728   6.005   3.995
 7728TIP3    H123141   1.649   5.982   3.947
 7728TIP3    H223142   1.728   6.101   3.997
 7729TIP3   OH223143   8.374   3.868   2.304
 7729TIP3    H123144   8.302   3.930   2.295
 7729TIP3    H223145   8.338   3.797   2.357
 7730TIP3   OH223146   0.976   0.108   5.791
 7730TIP3    H123147   1.058   0.081   5.750
 7730TIP3    H223148   1.001   0.177   5.852
 7731TIP3   OH223149   3.046   6.765   2.754
 7731TIP3    H123150   3.040   6.754   2.659
 7731TIP3    H223151   2.993   6.843   2.773
 7732TIP3   OH223152   8.076   2.647   1.945
 7732TIP3    H123153   8.119   2.722   1.986
 7732TIP3    H223154   8.128   2.629   1.867
 7733TIP3   OH223155   5.701   4.784   0.448
 7733TIP3    H123156   5.778   4.805   0.394
 7733TIP3    H223157   5.627   4.787   0.386
 7734TIP3   OH223158   3.616   5.262   1.457
 7734TIP3    H123159   3.625   5.336   1.518
 7734TIP3    H223160   3.523   5.259   1.437
 7735TIP3   OH223161   4.040   1.866   6.144
 7735TIP3    H123162   3.965   1.811   6.119
 7735TIP3    H223163   4.064   1.912   6.064
 7736TIP3   OH223164   5.873   2.266   6.147
 7736TIP3    H123165   5.967   2.268   6.127
 7736TIP3    H223166   5.867   2.221   6.231
 7737TIP3   OH223167   2.720   3.189   4.617
 7737TIP3    H123168   2.741   3.118   4.677
 7737TIP3    H223169   2.779   3.260   4.643
 7738TIP3   OH223170   4.509   7.561   3.951
 7738TIP3    H123171   4.486   7.527   3.865
 7738TIP3    H223172   4.542   7.485   3.999
 7739TIP3   OH223173   2.894   4.169   3.707
 7739TIP3    H123174   2.918   4.193   3.618
 7739TIP3    H223175   2.801   4.145   3.702
 7740TIP3   OH223176   4.845   6.345   0.032
 7740TIP3    H123177   4.758   6.341  -0.007
 7740TIP3    H223178   4.831   6.324   0.125
 7741TIP3   OH223179   0.667   5.429   1.149
 7741TIP3    H123180   0.609   5.355   1.131
 7741TIP3    H223181   0.728   5.430   1.075
 7742TIP3   OH223182   0.820   3.863   2.537
 7742TIP3    H123183   0.725   3.853   2.534
 7742TIP3    H223184   0.845   3.883   2.448
 7743TIP3   OH223185   4.961   7.461   1.713
 7743TIP3    H123186   5.009   7.522   1.656
 7743TIP3    H223187   4.877   7.505   1.729
 7744TIP3   OH223188   5.360   7.757   1.919
 7744TIP3    H123189   5.416   7.835   1.909
 7744TIP3    H223190   5.421   7.683   1.913
 7745TIP3   OH223191   7.544   4.944   2.571
 7745TIP3    H123192   7.546   4.880   2.499
 7745TIP3    H223193   7.632   4.941   2.608
 7746TIP3   OH223194   3.259   0.908   2.657
 7746TIP3    H123195   3.175   0.933   2.695
 7746TIP3    H223196   3.283   0.982   2.602
 7747TIP3   OH223197   7.281   2.193   5.244
 7747TIP3    H123198   7.223   2.246   5.190
 7747TIP3    H223199   7.333   2.143   5.181
 7748TIP3   OH223200   4.255   1.071   5.044
 7748TIP3    H123201   4.248   0.982   5.009
 7748TIP3    H223202   4.169   1.110   5.029
 7749TIP3   OH223203   7.760   3.515   0.330
 7749TIP3    H123204   7.841   3.500   0.280
 7749TIP3    H223205   7.720   3.428   0.336
 7750TIP3   OH223206   1.580   1.029   4.056
 7750TIP3    H123207   1.568   0.934   4.056
 7750TIP3    H223208   1.513   1.061   3.996
 7751TIP3   OH223209   1.521   1.425   4.823
 7751TIP3    H123210   1.509   1.511   4.863
 7751TIP3    H223211   1.485   1.363   4.887
 7752TIP3   OH223212   3.237   0.067   1.951
 7752TIP3    H123213   3.209  -0.018   1.985
 7752TIP3    H223214   3.331   0.072   1.970
 7753TIP3   OH223215   2.714   7.332   2.203
 7753TIP3    H123216   2.718   7.394   2.131
 7753TIP3    H223217   2.651   7.370   2.265
 7754TIP3   OH223218   3.450   0.081   3.666
 7754TIP3    H123219   3.442   0.176   3.663
 7754TIP3    H223220   3.429   0.058   3.756
 7755TIP3   OH223221   4.924   5.398   6.380
 7755TIP3    H123222   4.903   5.334   6.312
 7755TIP3    H223223   4.953   5.345   6.455
 7756TIP3   OH223224   2.334   2.222   2.974
 7756TIP3    H123225   2.345   2.134   2.937
 7756TIP3    H223226   2.292   2.272   2.904
 7757TIP3   OH223227   0.511   6.497   3.238
 7757TIP3    H123228   0.506   6.545   3.155
 7757TIP3    H223229   0.460   6.550   3.299
 7758TIP3   OH223230   7.799   1.496   4.309
 7758TIP3    H123231   7.854   1.420   4.328
 7758TIP3    H223232   7.858   1.570   4.315
 7759TIP3   OH223233   1.911   1.679   0.190
 7759TIP3    H123234   1.819   1.662   0.172
 7759TIP3    H223235   1.948   1.594   0.213
 7760TIP3   OH223236   5.800   6.985   6.579
 7760TIP3    H123237   5.729   6.920   6.584
 7760TIP3    H223238   5.798   7.028   6.665
 7761TIP3   OH223239   4.820   3.917   3.733
 7761TIP3    H123240   4.901   3.866   3.740
 7761TIP3    H223241   4.845   4.005   3.759
 7762TIP3   OH223242   8.034   3.407   4.818
 7762TIP3    H123243   8.114   3.459   4.821
 7762TIP3    H223244   8.031   3.370   4.730
 7763TIP3   OH223245   6.840   5.950   2.270
 7763TIP3    H123246   6.815   5.948   2.362
 7763TIP3    H223247   6.826   5.860   2.239
 7764TIP3   OH223248   1.771   1.852   5.014
 7764TIP3    H123249   1.840   1.806   5.062
 7764TIP3    H223250   1.778   1.943   5.042
 7765TIP3   OH223251   7.623   2.116   1.075
 7765TIP3    H123252   7.593   2.144   0.989
 7765TIP3    H223253   7.638   2.022   1.066
 7766TIP3   OH223254   1.189   5.297   1.252
 7766TIP3    H123255   1.174   5.242   1.175
 7766TIP3    H223256   1.102   5.332   1.272
 7767TIP3   OH223257   1.655   0.722   3.848
 7767TIP3    H123258   1.560   0.715   3.852
 7767TIP3    H223259   1.680   0.672   3.771
 7768TIP3   OH223260   2.730   5.909   5.104
 7768TIP3    H123261   2.655   5.872   5.059
 7768TIP3    H223262   2.706   5.906   5.197
 7769TIP3   OH223263   0.429   3.106   5.065
 7769TIP3    H123264   0.448   3.111   4.971
 7769TIP3    H223265   0.334   3.101   5.071
 7770TIP3   OH223266   4.812   1.771   3.987
 7770TIP3    H123267   4.766   1.710   3.930
 7770TIP3    H223268   4.775   1.857   3.965
 7771TIP3   OH223269   6.501   5.308   6.733
 7771TIP3    H123270   6.457   5.386   6.765
 7771TIP3    H223271   6.439   5.270   6.670
 7772TIP3   OH223272   0.228   5.850   0.203
 7772TIP3    H123273   0.245   5.804   0.285
 7772TIP3    H223274   0.267   5.937   0.216
 7773TIP3   OH223275   5.331   2.448   4.546
 7773TIP3    H123276   5.345   2.358   4.517
 7773TIP3    H223277   5.401   2.463   4.609
 7774TIP3   OH223278   2.253   6.308   3.114
 7774TIP3    H123279   2.308   6.367   3.063
 7774TIP3    H223280   2.194   6.367   3.162
 7775TIP3   OH223281   7.024   3.362   6.395
 7775TIP3    H123282   6.942   3.372   6.443
 7775TIP3    H223283   7.073   3.442   6.413
 7776TIP3   OH223284   3.863   0.632   4.925
 7776TIP3    H123285   3.878   0.607   5.016
 7776TIP3    H223286   3.827   0.554   4.884
 7777TIP3   OH223287   5.364   2.985   2.990
 7777TIP3    H123288   5.370   2.948   3.078
 7777TIP3    H223289   5.293   2.936   2.949
 7778TIP3   OH223290   4.375   1.633   4.706
 7778TIP3    H123291   4.439   1.563   4.701
 7778TIP3    H223292   4.305   1.598   4.762
 7779TIP3   OH223293   4.868   3.177   3.547
 7779TIP3    H123294   4.940   3.199   3.488
 7779TIP3    H223295   4.789   3.209   3.502
 7780TIP3   OH223296   6.289   4.073   4.219
 7780TIP3    H123297   6.277   4.147   4.279
 7780TIP3    H223298   6.263   4.107   4.133
 7781TIP3   OH223299   5.739   7.753   6.351
 7781TIP3    H123300   5.790   7.770   6.430
 7781TIP3    H223301   5.654   7.722   6.384
 7782TIP3   OH223302   5.327   3.988   6.713
 7782TIP3    H123303   5.353   3.960   6.625
 7782TIP3    H223304   5.320   4.083   6.707
 7783TIP3   OH223305   6.011   6.773   4.420
 7783TIP3    H123306   5.990   6.679   4.423
 7783TIP3    H223307   6.068   6.787   4.495
 7784TIP3   OH223308   1.903   5.567   3.789
 7784TIP3    H123309   1.844   5.642   3.778
 7784TIP3    H223310   1.892   5.517   3.709
 7785TIP3   OH223311   0.969   6.184   2.897
 7785TIP3    H123312   0.920   6.181   2.814
 7785TIP3    H223313   0.948   6.102   2.940
 7786TIP3   OH223314   0.953   1.596   5.515
 7786TIP3    H123315   0.896   1.526   5.484
 7786TIP3    H223316   0.893   1.664   5.546
 7787TIP3   OH223317   1.542   0.557   0.657
 7787TIP3    H123318   1.533   0.607   0.576
 7787TIP3    H223319   1.514   0.618   0.726
 7788TIP3   OH223320   3.347   0.400   0.415
 7788TIP3    H123321   3.440   0.380   0.399
 7788TIP3    H223322   3.305   0.384   0.331
 7789TIP3   OH223323   1.336   2.110   3.975
 7789TIP3    H123324   1.396   2.073   3.911
 7789TIP3    H223325   1.249   2.086   3.944
 7790TIP3   OH223326   1.083   0.084   2.006
 7790TIP3    H123327   1.125   0.025   1.943
 7790TIP3    H223328   1.027   0.027   2.058
 7791TIP3   OH223329   3.753   6.466   4.949
 7791TIP3    H123330   3.848   6.450   4.952
 7791TIP3    H223331   3.725   6.461   5.040
 7792TIP3   OH223332   6.876   7.018   2.432
 7792TIP3    H123333   6.891   7.101   2.477
 7792TIP3    H223334   6.783   7.000   2.445
 7793TIP3   OH223335   2.544   2.924   5.751
 7793TIP3    H123336   2.457   2.884   5.752
 7793TIP3    H223337   2.605   2.850   5.750
 7794TIP3   OH223338   5.474   7.321   6.722
 7794TIP3    H123339   5.423   7.330   6.641
 7794TIP3    H223340   5.564   7.305   6.692
 7795TIP3   OH223341   5.933   0.761   1.426
 7795TIP3    H123342   5.908   0.846   1.390
 7795TIP3    H223343   5.936   0.774   1.520
 7796TIP3   OH223344   5.093   7.801   0.694
 7796TIP3    H123345   5.009   7.845   0.709
 7796TIP3    H223346   5.135   7.800   0.780
 7797TIP3   OH223347   5.039   2.576   1.581
 7797TIP3    H123348   5.074   2.648   1.633
 7797TIP3    H223349   5.035   2.610   1.492
 7798TIP3   OH223350   3.993   1.060   5.429
 7798TIP3    H123351   4.049   1.086   5.501
 7798TIP3    H223352   3.926   1.128   5.425
 7799TIP3   OH223353   1.391   6.948   3.784
 7799TIP3    H123354   1.364   6.857   3.795
 7799TIP3    H223355   1.314   6.999   3.810
 7800TIP3   OH223356   8.063   0.253   5.530
 7800TIP3    H123357   8.022   0.202   5.461
 7800TIP3    H223358   8.143   0.204   5.552
 7801TIP3   OH223359   3.845   0.845   2.976
 7801TIP3    H123360   3.906   0.918   2.991
 7801TIP3    H223361   3.810   0.861   2.889
 7802TIP3   OH223362   1.396   7.785   3.809
 7802TIP3    H123363   1.442   7.724   3.752
 7802TIP3    H223364   1.356   7.849   3.750
 7803TIP3   OH223365   6.522   5.342   0.605
 7803TIP3    H123366   6.530   5.330   0.700
 7803TIP3    H223367   6.592   5.288   0.568
 7804TIP3   OH223368   2.824   7.791   0.116
 7804TIP3    H123369   2.830   7.880   0.150
 7804TIP3    H223370   2.806   7.802   0.022
 7805TIP3   OH223371   7.160   0.385   4.225
 7805TIP3    H123372   7.152   0.290   4.234
 7805TIP3    H223373   7.251   0.399   4.198
 7806TIP3   OH223374   4.638   1.031   2.018
 7806TIP3    H123375   4.695   1.053   2.092
 7806TIP3    H223376   4.658   0.940   1.999
 7807TIP3   OH223377   8.007   1.087   0.652
 7807TIP3    H123378   8.093   1.045   0.641
 7807TIP3    H223379   8.027   1.174   0.684
 7808TIP3   OH223380   0.676   7.612   2.907
 7808TIP3    H123381   0.664   7.701   2.874
 7808TIP3    H223382   0.590   7.571   2.900
 7809TIP3   OH223383   2.378   0.878   3.436
 7809TIP3    H123384   2.326   0.814   3.386
 7809TIP3    H223385   2.325   0.894   3.514
 7810TIP3   OH223386   6.391   2.661   4.703
 7810TIP3    H123387   6.420   2.688   4.789
 7810TIP3    H223388   6.395   2.565   4.705
 7811TIP3   OH223389   4.691   3.473   2.376
 7811TIP3    H123390   4.679   3.551   2.322
 7811TIP3    H223391   4.757   3.499   2.440
 7812TIP3   OH223392   4.723   3.777   1.315
 7812TIP3    H123393   4.772   3.715   1.261
 7812TIP3    H223394   4.661   3.818   1.255
 7813TIP3   OH223395   8.274   7.087   5.501
 7813TIP3    H123396   8.351   7.119   5.455
 7813TIP3    H223397   8.279   7.127   5.588
 7814TIP3   OH223398   4.872   0.291   5.544
 7814TIP3    H123399   4.931   0.216   5.552
 7814TIP3    H223400   4.845   0.309   5.634
 7815TIP3   OH223401   7.269   2.871   2.830
 7815TIP3    H123402   7.176   2.860   2.850
 7815TIP3    H223403   7.300   2.783   2.811
 7816TIP3   OH223404   5.805   1.048   1.080
 7816TIP3    H123405   5.842   1.123   1.127
 7816TIP3    H223406   5.787   0.983   1.148
 7817TIP3   OH223407   8.032   6.998   2.898
 7817TIP3    H123408   8.014   6.941   2.823
 7817TIP3    H223409   8.079   7.073   2.860
 7818TIP3   OH223410   2.156   7.519   0.549
 7818TIP3    H123411   2.177   7.432   0.581
 7818TIP3    H223412   2.180   7.578   0.620
 7819TIP3   OH223413   1.095   7.227   2.559
 7819TIP3    H123414   1.126   7.137   2.569
 7819TIP3    H223415   1.107   7.246   2.466
 7820TIP3   OH223416   2.004   1.072   2.789
 7820TIP3    H123417   1.934   1.118   2.835
 7820TIP3    H223418   2.026   0.999   2.846
 7821TIP3   OH223419   2.010   6.504   2.038
 7821TIP3    H123420   2.092   6.486   1.991
 7821TIP3    H223421   1.962   6.562   1.980
 7822TIP3   OH223422   1.075   5.056   2.086
 7822TIP3    H123423   0.992   5.085   2.122
 7822TIP3    H223424   1.104   5.129   2.031
 7823TIP3   OH223425   6.145   2.549   4.461
 7823TIP3    H123426   6.162   2.500   4.380
 7823TIP3    H223427   6.063   2.596   4.443
 7824TIP3   OH223428   7.617   0.574   4.761
 7824TIP3    H123429   7.662   0.626   4.828
 7824TIP3    H223430   7.569   0.638   4.709
 7825TIP3   OH223431   4.670   2.743   2.751
 7825TIP3    H123432   4.753   2.776   2.716
 7825TIP3    H223433   4.611   2.818   2.748
 7826TIP3   OH223434   0.677   6.666   3.709
 7826TIP3    H123435   0.599   6.614   3.690
 7826TIP3    H223436   0.738   6.604   3.749
 7827TIP3   OH223437   5.536   1.413   5.137
 7827TIP3    H123438   5.482   1.366   5.072
 7827TIP3    H223439   5.608   1.353   5.156
 7828TIP3   OH223440   4.310   2.881   3.447
 7828TIP3    H123441   4.395   2.861   3.486
 7828TIP3    H223442   4.326   2.881   3.352
 7829TIP3   OH223443   2.316   1.401   2.438
 7829TIP3    H123444   2.326   1.492   2.465
 7829TIP3    H223445   2.263   1.361   2.506
 7830TIP3   OH223446   1.615   6.078   1.135
 7830TIP3    H123447   1.557   6.003   1.123
 7830TIP3    H223448   1.577   6.126   1.209
 7831TIP3   OH223449   3.505   3.038   1.225
 7831TIP3    H123450   3.479   3.063   1.136
 7831TIP3    H223451   3.434   2.981   1.255
 7832TIP3   OH223452   5.250   1.973   0.370
 7832TIP3    H123453   5.167   1.930   0.392
 7832TIP3    H223454   5.301   1.905   0.326
 7833TIP3   OH223455   6.164   2.434   5.521
 7833TIP3    H123456   6.153   2.439   5.426
 7833TIP3    H223457   6.100   2.369   5.550
 7834TIP3   OH223458   0.107   1.544   3.199
 7834TIP3    H123459   0.141   1.472   3.146
 7834TIP3    H223460   0.151   1.622   3.164
 7835TIP3   OH223461   6.858   4.035   6.722
 7835TIP3    H123462   6.779   4.001   6.682
 7835TIP3    H223463   6.921   4.041   6.651
 7836TIP3   OH223464   0.473   3.914   5.488
 7836TIP3    H123465   0.461   3.840   5.547
 7836TIP3    H223466   0.478   3.874   5.401
 7837TIP3   OH223467   1.682   5.070   2.593
 7837TIP3    H123468   1.611   5.101   2.649
 7837TIP3    H223469   1.637   5.023   2.523
 7838TIP3   OH223470   1.037   1.908   2.179
 7838TIP3    H123471   1.069   1.888   2.267
 7838TIP3    H223472   0.958   1.961   2.193
 7839TIP3   OH223473   0.425   0.029   6.223
 7839TIP3    H123474   0.355  -0.017   6.270
 7839TIP3    H223475   0.457   0.094   6.286
 7840TIP3   OH223476   3.448   1.788   6.244
 7840TIP3    H123477   3.503   1.723   6.288
 7840TIP3    H223478   3.369   1.794   6.299
 7841TIP3   OH223479   6.055   6.618   3.438
 7841TIP3    H123480   6.117   6.581   3.501
 7841TIP3    H223481   6.022   6.543   3.390
 7842TIP3   OH223482   1.418   4.220   1.463
 7842TIP3    H123483   1.465   4.284   1.410
 7842TIP3    H223484   1.365   4.171   1.400
 7843TIP3   OH223485   3.362   7.128   6.438
 7843TIP3    H123486   3.414   7.098   6.513
 7843TIP3    H223487   3.414   7.101   6.362
 7844TIP3   OH223488   7.153   2.404   4.247
 7844TIP3    H123489   7.060   2.412   4.270
 7844TIP3    H223490   7.189   2.347   4.315
 7845TIP3   OH223491   6.053   0.344   4.253
 7845TIP3    H123492   6.085   0.253   4.252
 7845TIP3    H223493   6.130   0.396   4.276
 7846TIP3   OH223494   4.860   5.953   0.154
 7846TIP3    H123495   4.786   5.943   0.094
 7846TIP3    H223496   4.825   6.005   0.226
 7847TIP3   OH223497   6.230   7.442   0.282
 7847TIP3    H123498   6.264   7.517   0.331
 7847TIP3    H223499   6.170   7.399   0.342
 7848TIP3   OH223500   1.836   3.804   2.757
 7848TIP3    H123501   1.908   3.746   2.781
 7848TIP3    H223502   1.817   3.854   2.836
 7849TIP3   OH223503   5.174   3.295   4.720
 7849TIP3    H123504   5.158   3.208   4.686
 7849TIP3    H223505   5.246   3.329   4.666
 7850TIP3   OH223506   0.138   3.274   1.713
 7850TIP3    H123507   0.102   3.363   1.714
 7850TIP3    H223508   0.138   3.249   1.621
 7851TIP3   OH223509   1.160   7.204   6.258
 7851TIP3    H123510   1.127   7.233   6.174
 7851TIP3    H223511   1.228   7.267   6.280
 7852TIP3   OH223512   2.417   7.765   6.167
 7852TIP3    H123513   2.415   7.838   6.229
 7852TIP3    H223514   2.327   7.732   6.167
 7853TIP3   OH223515   1.250   6.844   3.194
 7853TIP3    H123516   1.254   6.851   3.099
 7853TIP3    H223517   1.189   6.912   3.222
 7854TIP3   OH223518   3.522   2.981   2.894
 7854TIP3    H123519   3.559   2.962   2.808
 7854TIP3    H223520   3.512   2.896   2.935
 7855TIP3   OH223521   0.308   6.866   3.203
 7855TIP3    H123522   0.343   6.955   3.213
 7855TIP3    H223523   0.221   6.871   3.244
 7856TIP3   OH223524   4.318   5.452   1.960
 7856TIP3    H123525   4.403   5.423   1.995
 7856TIP3    H223526   4.300   5.534   2.006
 7857TIP3   OH223527   2.438   5.661   4.239
 7857TIP3    H123528   2.382   5.683   4.164
 7857TIP3    H223529   2.527   5.662   4.203
 7858TIP3   OH223530   2.445   5.260   5.891
 7858TIP3    H123531   2.409   5.221   5.970
 7858TIP3    H223532   2.374   5.253   5.827
 7859TIP3   OH223533   7.838   5.422   3.659
 7859TIP3    H123534   7.816   5.461   3.744
 7859TIP3    H223535   7.820   5.329   3.671
 7860TIP3   OH223536   6.004   3.845   0.547
 7860TIP3    H123537   5.970   3.759   0.571
 7860TIP3    H223538   6.089   3.826   0.507
 7861TIP3   OH223539   5.497   4.815   4.299
 7861TIP3    H123540   5.419   4.834   4.246
 7861TIP3    H223541   5.563   4.788   4.235
 7862TIP3   OH223542   2.175   3.128   1.748
 7862TIP3    H123543   2.219   3.195   1.697
 7862TIP3    H223544   2.242   3.096   1.809
 7863TIP3   OH223545   1.276   2.752   6.103
 7863TIP3    H123546   1.322   2.765   6.020
 7863TIP3    H223547   1.186   2.780   6.086
 7864TIP3   OH223548   4.348   7.023   1.088
 7864TIP3    H123549   4.359   6.929   1.104
 7864TIP3    H223550   4.280   7.027   1.020
 7865TIP3   OH223551   5.719   1.811   0.252
 7865TIP3    H123552   5.733   1.896   0.294
 7865TIP3    H223553   5.797   1.761   0.274
 7866TIP3   OH223554   1.233   7.100   4.827
 7866TIP3    H123555   1.274   7.138   4.749
 7866TIP3    H223556   1.162   7.161   4.847
 7867TIP3   OH223557   0.491   1.148   0.625
 7867TIP3    H123558   0.492   1.222   0.564
 7867TIP3    H223559   0.419   1.168   0.684
 7868TIP3   OH223560   1.468   0.321   2.795
 7868TIP3    H123561   1.382   0.282   2.816
 7868TIP3    H223562   1.504   0.346   2.880
 7869TIP3   OH223563   6.777   4.430   4.335
 7869TIP3    H123564   6.813   4.516   4.312
 7869TIP3    H223565   6.806   4.373   4.265
 7870TIP3   OH223566   4.734   4.819   0.104
 7870TIP3    H123567   4.746   4.724   0.108
 7870TIP3    H223568   4.714   4.837   0.012
 7871TIP3   OH223569   5.814   0.955   4.055
 7871TIP3    H123570   5.813   0.877   4.110
 7871TIP3    H223571   5.723   0.967   4.029
 7872TIP3   OH223572   5.077   1.181   1.201
 7872TIP3    H123573   5.114   1.265   1.175
 7872TIP3    H223574   5.144   1.117   1.178
 7873TIP3   OH223575   1.649   3.912   2.101
 7873TIP3    H123576   1.709   3.839   2.113
 7873TIP3    H223577   1.705   3.990   2.107
 7874TIP3   OH223578   1.902   3.332   0.834
 7874TIP3    H123579   1.825   3.374   0.872
 7874TIP3    H223580   1.971   3.346   0.898
 7875TIP3   OH223581   4.970   6.796   1.212
 7875TIP3    H123582   4.892   6.778   1.264
 7875TIP3    H223583   4.955   6.751   1.129
 7876TIP3   OH223584   1.344   0.724   0.447
 7876TIP3    H123585   1.282   0.660   0.484
 7876TIP3    H223586   1.292   0.773   0.383
 7877TIP3   OH223587   4.701   6.532   3.092
 7877TIP3    H123588   4.644   6.569   3.024
 7877TIP3    H223589   4.652   6.545   3.173
 7878TIP3   OH223590   0.754   4.007   2.956
 7878TIP3    H123591   0.826   4.043   3.007
 7878TIP3    H223592   0.774   4.033   2.866
 7879TIP3   OH223593   7.824   4.721   6.388
 7879TIP3    H123594   7.732   4.698   6.377
 7879TIP3    H223595   7.856   4.660   6.454
 7880TIP3   OH223596   7.706   6.572   2.980
 7880TIP3    H123597   7.615   6.600   2.971
 7880TIP3    H223598   7.704   6.500   3.043
 7881TIP3   OH223599   8.152   6.838   0.558
 7881TIP3    H123600   8.113   6.870   0.477
 7881TIP3    H223601   8.080   6.799   0.606
 7882TIP3   OH223602   5.936   0.399   0.835
 7882TIP3    H123603   6.022   0.370   0.804
 7882TIP3    H223604   5.897   0.442   0.758
 7883TIP3   OH223605   6.520   1.040   4.853
 7883TIP3    H123606   6.608   1.014   4.880
 7883TIP3    H223607   6.470   1.044   4.934
 7884TIP3   OH223608   0.506   2.700   2.115
 7884TIP3    H123609   0.438   2.739   2.060
 7884TIP3    H223610   0.571   2.667   2.054
 7885TIP3   OH223611   5.498   0.174   1.619
 7885TIP3    H123612   5.531   0.084   1.627
 7885TIP3    H223613   5.505   0.193   1.525
 7886TIP3   OH223614   7.019   5.800   6.440
 7886TIP3    H123615   7.067   5.744   6.379
 7886TIP3    H223616   7.054   5.778   6.526
 7887TIP3   OH223617   1.230   0.712   5.971
 7887TIP3    H123618   1.321   0.684   5.976
 7887TIP3    H223619   1.231   0.804   5.997
 7888TIP3   OH223620   7.867   4.337   3.466
 7888TIP3    H123621   7.952   4.295   3.449
 7888TIP3    H223622   7.823   4.335   3.381
 7889TIP3   OH223623   7.390   3.569   0.233
 7889TIP3    H123624   7.316   3.628   0.215
 7889TIP3    H223625   7.432   3.605   0.311
 7890TIP3   OH223626   5.102   2.816   0.499
 7890TIP3    H123627   5.072   2.898   0.461
 7890TIP3    H223628   5.185   2.838   0.541
 7891TIP3   OH223629   1.627   3.521   5.917
 7891TIP3    H123630   1.651   3.444   5.970
 7891TIP3    H223631   1.644   3.494   5.827
 7892TIP3   OH223632   4.828   0.921   1.667
 7892TIP3    H123633   4.882   1.000   1.658
 7892TIP3    H223634   4.745   0.944   1.625
 7893TIP3   OH223635   7.039   2.545   1.406
 7893TIP3    H123636   7.019   2.598   1.483
 7893TIP3    H223637   7.132   2.524   1.414
 7894TIP3   OH223638   5.297   2.947   1.211
 7894TIP3    H123639   5.219   2.978   1.166
 7894TIP3    H223640   5.315   2.862   1.171
 7895TIP3   OH223641   7.146   7.611   6.305
 7895TIP3    H123642   7.106   7.649   6.226
 7895TIP3    H223643   7.138   7.517   6.293
 7896TIP3   OH223644   6.091   5.507   3.902
 7896TIP3    H123645   6.089   5.598   3.932
 7896TIP3    H223646   6.175   5.498   3.858
 7897TIP3   OH223647   0.587   7.280   2.683
 7897TIP3    H123648   0.660   7.314   2.632
 7897TIP3    H223649   0.601   7.185   2.685
 7898TIP3   OH223650   7.250   4.494   2.462
 7898TIP3    H123651   7.345   4.504   2.461
 7898TIP3    H223652   7.236   4.400   2.476
 7899TIP3   OH223653   1.503   7.613   1.222
 7899TIP3    H123654   1.578   7.626   1.165
 7899TIP3    H223655   1.526   7.658   1.303
 7900TIP3   OH223656   6.445   2.038   2.066
 7900TIP3    H123657   6.394   1.957   2.058
 7900TIP3    H223658   6.536   2.009   2.064
 7901TIP3   OH223659   4.885   6.427   5.619
 7901TIP3    H123660   4.791   6.410   5.621
 7901TIP3    H223661   4.897   6.509   5.666
 7902TIP3   OH223662   3.809   3.651   0.705
 7902TIP3    H123663   3.824   3.557   0.707
 7902TIP3    H223664   3.818   3.678   0.797
 7903TIP3   OH223665   0.469   5.169   4.406
 7903TIP3    H123666   0.390   5.137   4.448
 7903TIP3    H223667   0.468   5.129   4.319
 7904TIP3   OH223668   3.557   2.852   2.428
 7904TIP3    H123669   3.484   2.913   2.417
 7904TIP3    H223670   3.584   2.829   2.339
 7905TIP3   OH223671   8.250   0.896   5.591
 7905TIP3    H123672   8.339   0.901   5.625
 7905TIP3    H223673   8.244   0.809   5.551
 7906TIP3   OH223674   3.149   5.817   2.337
 7906TIP3    H123675   3.092   5.743   2.357
 7906TIP3    H223676   3.214   5.818   2.408
 7907TIP3   OH223677   8.186   1.648   2.365
 7907TIP3    H123678   8.227   1.730   2.390
 7907TIP3    H223679   8.168   1.657   2.271
 7908TIP3   OH223680   3.038   3.610   2.761
 7908TIP3    H123681   2.945   3.604   2.742
 7908TIP3    H223682   3.049   3.557   2.840
 7909TIP3   OH223683   7.264   3.363   1.557
 7909TIP3    H123684   7.214   3.307   1.498
 7909TIP3    H223685   7.345   3.382   1.509
 7910TIP3   OH223686   2.401   6.328   0.893
 7910TIP3    H123687   2.450   6.410   0.887
 7910TIP3    H223688   2.457   6.270   0.945
 7911TIP3   OH223689   6.493   0.915   6.498
 7911TIP3    H123690   6.444   0.862   6.560
 7911TIP3    H223691   6.478   0.872   6.413
 7912TIP3   OH223692   1.886   4.086   1.879
 7912TIP3    H123693   1.873   4.165   1.931
 7912TIP3    H223694   1.944   4.112   1.808
 7913TIP3   OH223695   4.705   6.634   4.886
 7913TIP3    H123696   4.704   6.640   4.790
 7913TIP3    H223697   4.627   6.683   4.913
 7914TIP3   OH223698   7.666   6.159   5.501
 7914TIP3    H123699   7.588   6.117   5.537
 7914TIP3    H223700   7.738   6.099   5.524
 7915TIP3   OH223701   0.220   6.372   4.807
 7915TIP3    H123702   0.213   6.447   4.867
 7915TIP3    H223703   0.278   6.311   4.852
 7916TIP3   OH223704   0.885   0.219   2.507
 7916TIP3    H123705   0.895   0.136   2.460
 7916TIP3    H223706   0.965   0.268   2.485
 7917TIP3   OH223707   0.625   4.340   0.241
 7917TIP3    H123708   0.721   4.346   0.236
 7917TIP3    H223709   0.603   4.264   0.186
 7918TIP3   OH223710   6.296   6.482   6.561
 7918TIP3    H123711   6.363   6.506   6.626
 7918TIP3    H223712   6.275   6.391   6.582
 7919TIP3   OH223713   6.938   4.909   2.877
 7919TIP3    H123714   6.994   4.939   2.805
 7919TIP3    H223715   6.972   4.822   2.899
 7920TIP3   OH223716   6.177   5.229   0.124
 7920TIP3    H123717   6.207   5.172   0.195
 7920TIP3    H223718   6.231   5.205   0.049
 7921TIP3   OH223719   2.905   0.827   0.906
 7921TIP3    H123720   2.848   0.764   0.863
 7921TIP3    H223721   2.977   0.774   0.941
 7922TIP3   OH223722   4.814   3.126   1.500
 7922TIP3    H123723   4.816   3.215   1.533
 7922TIP3    H223724   4.905   3.097   1.502
 7923TIP3   OH223725   2.271   0.553   3.199
 7923TIP3    H123726   2.349   0.539   3.145
 7923TIP3    H223727   2.198   0.523   3.145
 7924TIP3   OH223728   2.859   0.737   2.826
 7924TIP3    H123729   2.784   0.721   2.768
 7924TIP3    H223730   2.835   0.694   2.908
 7925TIP3   OH223731   1.263   5.044   0.635
 7925TIP3    H123732   1.317   5.011   0.707
 7925TIP3    H223733   1.221   4.965   0.600
 7926TIP3   OH223734   5.140   1.452   2.561
 7926TIP3    H123735   5.123   1.442   2.654
 7926TIP3    H223736   5.065   1.502   2.528
 7927TIP3   OH223737   7.042   6.754   5.626
 7927TIP3    H123738   6.992   6.681   5.590
 7927TIP3    H223739   7.121   6.757   5.573
 7928TIP3   OH223740   5.707   5.408   3.094
 7928TIP3    H123741   5.623   5.367   3.116
 7928TIP3    H223742   5.768   5.334   3.089
 7929TIP3   OH223743   1.515   6.514   4.843
 7929TIP3    H123744   1.607   6.505   4.819
 7929TIP3    H223745   1.477   6.428   4.828
 7930TIP3   OH223746   4.032   1.714   3.550
 7930TIP3    H123747   3.986   1.773   3.491
 7930TIP3    H223748   3.971   1.699   3.622
 7931TIP3   OH223749   2.196   7.054   2.530
 7931TIP3    H123750   2.142   6.975   2.539
 7931TIP3    H223751   2.276   7.024   2.487
 7932TIP3   OH223752   7.122   1.886   5.392
 7932TIP3    H123753   7.158   1.941   5.323
 7932TIP3    H223754   7.192   1.824   5.412
 7933TIP3   OH223755   0.035   6.695   6.652
 7933TIP3    H123756  -0.040   6.651   6.611
 7933TIP3    H223757   0.040   6.656   6.740
 7934TIP3   OH223758   1.087   1.153   0.512
 7934TIP3    H123759   0.995   1.145   0.537
 7934TIP3    H223760   1.099   1.247   0.497
 7935TIP3   OH223761   2.891   1.865   4.257
 7935TIP3    H123762   2.829   1.910   4.199
 7935TIP3    H223763   2.862   1.774   4.257
 7936TIP3   OH223764   6.289   3.731   2.874
 7936TIP3    H123765   6.275   3.638   2.892
 7936TIP3    H223766   6.213   3.774   2.913
 7937TIP3   OH223767   4.289   3.093   1.190
 7937TIP3    H123768   4.336   3.010   1.197
 7937TIP3    H223769   4.198   3.069   1.172
 7938TIP3   OH223770   5.349   6.711   5.718
 7938TIP3    H123771   5.262   6.734   5.685
 7938TIP3    H223772   5.402   6.789   5.702
 7939TIP3   OH223773   4.820   7.406   5.921
 7939TIP3    H123774   4.812   7.393   6.016
 7939TIP3    H223775   4.804   7.319   5.884
 7940TIP3   OH223776   2.041   2.124   3.408
 7940TIP3    H123777   1.992   2.101   3.329
 7940TIP3    H223778   2.088   2.043   3.431
 7941TIP3   OH223779   7.264   4.253   6.759
 7941TIP3    H123780   7.311   4.175   6.789
 7941TIP3    H223781   7.275   4.252   6.664
 7942TIP3   OH223782   5.053   6.837   6.269
 7942TIP3    H123783   5.052   6.920   6.222
 7942TIP3    H223784   5.145   6.813   6.273
 7943TIP3   OH223785   0.385   4.213   2.988
 7943TIP3    H123786   0.394   4.173   2.901
 7943TIP3    H223787   0.343   4.297   2.972
 7944TIP3   OH223788   3.224   0.220   1.679
 7944TIP3    H123789   3.137   0.239   1.713
 7944TIP3    H223790   3.224   0.125   1.664
 7945TIP3   OH223791   0.925   0.561   0.639
 7945TIP3    H123792   0.899   0.586   0.727
 7945TIP3    H223793   0.893   0.632   0.583
 7946TIP3   OH223794   3.722   3.047   4.630
 7946TIP3    H123795   3.759   2.972   4.584
 7946TIP3    H223796   3.780   3.061   4.704
 7947TIP3   OH223797   5.299   2.841   3.237
 7947TIP3    H123798   5.213   2.818   3.273
 7947TIP3    H223799   5.334   2.758   3.205
 7948TIP3   OH223800   6.833   3.802   2.890
 7948TIP3    H123801   6.858   3.782   2.800
 7948TIP3    H223802   6.764   3.739   2.910
 7949TIP3   OH223803   7.078   2.811   2.363
 7949TIP3    H123804   7.144   2.803   2.432
 7949TIP3    H223805   7.004   2.760   2.395
 7950TIP3   OH223806   7.218   3.949   4.449
 7950TIP3    H123807   7.273   4.007   4.502
 7950TIP3    H223808   7.274   3.922   4.377
 7951TIP3   OH223809   3.422   3.029   0.959
 7951TIP3    H123810   3.351   3.038   0.897
 7951TIP3    H223811   3.501   3.029   0.906
 7952TIP3   OH223812   3.053   0.797   5.317
 7952TIP3    H123813   2.962   0.769   5.319
 7952TIP3    H223814   3.050   0.892   5.309
 7953TIP3   OH223815   2.099   4.689   4.062
 7953TIP3    H123816   2.087   4.776   4.101
 7953TIP3    H223817   2.053   4.694   3.978
 7954TIP3   OH223818   6.678   6.269   0.786
 7954TIP3    H123819   6.682   6.263   0.690
 7954TIP3    H223820   6.701   6.182   0.817
 7955TIP3   OH223821   3.866   2.825   0.908
 7955TIP3    H123822   3.883   2.918   0.895
 7955TIP3    H223823   3.877   2.787   0.821
 7956TIP3   OH223824   7.998   0.789   0.514
 7956TIP3    H123825   8.048   0.856   0.562
 7956TIP3    H223826   8.024   0.706   0.554
 7957TIP3   OH223827   6.514   4.460   2.129
 7957TIP3    H123828   6.433   4.412   2.148
 7957TIP3    H223829   6.525   4.519   2.204
 7958TIP3   OH223830   1.261   5.145  -0.006
 7958TIP3    H123831   1.224   5.092  -0.076
 7958TIP3    H223832   1.239   5.098   0.074
 7959TIP3   OH223833   6.123   1.194   0.816
 7959TIP3    H123834   6.204   1.165   0.773
 7959TIP3    H223835   6.084   1.113   0.850
 7960TIP3   OH223836   6.616   3.772   2.019
 7960TIP3    H123837   6.595   3.852   2.068
 7960TIP3    H223838   6.558   3.705   2.056
 7961TIP3   OH223839   0.437   6.582   0.748
 7961TIP3    H123840   0.395   6.497   0.737
 7961TIP3    H223841   0.380   6.629   0.809
 7962TIP3   OH223842   3.702   0.123   1.357
 7962TIP3    H123843   3.634   0.061   1.383
 7962TIP3    H223844   3.737   0.156   1.440
 7963TIP3   OH223845   6.969   1.178   5.344
 7963TIP3    H123846   6.955   1.200   5.252
 7963TIP3    H223847   7.018   1.096   5.342
 7964TIP3   OH223848   0.680   7.322   0.806
 7964TIP3    H123849   0.768   7.307   0.772
 7964TIP3    H223850   0.679   7.415   0.830
 7965TIP3   OH223851   5.367   6.456   1.830
 7965TIP3    H123852   5.386   6.534   1.882
 7965TIP3    H223853   5.352   6.490   1.741
 7966TIP3   OH223854   3.869   5.301   2.852
 7966TIP3    H123855   3.920   5.378   2.874
 7966TIP3    H223856   3.838   5.267   2.936
 7967TIP3   OH223857   7.010   4.761   4.911
 7967TIP3    H123858   7.017   4.801   4.998
 7967TIP3    H223859   7.053   4.824   4.852
 7968TIP3   OH223860   7.984   4.588   2.513
 7968TIP3    H123861   7.913   4.598   2.449
 7968TIP3    H223862   8.014   4.677   2.530
 7969TIP3   OH223863   3.837   6.661   2.120
 7969TIP3    H123864   3.840   6.625   2.031
 7969TIP3    H223865   3.892   6.739   2.116
 7970TIP3   OH223866   0.799   1.181   5.157
 7970TIP3    H123867   0.801   1.090   5.188
 7970TIP3    H223868   0.850   1.180   5.076
 7971TIP3   OH223869   4.275   3.778   1.200
 7971TIP3    H123870   4.217   3.760   1.127
 7971TIP3    H223871   4.344   3.832   1.162
 7972TIP3   OH223872   2.300   6.400   6.121
 7972TIP3    H123873   2.354   6.479   6.112
 7972TIP3    H223874   2.255   6.411   6.204
 7973TIP3   OH223875   0.562   4.404   3.704
 7973TIP3    H123876   0.568   4.421   3.798
 7973TIP3    H223877   0.579   4.489   3.663
 7974TIP3   OH223878   0.971   0.907   4.233
 7974TIP3    H123879   1.032   0.914   4.306
 7974TIP3    H223880   1.014   0.848   4.171
 7975TIP3   OH223881   2.551   5.953   6.752
 7975TIP3    H123882   2.614   6.007   6.705
 7975TIP3    H223883   2.572   5.863   6.726
 7976TIP3   OH223884   2.025   6.594   3.844
 7976TIP3    H123885   2.079   6.662   3.803
 7976TIP3    H223886   2.000   6.631   3.928
 7977TIP3   OH223887   3.333   1.284   3.927
 7977TIP3    H123888   3.393   1.211   3.940
 7977TIP3    H223889   3.364   1.352   3.986
 7978TIP3   OH223890   7.993   6.718   5.511
 7978TIP3    H123891   7.915   6.662   5.516
 7978TIP3    H223892   8.025   6.722   5.601
 7979TIP3   OH223893   1.448   1.715   2.977
 7979TIP3    H123894   1.505   1.649   3.018
 7979TIP3    H223895   1.362   1.674   2.973
 7980TIP3   OH223896   7.284   2.987   2.309
 7980TIP3    H123897   7.357   2.961   2.253
 7980TIP3    H223898   7.221   2.916   2.301
 7981TIP3   OH223899   1.117   6.800   5.262
 7981TIP3    H123900   1.153   6.830   5.179
 7981TIP3    H223901   1.135   6.871   5.323
 7982TIP3   OH223902   6.328   6.862   1.857
 7982TIP3    H123903   6.302   6.940   1.906
 7982TIP3    H223904   6.377   6.896   1.782
 7983TIP3   OH223905   2.775   0.054   3.217
 7983TIP3    H123906   2.748   0.008   3.297
 7983TIP3    H223907   2.871   0.048   3.217
 7984TIP3   OH223908   6.331   1.173   0.606
 7984TIP3    H123909   6.341   1.268   0.609
 7984TIP3    H223910   6.285   1.156   0.524
 7985TIP3   OH223911   8.233   5.681   2.506
 7985TIP3    H123912   8.292   5.679   2.582
 7985TIP3    H223913   8.275   5.741   2.444
 7986TIP3   OH223914   6.606   7.664   5.327
 7986TIP3    H123915   6.601   7.594   5.262
 7986TIP3    H223916   6.559   7.737   5.286
 7987TIP3   OH223917   3.802   5.731   2.368
 7987TIP3    H123918   3.811   5.825   2.358
 7987TIP3    H223919   3.709   5.714   2.352
 7988TIP3   OH223920   7.234   2.631   6.706
 7988TIP3    H123921   7.280   2.548   6.692
 7988TIP3    H223922   7.142   2.610   6.687
 7989TIP3   OH223923   0.756   7.780   1.447
 7989TIP3    H123924   0.669   7.801   1.479
 7989TIP3    H223925   0.808   7.765   1.526
 7990TIP3   OH223926   3.427   7.788   6.148
 7990TIP3    H123927   3.418   7.782   6.053
 7990TIP3    H223928   3.345   7.751   6.182
 7991TIP3   OH223929   0.993   4.781   0.849
 7991TIP3    H123930   1.087   4.785   0.865
 7991TIP3    H223931   0.970   4.691   0.871
 7992TIP3   OH223932   6.669   6.713   4.198
 7992TIP3    H123933   6.713   6.650   4.254
 7992TIP3    H223934   6.577   6.687   4.199
 7993TIP3   OH223935   7.783   3.357   0.050
 7993TIP3    H123936   7.798   3.449   0.030
 7993TIP3    H223937   7.871   3.321   0.065
 7994TIP3   OH223938   8.310   4.675   0.528
 7994TIP3    H123939   8.292   4.769   0.525
 7994TIP3    H223940   8.335   4.652   0.438
 7995TIP3   OH223941   5.681   4.572   2.966
 7995TIP3    H123942   5.640   4.657   2.949
 7995TIP3    H223943   5.633   4.537   3.041
 7996TIP3   OH223944   1.589   4.952   4.713
 7996TIP3    H123945   1.529   4.974   4.642
 7996TIP3    H223946   1.649   5.026   4.719
 7997TIP3   OH223947   0.273   7.015   6.376
 7997TIP3    H123948   0.285   7.043   6.467
 7997TIP3    H223949   0.287   6.921   6.378
 7998TIP3   OH223950   2.658   1.153   6.768
 7998TIP3    H123951   2.563   1.161   6.760
 7998TIP3    H223952   2.680   1.074   6.718
 7999TIP3   OH223953   7.854   0.357   3.196
 7999TIP3    H123954   7.820   0.447   3.197
 7999TIP3    H223955   7.776   0.302   3.201
 8000TIP3   OH223956   7.540   3.775   5.673
 8000TIP3    H123957   7.565   3.747   5.761
 8000TIP3    H223958   7.595   3.722   5.615
 8001TIP3   OH223959   7.058   4.747   2.250
 8001TIP3    H123960   7.142   4.792   2.241
 8001TIP3    H223961   7.048   4.733   2.344
 8002TIP3   OH223962   2.984   2.901   6.600
 8002TIP3    H123963   3.078   2.886   6.594
 8002TIP3    H223964   2.955   2.845   6.672
 8003TIP3   OH223965   8.279   5.298   6.704
 8003TIP3    H123966   8.236   5.248   6.635
 8003TIP3    H223967   8.267   5.390   6.679
 8004TIP3   OH223968   1.602   2.647   5.020
 8004TIP3    H123969   1.637   2.658   4.932
 8004TIP3    H223970   1.517   2.691   5.018
 8005TIP3   OH223971   7.503   5.148   5.338
 8005TIP3    H123972   7.439   5.168   5.406
 8005TIP3    H223973   7.572   5.213   5.349
 8006TIP3   OH223974   0.141   4.476   0.668
 8006TIP3    H123975   0.127   4.544   0.602
 8006TIP3    H223976   0.236   4.467   0.674
 8007TIP3   OH223977   6.702   4.217   2.110
 8007TIP3    H123978   6.747   4.198   2.028
 8007TIP3    H223979   6.705   4.312   2.118
 8008TIP3   OH223980   5.923   1.283   5.870
 8008TIP3    H123981   5.874   1.356   5.908
 8008TIP3    H223982   5.858   1.228   5.828
 8009TIP3   OH223983   6.083   0.836   5.895
 8009TIP3    H123984   6.007   0.808   5.947
 8009TIP3    H223985   6.106   0.922   5.931
 8010TIP3   OH223986   4.456   6.580   6.122
 8010TIP3    H123987   4.401   6.642   6.170
 8010TIP3    H223988   4.543   6.621   6.123
 8011TIP3   OH223989   6.569   0.561   3.596
 8011TIP3    H123990   6.518   0.589   3.672
 8011TIP3    H223991   6.543   0.622   3.526
 8012TIP3   OH223992   7.970   4.958   1.517
 8012TIP3    H123993   7.981   5.053   1.517
 8012TIP3    H223994   8.057   4.923   1.498
 8013TIP3   OH223995   7.492   2.414   4.394
 8013TIP3    H123996   7.437   2.481   4.433
 8013TIP3    H223997   7.509   2.444   4.305
 8014TIP3   OH223998   2.342   1.147   3.328
 8014TIP3    H123999   2.338   1.056   3.359
 8014TIP3    H224000   2.433   1.158   3.300
 8015TIP3   OH224001   7.659   2.209   4.494
 8015TIP3    H124002   7.621   2.290   4.459
 8015TIP3    H224003   7.745   2.203   4.451
 8016TIP3   OH224004   8.028   2.731   2.934
 8016TIP3    H124005   8.063   2.743   2.845
 8016TIP3    H224006   7.985   2.814   2.954
 8017TIP3   OH224007   7.856   3.481   3.511
 8017TIP3    H124008   7.871   3.532   3.431
 8017TIP3    H224009   7.926   3.416   3.512
 8018TIP3   OH224010   5.674   7.297   1.996
 8018TIP3    H124011   5.653   7.353   2.071
 8018TIP3    H224012   5.592   7.253   1.975
 8019TIP3   OH224013   6.198   7.096   1.117
 8019TIP3    H124014   6.112   7.135   1.104
 8019TIP3    H224015   6.205   7.082   1.211
 8020TIP3   OH224016   3.113   1.411   2.511
 8020TIP3    H124017   3.132   1.328   2.467
 8020TIP3    H224018   3.135   1.395   2.603
 8021TIP3   OH224019   5.980   4.158   3.455
 8021TIP3    H124020   6.072   4.134   3.471
 8021TIP3    H224021   5.982   4.207   3.373
 8022TIP3   OH224022   4.134   3.875   2.446
 8022TIP3    H124023   4.069   3.912   2.505
 8022TIP3    H224024   4.165   3.796   2.491
 8023TIP3   OH224025   4.101   7.547   5.202
 8023TIP3    H124026   4.153   7.551   5.122
 8023TIP3    H224027   4.031   7.612   5.188
 8024TIP3   OH224028   7.046   3.873   0.620
 8024TIP3    H124029   7.007   3.957   0.644
 8024TIP3    H224030   7.118   3.896   0.561
 8025TIP3   OH224031   1.198   5.825   0.698
 8025TIP3    H124032   1.200   5.799   0.606
 8025TIP3    H224033   1.127   5.889   0.703
 8026TIP3   OH224034   2.492   6.102   4.244
 8026TIP3    H124035   2.514   6.015   4.277
 8026TIP3    H224036   2.509   6.161   4.317
 8027TIP3   OH224037   6.033   0.316   0.247
 8027TIP3    H124038   5.945   0.353   0.238
 8027TIP3    H224039   6.032   0.238   0.192
 8028TIP3   OH224040   6.553   7.201   3.107
 8028TIP3    H124041   6.483   7.266   3.098
 8028TIP3    H224042   6.603   7.231   3.183
 8029TIP3   OH224043   1.856   6.950   6.763
 8029TIP3    H124044   1.926   6.960   6.698
 8029TIP3    H224045   1.777   6.941   6.710
 8030TIP3   OH224046   5.322   7.320   2.650
 8030TIP3    H124047   5.316   7.235   2.693
 8030TIP3    H224048   5.261   7.313   2.576
 8031TIP3   OH224049   7.435   4.459   6.321
 8031TIP3    H124050   7.482   4.375   6.318
 8031TIP3    H224051   7.438   4.484   6.413
 8032TIP3   OH224052   2.094   5.468   1.183
 8032TIP3    H124053   2.180   5.431   1.165
 8032TIP3    H224054   2.096   5.488   1.277
 8033TIP3   OH224055   7.210   1.477   4.119
 8033TIP3    H124056   7.197   1.516   4.205
 8033TIP3    H224057   7.292   1.428   4.126
 8034TIP3   OH224058   0.096   7.230   4.383
 8034TIP3    H124059   0.104   7.165   4.313
 8034TIP3    H224060   0.100   7.179   4.464
 8035TIP3   OH224061   3.191   3.779   0.849
 8035TIP3    H124062   3.220   3.758   0.938
 8035TIP3    H224063   3.208   3.699   0.799
 8036TIP3   OH224064   8.147   2.363   1.574
 8036TIP3    H124065   8.147   2.274   1.608
 8036TIP3    H224066   8.064   2.371   1.527
 8037TIP3   OH224067   8.009   3.295   6.416
 8037TIP3    H124068   8.096   3.261   6.395
 8037TIP3    H224069   8.023   3.388   6.435
 8038TIP3   OH224070   3.226   2.262   0.093
 8038TIP3    H124071   3.184   2.334   0.141
 8038TIP3    H224072   3.313   2.254   0.132
 8039TIP3   OH224073   3.208   3.357   2.978
 8039TIP3    H124074   3.214   3.445   3.016
 8039TIP3    H224075   3.293   3.317   2.997
 8040TIP3   OH224076   4.895   6.916   3.159
 8040TIP3    H124077   4.945   6.921   3.078
 8040TIP3    H224078   4.939   6.847   3.209
 8041TIP3   OH224079   7.413   3.018   3.693
 8041TIP3    H124080   7.348   3.041   3.759
 8041TIP3    H224081   7.383   2.935   3.656
 8042TIP3   OH224082   0.095   6.753   1.721
 8042TIP3    H124083   0.141   6.771   1.639
 8042TIP3    H224084   0.005   6.735   1.694
 8043TIP3   OH224085   0.267   0.247   1.379
 8043TIP3    H124086   0.263   0.182   1.308
 8043TIP3    H224087   0.357   0.278   1.377
 8044TIP3   OH224088   0.763   5.712   3.214
 8044TIP3    H124089   0.687   5.748   3.168
 8044TIP3    H224090   0.817   5.674   3.145
 8045TIP3   OH224091   1.504   0.907   0.182
 8045TIP3    H124092   1.447   0.971   0.140
 8045TIP3    H224093   1.512   0.937   0.272
 8046TIP3   OH224094   3.397   7.669   5.379
 8046TIP3    H124095   3.346   7.643   5.456
 8046TIP3    H224096   3.338   7.652   5.305
 8047TIP3   OH224097   2.840   3.702   2.392
 8047TIP3    H124098   2.843   3.771   2.326
 8047TIP3    H224099   2.813   3.747   2.472
 8048TIP3   OH224100   4.194   5.606   5.254
 8048TIP3    H124101   4.140   5.674   5.294
 8048TIP3    H224102   4.131   5.547   5.211
 8049TIP3   OH224103   4.881   3.990   0.610
 8049TIP3    H124104   4.900   3.969   0.701
 8049TIP3    H224105   4.939   4.064   0.590
 8050TIP3   OH224106   1.205   7.025   4.499
 8050TIP3    H124107   1.226   6.934   4.519
 8050TIP3    H224108   1.110   7.031   4.510
 8051TIP3   OH224109   6.031   7.129   4.426
 8051TIP3    H124110   6.091   7.056   4.439
 8051TIP3    H224111   6.080   7.206   4.456
 8052TIP3   OH224112   6.726   3.223   6.279
 8052TIP3    H124113   6.748   3.275   6.357
 8052TIP3    H224114   6.646   3.176   6.304
 8053TIP3   OH224115   0.405   3.766   6.476
 8053TIP3    H124116   0.397   3.845   6.422
 8053TIP3    H224117   0.425   3.798   6.564
 8054TIP3   OH224118   2.686   7.750   6.110
 8054TIP3    H124119   2.591   7.738   6.122
 8054TIP3    H224120   2.715   7.790   6.193
 8055TIP3   OH224121   4.045   4.564   4.458
 8055TIP3    H124122   4.018   4.621   4.530
 8055TIP3    H224123   4.010   4.478   4.483
 8056TIP3   OH224124   7.779   0.658   3.159
 8056TIP3    H124125   7.745   0.748   3.162
 8056TIP3    H224126   7.864   0.663   3.204
 8057TIP3   OH224127   5.507   0.263   6.208
 8057TIP3    H124128   5.584   0.319   6.200
 8057TIP3    H224129   5.532   0.197   6.272
 8058TIP3   OH224130   3.680   2.278   0.924
 8058TIP3    H124131   3.677   2.364   0.966
 8058TIP3    H224132   3.657   2.217   0.994
 8059TIP3   OH224133   0.067   2.752   0.029
 8059TIP3    H124134   0.161   2.740   0.034
 8059TIP3    H224135   0.047   2.820   0.093
 8060TIP3   OH224136   4.452   3.145   2.891
 8060TIP3    H124137   4.372   3.174   2.846
 8060TIP3    H224138   4.428   3.145   2.984
 8061TIP3   OH224139   2.467   2.348   1.678
 8061TIP3    H124140   2.511   2.294   1.612
 8061TIP3    H224141   2.526   2.423   1.691
 8062TIP3   OH224142   5.541   2.959   1.513
 8062TIP3    H124143   5.464   2.961   1.456
 8062TIP3    H224144   5.609   3.002   1.461
 8063TIP3   OH224145   4.444   6.008   0.436
 8063TIP3    H124146   4.457   5.933   0.494
 8063TIP3    H224147   4.358   6.043   0.461
 8064TIP3   OH224148   3.698   7.084   0.281
 8064TIP3    H124149   3.687   7.150   0.349
 8064TIP3    H224150   3.624   7.099   0.221
 8065TIP3   OH224151   2.765   2.341   5.830
 8065TIP3    H124152   2.832   2.285   5.790
 8065TIP3    H224153   2.721   2.285   5.894
 8066TIP3   OH224154   1.426   5.131   5.594
 8066TIP3    H124155   1.334   5.104   5.599
 8066TIP3    H224156   1.475   5.050   5.610
 8067TIP3   OH224157   5.029   4.548   1.130
 8067TIP3    H124158   4.978   4.627   1.109
 8067TIP3    H224159   5.081   4.573   1.206
 8068TIP3   OH224160   6.498   0.319   5.938
 8068TIP3    H124161   6.587   0.285   5.926
 8068TIP3    H224162   6.444   0.264   5.882
 8069TIP3   OH224163   0.122   2.309   3.596
 8069TIP3    H124164   0.119   2.382   3.535
 8069TIP3    H224165   0.100   2.232   3.542
 8070TIP3   OH224166   6.698   1.217   3.601
 8070TIP3    H124167   6.735   1.270   3.672
 8070TIP3    H224168   6.769   1.210   3.537
 8071TIP3   OH224169   7.166   4.421   6.250
 8071TIP3    H124170   7.250   4.448   6.286
 8071TIP3    H224171   7.112   4.500   6.251
 8072TIP3   OH224172   7.505   3.714   3.858
 8072TIP3    H124173   7.548   3.715   3.773
 8072TIP3    H224174   7.567   3.670   3.916
 8073TIP3   OH224175   7.481   1.376   0.894
 8073TIP3    H124176   7.542   1.317   0.849
 8073TIP3    H224177   7.398   1.365   0.848
 8074TIP3   OH224178   6.397   4.933   0.514
 8074TIP3    H124179   6.446   4.881   0.578
 8074TIP3    H224180   6.360   4.868   0.454
 8075TIP3   OH224181   0.446   3.847   1.633
 8075TIP3    H124182   0.475   3.908   1.700
 8075TIP3    H224183   0.415   3.902   1.561
 8076TIP3   OH224184   2.223   6.581   0.722
 8076TIP3    H124185   2.209   6.675   0.715
 8076TIP3    H224186   2.251   6.567   0.813
 8077TIP3   OH224187   5.652   5.457   5.279
 8077TIP3    H124188   5.667   5.378   5.332
 8077TIP3    H224189   5.581   5.503   5.324
 8078TIP3   OH224190   2.194   4.412   2.097
 8078TIP3    H124191   2.261   4.472   2.066
 8078TIP3    H224192   2.156   4.455   2.174
 8079TIP3   OH224193   3.173   0.536   6.756
 8079TIP3    H124194   3.260   0.506   6.731
 8079TIP3    H224195   3.114   0.465   6.730
 8080TIP3   OH224196   1.644   5.178   1.858
 8080TIP3    H124197   1.622   5.260   1.814
 8080TIP3    H224198   1.560   5.139   1.880
 8081TIP3   OH224199   5.410   4.027   1.177
 8081TIP3    H124200   5.496   4.001   1.144
 8081TIP3    H224201   5.361   3.945   1.183
 8082TIP3   OH224202   3.072   1.829   1.276
 8082TIP3    H124203   3.014   1.758   1.303
 8082TIP3    H224204   3.157   1.787   1.263
 8083TIP3   OH224205   1.694   1.429   6.666
 8083TIP3    H124206   1.788   1.418   6.655
 8083TIP3    H224207   1.671   1.369   6.737
 8084TIP3   OH224208   2.203   6.937   0.073
 8084TIP3    H124209   2.234   6.940   0.164
 8084TIP3    H224210   2.246   6.860   0.036
 8085TIP3   OH224211   7.265   7.671   4.048
 8085TIP3    H124212   7.193   7.648   3.990
 8085TIP3    H224213   7.224   7.719   4.120
 8086TIP3   OH224214   4.952   0.878   0.847
 8086TIP3    H124215   4.885   0.811   0.840
 8086TIP3    H224216   5.025   0.834   0.891
 8087TIP3   OH224217   1.117   1.850   5.600
 8087TIP3    H124218   1.082   1.860   5.689
 8087TIP3    H224219   1.186   1.916   5.594
 8088TIP3   OH224220   5.868   7.114   2.862
 8088TIP3    H124221   5.840   7.038   2.913
 8088TIP3    H224222   5.934   7.080   2.802
 8089TIP3   OH224223   7.302   6.887   4.572
 8089TIP3    H124224   7.229   6.947   4.553
 8089TIP3    H224225   7.364   6.903   4.500
 8090TIP3   OH224226   0.957   0.071   1.314
 8090TIP3    H124227   0.952  -0.018   1.280
 8090TIP3    H224228   0.948   0.061   1.409
 8091TIP3   OH224229   7.346   2.057   5.691
 8091TIP3    H124230   7.274   2.094   5.640
 8091TIP3    H224231   7.417   2.120   5.681
 8092TIP3   OH224232   6.178   7.689   2.408
 8092TIP3    H124233   6.139   7.684   2.495
 8092TIP3    H224234   6.258   7.741   2.420
 8093TIP3   OH224235   4.503   3.089   1.541
 8093TIP3    H124236   4.585   3.115   1.499
 8093TIP3    H224237   4.453   3.170   1.548
 8094TIP3   OH224238   3.493   4.359   1.425
 8094TIP3    H124239   3.573   4.314   1.399
 8094TIP3    H224240   3.522   4.443   1.459
 8095TIP3   OH224241   1.173   2.780   2.737
 8095TIP3    H124242   1.210   2.729   2.665
 8095TIP3    H224243   1.174   2.870   2.706
 8096TIP3   OH224244   8.003   3.345   0.424
 8096TIP3    H124245   8.025   3.398   0.501
 8096TIP3    H224246   8.011   3.404   0.350
 8097TIP3   OH224247   3.674   5.585   3.403
 8097TIP3    H124248   3.763   5.587   3.369
 8097TIP3    H224249   3.670   5.505   3.455
 8098TIP3   OH224250   5.843   4.014   1.717
 8098TIP3    H124251   5.788   4.064   1.777
 8098TIP3    H224252   5.852   3.928   1.759
 8099TIP3   OH224253   4.141   6.438   1.828
 8099TIP3    H124254   4.058   6.390   1.835
 8099TIP3    H224255   4.192   6.408   1.903
 8100TIP3   OH224256   8.169   1.509   1.234
 8100TIP3    H124257   8.092   1.458   1.209
 8100TIP3    H224258   8.163   1.589   1.182
 8101TIP3   OH224259   1.993   6.507   6.032
 8101TIP3    H124260   2.028   6.477   5.949
 8101TIP3    H224261   2.057   6.570   6.064
 8102TIP3   OH224262   0.067   4.374   1.299
 8102TIP3    H124263   0.146   4.382   1.245
 8102TIP3    H224264   0.058   4.460   1.341
 8103TIP3   OH224265   4.435   6.533   5.255
 8103TIP3    H124266   4.509   6.475   5.237
 8103TIP3    H224267   4.358   6.482   5.231
 8104TIP3   OH224268   7.764   6.849   1.946
 8104TIP3    H124269   7.820   6.908   1.895
 8104TIP3    H224270   7.747   6.898   2.027
 8105TIP3   OH224271   2.684   0.831   4.089
 8105TIP3    H124272   2.777   0.810   4.100
 8105TIP3    H224273   2.675   0.920   4.123
 8106TIP3   OH224274   7.937   3.979   5.380
 8106TIP3    H124275   7.845   3.952   5.386
 8106TIP3    H224276   7.945   4.049   5.445
 8107TIP3   OH224277   3.832   3.775   4.612
 8107TIP3    H124278   3.739   3.753   4.610
 8107TIP3    H224279   3.871   3.724   4.541
 8108TIP3   OH224280   1.280   1.734   1.502
 8108TIP3    H124281   1.231   1.695   1.574
 8108TIP3    H224282   1.230   1.814   1.480
 8109TIP3   OH224283   2.779   4.147   6.143
 8109TIP3    H124284   2.851   4.085   6.155
 8109TIP3    H224285   2.714   4.099   6.092
 8110TIP3   OH224286   0.306   2.181   2.429
 8110TIP3    H124287   0.219   2.149   2.404
 8110TIP3    H224288   0.292   2.272   2.452
 8111TIP3   OH224289   4.016   2.008   2.187
 8111TIP3    H124290   3.975   2.044   2.109
 8111TIP3    H224291   4.028   1.915   2.168
 8112TIP3   OH224292   3.596   0.993   5.153
 8112TIP3    H124293   3.670   1.051   5.137
 8112TIP3    H224294   3.519   1.050   5.154
 8113TIP3   OH224295   2.427   0.739   4.418
 8113TIP3    H124296   2.470   0.809   4.369
 8113TIP3    H224297   2.474   0.659   4.390
 8114TIP3   OH224298   1.627   3.486   5.461
 8114TIP3    H124299   1.670   3.523   5.538
 8114TIP3    H224300   1.697   3.483   5.395
 8115TIP3   OH224301   5.332   7.280   4.254
 8115TIP3    H124302   5.277   7.208   4.284
 8115TIP3    H224303   5.327   7.275   4.158
 8116TIP3   OH224304   8.271   3.057   0.463
 8116TIP3    H124305   8.180   3.055   0.493
 8116TIP3    H224306   8.302   3.144   0.486
 8117TIP3   OH224307   3.507   5.790   4.651
 8117TIP3    H124308   3.472   5.866   4.699
 8117TIP3    H224309   3.581   5.760   4.704
 8118TIP3   OH224310   4.001   7.728   4.204
 8118TIP3    H124311   4.023   7.754   4.294
 8118TIP3    H224312   4.085   7.703   4.165
 8119TIP3   OH224313   8.276   1.659   5.622
 8119TIP3    H124314   8.215   1.648   5.549
 8119TIP3    H224315   8.329   1.580   5.620
 8120TIP3   OH224316   3.960   3.135   2.558
 8120TIP3    H124317   3.882   3.086   2.582
 8120TIP3    H224318   3.973   3.117   2.465
 8121TIP3   OH224319   4.434   3.918   6.377
 8121TIP3    H124320   4.395   3.924   6.290
 8121TIP3    H224321   4.490   3.995   6.385
 8122TIP3   OH224322   2.514   1.661   3.277
 8122TIP3    H124323   2.543   1.745   3.313
 8122TIP3    H224324   2.450   1.684   3.210
 8123TIP3   OH224325   3.480   5.539   4.553
 8123TIP3    H124326   3.497   5.631   4.574
 8123TIP3    H224327   3.421   5.543   4.477
 8124TIP3   OH224328   7.990   0.312   6.551
 8124TIP3    H124329   7.916   0.282   6.498
 8124TIP3    H224330   7.954   0.381   6.606
 8125TIP3   OH224331   3.600   4.558   3.256
 8125TIP3    H124332   3.536   4.496   3.290
 8125TIP3    H224333   3.682   4.535   3.300
 8126TIP3   OH224334   8.087   1.113   1.624
 8126TIP3    H124335   8.043   1.185   1.671
 8126TIP3    H224336   8.015   1.058   1.594
 8127TIP3   OH224337   6.714   5.336   0.212
 8127TIP3    H124338   6.763   5.357   0.133
 8127TIP3    H224339   6.774   5.283   0.264
 8128TIP3   OH224340   3.730   1.330   4.340
 8128TIP3    H124341   3.784   1.407   4.322
 8128TIP3    H224342   3.762   1.299   4.425
 8129TIP3   OH224343   4.598   7.159   1.203
 8129TIP3    H124344   4.682   7.158   1.158
 8129TIP3    H224345   4.544   7.097   1.154
 8130TIP3   OH224346   3.662   0.907   3.535
 8130TIP3    H124347   3.655   0.831   3.593
 8130TIP3    H224348   3.600   0.888   3.464
 8131TIP3   OH224349   1.399   0.337   1.448
 8131TIP3    H124350   1.381   0.248   1.417
 8131TIP3    H224351   1.360   0.394   1.381
 8132TIP3   OH224352   0.980   2.025  -0.027
 8132TIP3    H124353   0.964   1.935  -0.054
 8132TIP3    H224354   0.895   2.057   0.002
 8133TIP3   OH224355   8.317   4.491   2.787
 8133TIP3    H124356   8.292   4.469   2.697
 8133TIP3    H224357   8.239   4.532   2.824
 8134TIP3   OH224358   5.141   3.620   1.927
 8134TIP3    H124359   5.150   3.545   1.869
 8134TIP3    H224360   5.048   3.641   1.925
 8135TIP3   OH224361   5.016   5.580   6.203
 8135TIP3    H124362   5.065   5.649   6.248
 8135TIP3    H224363   4.998   5.515   6.271
 8136TIP3   OH224364   6.427   6.020   1.856
 8136TIP3    H124365   6.363   6.039   1.925
 8136TIP3    H224366   6.510   6.011   1.902
 8137TIP3   OH224367   0.634   6.995   2.558
 8137TIP3    H124368   0.728   6.977   2.548
 8137TIP3    H224369   0.596   6.968   2.475
 8138TIP3   OH224370   6.035   2.138   4.814
 8138TIP3    H124371   5.980   2.131   4.736
 8138TIP3    H224372   6.018   2.227   4.847
 8139TIP3   OH224373   4.420   2.742   2.493
 8139TIP3    H124374   4.492   2.679   2.499
 8139TIP3    H224375   4.464   2.828   2.493
 8140TIP3   OH224376   1.453   4.333   0.374
 8140TIP3    H124377   1.439   4.392   0.448
 8140TIP3    H224378   1.401   4.372   0.303
 8141TIP3   OH224379   0.648   2.241   4.732
 8141TIP3    H124380   0.696   2.322   4.712
 8141TIP3    H224381   0.558   2.260   4.705
 8142TIP3   OH224382   3.989   1.363   3.012
 8142TIP3    H124383   4.004   1.307   2.936
 8142TIP3    H224384   3.981   1.451   2.976
 8143TIP3   OH224385   7.705   7.725   5.050
 8143TIP3    H124386   7.698   7.630   5.059
 8143TIP3    H224387   7.707   7.740   4.956
 8144TIP3   OH224388   2.136   5.831   5.758
 8144TIP3    H124389   2.099   5.867   5.677
 8144TIP3    H224390   2.219   5.792   5.731
 8145TIP3   OH224391   2.142   4.835   0.814
 8145TIP3    H124392   2.114   4.761   0.867
 8145TIP3    H224393   2.237   4.825   0.807
 8146TIP3   OH224394   4.833   4.865   4.817
 8146TIP3    H124395   4.847   4.956   4.842
 8146TIP3    H224396   4.741   4.847   4.838
 8147TIP3   OH224397   0.207   3.986   3.206
 8147TIP3    H124398   0.282   3.938   3.171
 8147TIP3    H224399   0.140   3.978   3.138
 8148TIP3   OH224400   2.876   1.147   0.304
 8148TIP3    H124401   2.849   1.213   0.368
 8148TIP3    H224402   2.809   1.079   0.310
 8149TIP3   OH224403   5.108   5.531   4.326
 8149TIP3    H124404   5.123   5.508   4.418
 8149TIP3    H224405   5.057   5.612   4.330
 8150TIP3   OH224406   0.127   4.748   4.577
 8150TIP3    H124407   0.150   4.753   4.484
 8150TIP3    H224408   0.144   4.657   4.601
 8151TIP3   OH224409   1.842   5.925   1.336
 8151TIP3    H124410   1.821   5.970   1.254
 8151TIP3    H224411   1.858   5.834   1.311
 8152TIP3   OH224412   5.384   4.626   1.525
 8152TIP3    H124413   5.458   4.688   1.517
 8152TIP3    H224414   5.365   4.624   1.618
 8153TIP3   OH224415   4.895   1.741   2.111
 8153TIP3    H124416   4.863   1.779   2.029
 8153TIP3    H224417   4.823   1.686   2.142
 8154TIP3   OH224418   2.718   1.217   2.370
 8154TIP3    H124419   2.790   1.171   2.328
 8154TIP3    H224420   2.760   1.287   2.421
 8155TIP3   OH224421   4.640   6.621   0.514
 8155TIP3    H124422   4.665   6.548   0.457
 8155TIP3    H224423   4.717   6.677   0.518
 8156TIP3   OH224424   1.515   0.496   3.639
 8156TIP3    H124425   1.459   0.425   3.670
 8156TIP3    H224426   1.455   0.568   3.622
 8157TIP3   OH224427   7.300   2.382   1.398
 8157TIP3    H124428   7.305   2.422   1.485
 8157TIP3    H224429   7.389   2.355   1.379
 8158TIP3   OH224430   0.125   6.154   5.462
 8158TIP3    H124431   0.190   6.109   5.516
 8158TIP3    H224432   0.158   6.243   5.455
 8159TIP3   OH224433   5.422   7.773   3.732
 8159TIP3    H124434   5.462   7.854   3.701
 8159TIP3    H224435   5.416   7.717   3.654
 8160TIP3   OH224436   2.642   5.457   5.562
 8160TIP3    H124437   2.547   5.465   5.556
 8160TIP3    H224438   2.669   5.532   5.615
 8161TIP3   OH224439   8.007   1.162   3.310
 8161TIP3    H124440   8.073   1.157   3.241
 8161TIP3    H224441   7.961   1.244   3.294
 8162TIP3   OH224442   4.008   4.722   6.062
 8162TIP3    H124443   4.089   4.671   6.052
 8162TIP3    H224444   3.966   4.716   5.977
 8163TIP3   OH224445   7.320   4.346   1.817
 8163TIP3    H124446   7.281   4.427   1.849
 8163TIP3    H224447   7.414   4.364   1.814
 8164TIP3   OH224448   5.063   7.849   6.023
 8164TIP3    H124449   5.096   7.793   6.094
 8164TIP3    H224450   4.969   7.833   6.022
 8165TIP3   OH224451   8.071   5.617   0.901
 8165TIP3    H124452   8.161   5.624   0.936
 8165TIP3    H224453   8.076   5.549   0.835
 8166TIP3   OH224454   6.930   7.529   5.820
 8166TIP3    H124455   6.848   7.483   5.836
 8166TIP3    H224456   6.945   7.519   5.726
 8167TIP3   OH224457   7.401   5.386   1.858
 8167TIP3    H124458   7.364   5.299   1.847
 8167TIP3    H224459   7.342   5.429   1.920
 8168TIP3   OH224460   4.897   6.771   5.470
 8168TIP3    H124461   4.814   6.725   5.485
 8168TIP3    H224462   4.871   6.854   5.430
 8169TIP3   OH224463   0.444   3.977   4.575
 8169TIP3    H124464   0.438   4.052   4.633
 8169TIP3    H224465   0.536   3.951   4.579
 8170TIP3   OH224466   5.093   3.816   1.225
 8170TIP3    H124467   5.066   3.908   1.220
 8170TIP3    H224468   5.105   3.789   1.134
 8171TIP3   OH224469   6.370   5.337   2.665
 8171TIP3    H124470   6.308   5.409   2.673
 8171TIP3    H224471   6.405   5.326   2.754
 8172TIP3   OH224472   3.481   3.260   5.063
 8172TIP3    H124473   3.401   3.279   5.015
 8172TIP3    H224474   3.549   3.256   4.997
 8173TIP3   OH224475   0.226   0.005   5.160
 8173TIP3    H124476   0.278   0.075   5.199
 8173TIP3    H224477   0.248  -0.073   5.210
 8174TIP3   OH224478   5.319   4.888   2.513
 8174TIP3    H124479   5.280   4.971   2.542
 8174TIP3    H224480   5.408   4.890   2.548
 8175TIP3   OH224481   3.401   2.471   2.178
 8175TIP3    H124482   3.373   2.383   2.154
 8175TIP3    H224483   3.361   2.486   2.264
 8176TIP3   OH224484   1.262   5.101   4.603
 8176TIP3    H124485   1.225   5.033   4.546
 8176TIP3    H224486   1.196   5.170   4.604
 8177TIP3   OH224487   3.437   2.036   5.172
 8177TIP3    H124488   3.418   1.947   5.141
 8177TIP3    H224489   3.513   2.063   5.121
 8178TIP3   OH224490   2.200   2.459  -0.035
 8178TIP3    H124491   2.263   2.526  -0.007
 8178TIP3    H224492   2.160   2.428   0.047
 8179TIP3   OH224493   5.360   1.851   3.987
 8179TIP3    H124494   5.292   1.784   3.980
 8179TIP3    H224495   5.313   1.931   4.011
 8180TIP3   OH224496   6.592   2.378   0.327
 8180TIP3    H124497   6.610   2.284   0.313
 8180TIP3    H224498   6.571   2.411   0.239
 8181TIP3   OH224499   2.202   2.491   5.032
 8181TIP3    H124500   2.183   2.431   4.960
 8181TIP3    H224501   2.199   2.437   5.111
 8182TIP3   OH224502   2.237   5.630   0.106
 8182TIP3    H124503   2.264   5.687   0.178
 8182TIP3    H224504   2.317   5.583   0.082
 8183TIP3   OH224505   7.393   4.124   4.596
 8183TIP3    H124506   7.311   4.170   4.614
 8183TIP3    H224507   7.439   4.181   4.534
 8184TIP3   OH224508   1.185   0.492   1.769
 8184TIP3    H124509   1.132   0.421   1.734
 8184TIP3    H224510   1.145   0.513   1.854
 8185TIP3   OH224511   4.162   3.893   3.215
 8185TIP3    H124512   4.234   3.926   3.268
 8185TIP3    H224513   4.173   3.934   3.129
 8186TIP3   OH224514   7.487   3.884   1.049
 8186TIP3    H124515   7.394   3.878   1.030
 8186TIP3    H224516   7.530   3.875   0.964
 8187TIP3   OH224517   7.764   5.827   0.458
 8187TIP3    H124518   7.675   5.833   0.421
 8187TIP3    H224519   7.756   5.863   0.546
 8188TIP3   OH224520   0.858   5.801   5.532
 8188TIP3    H124521   0.918   5.826   5.601
 8188TIP3    H224522   0.914   5.778   5.458
 8189TIP3   OH224523   4.447   4.776   0.328
 8189TIP3    H124524   4.531   4.746   0.362
 8189TIP3    H224525   4.448   4.753   0.236
 8190TIP3   OH224526   3.824   0.908   3.257
 8190TIP3    H124527   3.889   0.954   3.205
 8190TIP3    H224528   3.750   0.895   3.197
 8191TIP3   OH224529   5.823   0.862   3.193
 8191TIP3    H124530   5.904   0.848   3.143
 8191TIP3    H224531   5.786   0.942   3.157
 8192TIP3   OH224532   7.861   6.595   2.373
 8192TIP3    H124533   7.831   6.671   2.423
 8192TIP3    H224534   7.824   6.608   2.285
 8193TIP3   OH224535   0.628   5.919   6.658
 8193TIP3    H124536   0.661   5.832   6.680
 8193TIP3    H224537   0.533   5.911   6.663
 8194TIP3   OH224538   5.485   4.242   5.841
 8194TIP3    H124539   5.514   4.188   5.915
 8194TIP3    H224540   5.393   4.259   5.858
 8195TIP3   OH224541   5.825   1.184   4.563
 8195TIP3    H124542   5.748   1.132   4.583
 8195TIP3    H224543   5.822   1.196   4.468
 8196TIP3   OH224544   1.446   0.147   6.008
 8196TIP3    H124545   1.479   0.080   5.949
 8196TIP3    H224546   1.394   0.099   6.072
 8197TIP3   OH224547   0.213   0.184   3.830
 8197TIP3    H124548   0.137   0.205   3.775
 8197TIP3    H224549   0.188   0.105   3.877
 8198TIP3   OH224550   6.839   4.227   1.896
 8198TIP3    H124551   6.849   4.314   1.856
 8198TIP3    H224552   6.914   4.177   1.863
 8199TIP3   OH224553   6.651   4.304   6.574
 8199TIP3    H124554   6.693   4.293   6.660
 8199TIP3    H224555   6.712   4.263   6.512
 8200TIP3   OH224556   5.457   1.531   1.217
 8200TIP3    H124557   5.522   1.461   1.216
 8200TIP3    H224558   5.427   1.536   1.308
 8201TIP3   OH224559   4.778   4.134   2.413
 8201TIP3    H124560   4.872   4.145   2.424
 8201TIP3    H224561   4.743   4.126   2.502
 8202TIP3   OH224562   4.535   7.577   2.586
 8202TIP3    H124563   4.584   7.495   2.600
 8202TIP3    H224564   4.535   7.588   2.491
 8203TIP3   OH224565   2.825   1.593   4.287
 8203TIP3    H124566   2.729   1.592   4.293
 8203TIP3    H224567   2.854   1.542   4.363
 8204TIP3   OH224568   7.390   6.161   6.152
 8204TIP3    H124569   7.360   6.096   6.216
 8204TIP3    H224570   7.372   6.245   6.193
 8205TIP3   OH224571   3.124   5.820   4.067
 8205TIP3    H124572   3.154   5.858   3.985
 8205TIP3    H224573   3.132   5.726   4.055
 8206TIP3   OH224574   5.471   4.804   2.281
 8206TIP3    H124575   5.413   4.840   2.348
 8206TIP3    H224576   5.471   4.709   2.297
 8207TIP3   OH224577   1.704   6.583   5.506
 8207TIP3    H124578   1.721   6.548   5.593
 8207TIP3    H224579   1.791   6.589   5.465
 8208TIP3   OH224580   5.787   5.457   6.143
 8208TIP3    H124581   5.728   5.422   6.211
 8208TIP3    H224582   5.810   5.381   6.090
 8209TIP3   OH224583   4.043   5.204   4.615
 8209TIP3    H124584   4.027   5.255   4.536
 8209TIP3    H224585   4.012   5.116   4.593
 8210TIP3   OH224586   4.199   2.492   5.735
 8210TIP3    H124587   4.203   2.423   5.669
 8210TIP3    H224588   4.290   2.511   5.756
 8211TIP3   OH224589   2.940   5.562   6.417
 8211TIP3    H124590   3.025   5.521   6.427
 8211TIP3    H224591   2.955   5.635   6.357
 8212TIP3   OH224592   1.388   4.110   0.088
 8212TIP3    H124593   1.451   4.041   0.070
 8212TIP3    H224594   1.426   4.189   0.048
 8213TIP3   OH224595   6.140   1.995   4.384
 8213TIP3    H124596   6.201   2.038   4.324
 8213TIP3    H224597   6.074   1.956   4.327
 8214TIP3   OH224598   3.893   4.389   1.380
 8214TIP3    H124599   3.892   4.477   1.343
 8214TIP3    H224600   3.963   4.344   1.334
 8215TIP3   OH224601   0.619   5.569   2.394
 8215TIP3    H124602   0.709   5.586   2.368
 8215TIP3    H224603   0.598   5.484   2.354
 8216TIP3   OH224604   6.261   7.770   1.795
 8216TIP3    H124605   6.180   7.720   1.807
 8216TIP3    H224606   6.275   7.814   1.878
 8217TIP3   OH224607   1.251   4.293   5.825
 8217TIP3    H124608   1.240   4.268   5.734
 8217TIP3    H224609   1.162   4.304   5.858
 8218TIP3   OH224610   6.516   5.358   4.176
 8218TIP3    H124611   6.586   5.303   4.212
 8218TIP3    H224612   6.445   5.350   4.239
 8219TIP3   OH224613   3.293   0.133   1.193
 8219TIP3    H124614   3.320   0.043   1.212
 8219TIP3    H224615   3.296   0.139   1.097
 8220TIP3   OH224616   3.246   5.178   4.565
 8220TIP3    H124617   3.251   5.262   4.520
 8220TIP3    H224618   3.329   5.171   4.612
 8221TIP3   OH224619   2.291   4.446   3.732
 8221TIP3    H124620   2.282   4.515   3.666
 8221TIP3    H224621   2.310   4.494   3.813
 8222TIP3   OH224622   3.693   5.298   6.168
 8222TIP3    H124623   3.614   5.298   6.223
 8222TIP3    H224624   3.763   5.273   6.228
 8223TIP3   OH224625   1.317   1.624   5.564
 8223TIP3    H124626   1.241   1.682   5.566
 8223TIP3    H224627   1.387   1.677   5.527
 8224TIP3   OH224628   6.187   1.362   6.704
 8224TIP3    H124629   6.176   1.367   6.609
 8224TIP3    H224630   6.227   1.446   6.727
 8225TIP3   OH224631   2.192   5.322   4.464
 8225TIP3    H124632   2.257   5.391   4.479
 8225TIP3    H224633   2.225   5.275   4.388
 8226TIP3   OH224634   1.166   1.591   2.941
 8226TIP3    H124635   1.106   1.535   2.989
 8226TIP3    H224636   1.129   1.679   2.948
 8227TIP3   OH224637   7.361   5.287   3.159
 8227TIP3    H124638   7.336   5.223   3.092
 8227TIP3    H224639   7.278   5.311   3.200
 8228TIP3   OH224640   0.248   7.564   2.639
 8228TIP3    H124641   0.320   7.603   2.590
 8228TIP3    H224642   0.169   7.600   2.598
 8229TIP3   OH224643   0.851   1.136   4.657
 8229TIP3    H124644   0.821   1.206   4.598
 8229TIP3    H224645   0.942   1.121   4.631
 8230TIP3   OH224646   6.332   4.661   1.817
 8230TIP3    H124647   6.266   4.672   1.749
 8230TIP3    H224648   6.283   4.657   1.899
 8231TIP3   OH224649   5.708   4.266   3.321
 8231TIP3    H124650   5.785   4.322   3.330
 8231TIP3    H224651   5.710   4.238   3.229
 8232TIP3   OH224652   3.821   1.560   0.590
 8232TIP3    H124653   3.776   1.514   0.661
 8232TIP3    H224654   3.842   1.645   0.627
 8233TIP3   OH224655   4.494   2.039   0.561
 8233TIP3    H124656   4.555   2.077   0.498
 8233TIP3    H224657   4.524   1.949   0.572
 8234TIP3   OH224658   2.349   5.713   0.708
 8234TIP3    H124659   2.394   5.794   0.688
 8234TIP3    H224660   2.280   5.738   0.770
 8235TIP3   OH224661   7.494   0.861   5.113
 8235TIP3    H124662   7.557   0.875   5.042
 8235TIP3    H224663   7.543   0.815   5.180
 8236TIP3   OH224664   8.103   1.617   3.628
 8236TIP3    H124665   8.132   1.558   3.698
 8236TIP3    H224666   8.153   1.589   3.551
 8237TIP3   OH224667   5.893   3.659   0.137
 8237TIP3    H124668   5.808   3.616   0.128
 8237TIP3    H224669   5.952   3.606   0.082
 8238TIP3   OH224670   6.833   7.060   2.021
 8238TIP3    H124671   6.827   6.998   2.094
 8238TIP3    H224672   6.868   7.140   2.061
 8239TIP3   OH224673   4.326   0.218   4.294
 8239TIP3    H124674   4.370   0.297   4.324
 8239TIP3    H224675   4.268   0.247   4.224
 8240TIP3   OH224676   5.146   4.579   1.923
 8240TIP3    H124677   5.177   4.636   1.994
 8240TIP3    H224678   5.062   4.546   1.954
 8241TIP3   OH224679   7.821   2.870   1.123
 8241TIP3    H124680   7.821   2.966   1.130
 8241TIP3    H224681   7.889   2.852   1.057
 8242TIP3   OH224682   0.774   4.758   4.194
 8242TIP3    H124683   0.781   4.853   4.187
 8242TIP3    H224684   0.699   4.735   4.139
 8243TIP3   OH224685   5.599   6.363   3.030
 8243TIP3    H124686   5.637   6.393   2.947
 8243TIP3    H224687   5.579   6.271   3.015
 8244TIP3   OH224688   0.126   7.305   1.837
 8244TIP3    H124689   0.149   7.311   1.930
 8244TIP3    H224690   0.096   7.215   1.825
 8245TIP3   OH224691   8.066   2.564   4.852
 8245TIP3    H124692   8.015   2.530   4.779
 8245TIP3    H224693   8.125   2.493   4.876
 8246TIP3   OH224694   3.256   6.722   6.188
 8246TIP3    H124695   3.185   6.733   6.252
 8246TIP3    H224696   3.212   6.684   6.111
 8247TIP3   OH224697   2.814   4.855   2.778
 8247TIP3    H124698   2.797   4.864   2.684
 8247TIP3    H224699   2.729   4.869   2.820
 8248TIP3   OH224700   5.701   6.364   3.403
 8248TIP3    H124701   5.699   6.353   3.498
 8248TIP3    H224702   5.767   6.302   3.373
 8249TIP3   OH224703   3.997   6.767   6.128
 8249TIP3    H124704   3.924   6.764   6.067
 8249TIP3    H224705   4.059   6.827   6.088
 8250TIP3   OH224706   0.615   2.070   3.935
 8250TIP3    H124707   0.543   2.018   3.970
 8250TIP3    H224708   0.579   2.112   3.857
 8251TIP3   OH224709   5.277   2.949   2.619
 8251TIP3    H124710   5.257   2.920   2.529
 8251TIP3    H224711   5.201   2.919   2.670
 8252TIP3   OH224712   0.448   0.564   6.396
 8252TIP3    H124713   0.506   0.587   6.323
 8252TIP3    H224714   0.441   0.469   6.392
 8253TIP3   OH224715   5.241   5.359   0.330
 8253TIP3    H124716   5.328   5.388   0.357
 8253TIP3    H224717   5.181   5.408   0.388
 8254TIP3   OH224718   6.038   0.051   0.848
 8254TIP3    H124719   6.133   0.050   0.844
 8254TIP3    H224720   6.012  -0.039   0.828
 8255TIP3   OH224721   4.443   7.780   3.416
 8255TIP3    H124722   4.479   7.717   3.479
 8255TIP3    H224723   4.428   7.859   3.468
 8256TIP3   OH224724   6.416   2.828   5.319
 8256TIP3    H124725   6.382   2.855   5.233
 8256TIP3    H224726   6.339   2.797   5.366
 8257TIP3   OH224727   4.341   5.671   0.255
 8257TIP3    H124728   4.275   5.665   0.324
 8257TIP3    H224729   4.321   5.599   0.196
 8258TIP3   OH224730   1.728   2.712   4.101
 8258TIP3    H124731   1.811   2.731   4.058
 8258TIP3    H224732   1.732   2.618   4.120
 8259TIP3   OH224733   2.902   3.029   5.836
 8259TIP3    H124734   2.842   2.974   5.885
 8259TIP3    H224735   2.989   3.008   5.871
 8260TIP3   OH224736   5.331   5.803   0.629
 8260TIP3    H124737   5.327   5.709   0.645
 8260TIP3    H224738   5.422   5.827   0.643
 8261TIP3   OH224739   2.342   4.646   2.940
 8261TIP3    H124740   2.427   4.629   2.900
 8261TIP3    H224741   2.280   4.599   2.885
 8262TIP3   OH224742   7.990   2.694   3.908
 8262TIP3    H124743   8.002   2.603   3.933
 8262TIP3    H224744   8.000   2.744   3.989
 8263TIP3   OH224745   5.757   0.572   3.274
 8263TIP3    H124746   5.829   0.545   3.217
 8263TIP3    H224747   5.725   0.491   3.314
 8264TIP3   OH224748   6.824   0.669   3.548
 8264TIP3    H124749   6.788   0.757   3.542
 8264TIP3    H224750   6.755   0.617   3.588
 8265TIP3   OH224751   4.386   0.303   1.606
 8265TIP3    H124752   4.368   0.292   1.513
 8265TIP3    H224753   4.448   0.377   1.610
 8266TIP3   OH224754   0.071   1.808   6.277
 8266TIP3    H124755   0.079   1.731   6.221
 8266TIP3    H224756   0.099   1.881   6.222
 8267TIP3   OH224757   6.019   2.791   0.723
 8267TIP3    H124758   6.064   2.873   0.740
 8267TIP3    H224759   6.089   2.725   0.721
 8268TIP3   OH224760   4.420   6.710   1.124
 8268TIP3    H124761   4.446   6.622   1.152
 8268TIP3    H224762   4.352   6.735   1.186
 8269TIP3   OH224763   6.839   4.059   5.955
 8269TIP3    H124764   6.809   4.119   5.886
 8269TIP3    H224765   6.895   4.112   6.010
 8270TIP3   OH224766   6.182   6.851   3.351
 8270TIP3    H124767   6.134   6.772   3.378
 8270TIP3    H224768   6.265   6.818   3.318
 8271TIP3   OH224769   0.732   5.687   0.436
 8271TIP3    H124770   0.694   5.727   0.514
 8271TIP3    H224771   0.784   5.757   0.396
 8272TIP3   OH224772   6.402   0.542   0.416
 8272TIP3    H124773   6.486   0.567   0.377
 8272TIP3    H224774   6.341   0.611   0.390
 8273TIP3   OH224775   6.053   5.989   6.567
 8273TIP3    H124776   6.026   6.077   6.590
 8273TIP3    H224777   5.990   5.932   6.611
 8274TIP3   OH224778   6.213   7.161   4.070
 8274TIP3    H124779   6.167   7.080   4.092
 8274TIP3    H224780   6.150   7.211   4.017
 8275TIP3   OH224781   2.195   3.442   5.787
 8275TIP3    H124782   2.137   3.519   5.790
 8275TIP3    H224783   2.207   3.418   5.879
 8276TIP3   OH224784   6.383   4.305   0.792
 8276TIP3    H124785   6.314   4.278   0.852
 8276TIP3    H224786   6.386   4.400   0.800
 8277TIP3   OH224787   4.962   3.859   4.111
 8277TIP3    H124788   4.989   3.771   4.083
 8277TIP3    H224789   4.890   3.843   4.172
 8278TIP3   OH224790   0.348   5.145   3.787
 8278TIP3    H124791   0.364   5.174   3.697
 8278TIP3    H224792   0.349   5.225   3.839
 8279TIP3   OH224793   2.628   5.986   0.885
 8279TIP3    H124794   2.583   6.037   0.953
 8279TIP3    H224795   2.559   5.962   0.824
 8280TIP3   OH224796   2.900   3.648   4.025
 8280TIP3    H124797   2.871   3.679   3.939
 8280TIP3    H224798   2.854   3.565   4.036
 8281TIP3   OH224799   0.978   0.600   4.200
 8281TIP3    H124800   1.055   0.543   4.208
 8281TIP3    H224801   0.982   0.656   4.277
 8282TIP3   OH224802   2.203   1.395   0.532
 8282TIP3    H124803   2.194   1.304   0.503
 8282TIP3    H224804   2.117   1.417   0.569
 8283TIP3   OH224805   0.268   1.983   3.612
 8283TIP3    H124806   0.216   1.942   3.542
 8283TIP3    H224807   0.290   1.911   3.670
 8284TIP3   OH224808   1.431   3.691   0.945
 8284TIP3    H124809   1.357   3.636   0.972
 8284TIP3    H224810   1.427   3.767   1.003
 8285TIP3   OH224811   1.274   7.777   6.664
 8285TIP3    H124812   1.267   7.687   6.630
 8285TIP3    H224813   1.323   7.768   6.746
 8286TIP3   OH224814   8.081   1.163   3.570
 8286TIP3    H124815   8.061   1.069   3.578
 8286TIP3    H224816   8.048   1.187   3.484
 8287TIP3   OH224817   6.103   5.878   2.324
 8287TIP3    H124818   6.082   5.966   2.293
 8287TIP3    H224819   6.098   5.884   2.419
 8288TIP3   OH224820   2.335   0.268   4.841
 8288TIP3    H124821   2.380   0.332   4.895
 8288TIP3    H224822   2.405   0.207   4.814
 8289TIP3   OH224823   3.844   3.865   4.334
 8289TIP3    H124824   3.885   3.950   4.355
 8289TIP3    H224825   3.788   3.884   4.259
 8290TIP3   OH224826   1.720   5.929   4.273
 8290TIP3    H124827   1.710   5.944   4.179
 8290TIP3    H224828   1.792   5.987   4.299
 8291TIP3   OH224829   6.364   5.508   6.107
 8291TIP3    H124830   6.399   5.596   6.113
 8291TIP3    H224831   6.271   5.520   6.088
 8292TIP3   OH224832   6.491   3.574   2.183
 8292TIP3    H124833   6.432   3.512   2.141
 8292TIP3    H224834   6.546   3.520   2.239
 8293TIP3   OH224835   0.347   1.456   5.268
 8293TIP3    H124836   0.328   1.372   5.308
 8293TIP3    H224837   0.281   1.515   5.303
 8294TIP3   OH224838   3.265   0.475   5.743
 8294TIP3    H124839   3.195   0.418   5.711
 8294TIP3    H224840   3.345   0.426   5.727
 8295TIP3   OH224841   1.502   4.942   0.784
 8295TIP3    H124842   1.527   5.002   0.714
 8295TIP3    H224843   1.579   4.938   0.841
 8296TIP3   OH224844   0.119   1.444   4.344
 8296TIP3    H124845   0.207   1.439   4.307
 8296TIP3    H224846   0.062   1.460   4.269
 8297TIP3   OH224847   6.053   5.534   4.364
 8297TIP3    H124848   6.125   5.507   4.308
 8297TIP3    H224849   6.024   5.618   4.328
 8298TIP3   OH224850   5.737   1.517   4.775
 8298TIP3    H124851   5.823   1.523   4.733
 8298TIP3    H224852   5.718   1.423   4.778
 8299TIP3   OH224853   5.700   5.789   1.138
 8299TIP3    H124854   5.625   5.839   1.170
 8299TIP3    H224855   5.742   5.847   1.075
 8300TIP3   OH224856   1.998   2.020   0.180
 8300TIP3    H124857   1.932   2.053   0.242
 8300TIP3    H224858   2.047   1.954   0.229
 8301TIP3   OH224859   5.967   5.264   6.580
 8301TIP3    H124860   5.987   5.354   6.604
 8301TIP3    H224861   6.047   5.231   6.539
 8302TIP3   OH224862   4.854   5.397   4.935
 8302TIP3    H124863   4.783   5.425   4.992
 8302TIP3    H224864   4.933   5.406   4.989
 8303TIP3   OH224865   3.607   0.072   3.279
 8303TIP3    H124866   3.547   0.134   3.238
 8303TIP3    H224867   3.616   0.002   3.215
 8304TIP3   OH224868   5.503   5.479   0.347
 8304TIP3    H124869   5.563   5.450   0.278
 8304TIP3    H224870   5.550   5.463   0.428
 8305TIP3   OH224871   7.021   4.293   1.658
 8305TIP3    H124872   7.043   4.318   1.568
 8305TIP3    H224873   7.104   4.298   1.705
 8306TIP3   OH224874   7.650   4.366   2.789
 8306TIP3    H124875   7.694   4.449   2.808
 8306TIP3    H224876   7.666   4.351   2.696
 8307TIP3   OH224877   5.457   0.910   3.650
 8307TIP3    H124878   5.414   0.875   3.729
 8307TIP3    H224879   5.428   1.001   3.646
 8308TIP3   OH224880   6.630   1.128   5.481
 8308TIP3    H124881   6.720   1.096   5.490
 8308TIP3    H224882   6.638   1.210   5.433
 8309TIP3   OH224883   0.246   2.171   4.836
 8309TIP3    H124884   0.282   2.250   4.874
 8309TIP3    H224885   0.173   2.147   4.894
 8310TIP3   OH224886   3.691   4.195   1.371
 8310TIP3    H124887   3.720   4.112   1.409
 8310TIP3    H224888   3.764   4.255   1.387
 8311TIP3   OH224889   0.601   7.662   3.530
 8311TIP3    H124890   0.554   7.611   3.596
 8311TIP3    H224891   0.650   7.727   3.580
 8312TIP3   OH224892   1.698   4.995   2.947
 8312TIP3    H124893   1.616   5.018   2.903
 8312TIP3    H224894   1.690   4.901   2.964
 8313TIP3   OH224895   3.669   1.519   4.766
 8313TIP3    H124896   3.607   1.500   4.837
 8313TIP3    H224897   3.631   1.594   4.720
 8314TIP3   OH224898   5.303   0.366   5.812
 8314TIP3    H124899   5.232   0.420   5.847
 8314TIP3    H224900   5.328   0.309   5.885
 8315TIP3   OH224901   6.890   5.153   0.648
 8315TIP3    H124902   6.894   5.246   0.625
 8315TIP3    H224903   6.813   5.120   0.603
 8316TIP3   OH224904   2.004   1.797   4.238
 8316TIP3    H124905   1.975   1.828   4.324
 8316TIP3    H224906   2.002   1.875   4.183
 8317TIP3   OH224907   7.791   6.189   2.733
 8317TIP3    H124908   7.720   6.227   2.784
 8317TIP3    H224909   7.848   6.148   2.797
 8318TIP3   OH224910   7.125   7.333   6.391
 8318TIP3    H124911   7.126   7.317   6.485
 8318TIP3    H224912   7.038   7.306   6.362
 8319TIP3   OH224913   4.566   5.794   0.542
 8319TIP3    H124914   4.580   5.713   0.492
 8319TIP3    H224915   4.650   5.808   0.587
 8320TIP3   OH224916   1.178   5.607   1.304
 8320TIP3    H124917   1.138   5.580   1.222
 8320TIP3    H224918   1.259   5.557   1.309
 8321TIP3   OH224919   2.018   0.743   2.217
 8321TIP3    H124920   1.978   0.827   2.242
 8321TIP3    H224921   1.958   0.677   2.252
 8322TIP3   OH224922   7.242   3.995   2.510
 8322TIP3    H124923   7.244   3.906   2.474
 8322TIP3    H224924   7.217   3.983   2.602
 8323TIP3   OH224925   2.160   2.311   2.790
 8323TIP3    H124926   2.071   2.281   2.774
 8323TIP3    H224927   2.194   2.332   2.703
 8324TIP3   OH224928   5.424   1.187   4.295
 8324TIP3    H124929   5.438   1.243   4.372
 8324TIP3    H224930   5.499   1.127   4.295
 8325TIP3   OH224931   7.415   3.972   0.561
 8325TIP3    H124932   7.373   3.977   0.647
 8325TIP3    H224933   7.497   4.019   0.571
 8326TIP3   OH224934   0.650   3.534   6.633
 8326TIP3    H124935   0.642   3.480   6.712
 8326TIP3    H224936   0.735   3.511   6.596
 8327TIP3   OH224937   5.316   3.660   6.463
 8327TIP3    H124938   5.400   3.659   6.418
 8327TIP3    H224939   5.338   3.661   6.556
 8328TIP3   OH224940   7.163   3.383   2.973
 8328TIP3    H124941   7.188   3.299   2.935
 8328TIP3    H224942   7.210   3.448   2.920
 8329TIP3   OH224943   2.196   3.854   4.280
 8329TIP3    H124944   2.171   3.946   4.289
 8329TIP3    H224945   2.200   3.822   4.370
 8330TIP3   OH224946   4.818   7.559   4.060
 8330TIP3    H124947   4.762   7.483   4.073
 8330TIP3    H224948   4.761   7.624   4.019
 8331TIP3   OH224949   7.486   6.244   2.173
 8331TIP3    H124950   7.520   6.166   2.217
 8331TIP3    H224951   7.481   6.310   2.242
 8332TIP3   OH224952   7.582   0.324   3.294
 8332TIP3    H124953   7.542   0.410   3.309
 8332TIP3    H224954   7.516   0.275   3.245
 8333TIP3   OH224955   2.684   6.705   0.304
 8333TIP3    H124956   2.679   6.611   0.322
 8333TIP3    H224957   2.659   6.746   0.387
 8334TIP3   OH224958   8.253   1.012   2.609
 8334TIP3    H124959   8.306   1.025   2.687
 8334TIP3    H224960   8.166   0.988   2.642
 8335TIP3   OH224961   7.565   5.727   0.923
 8335TIP3    H124962   7.631   5.696   0.985
 8335TIP3    H224963   7.557   5.820   0.943
 8336TIP3   OH224964   3.362   7.677   2.227
 8336TIP3    H124965   3.318   7.726   2.158
 8336TIP3    H224966   3.426   7.738   2.264
 8337TIP3   OH224967   6.132   6.659   0.447
 8337TIP3    H124968   6.075   6.674   0.522
 8337TIP3    H224969   6.219   6.684   0.479
 8338TIP3   OH224970   1.654   4.399   6.359
 8338TIP3    H124971   1.564   4.372   6.343
 8338TIP3    H224972   1.655   4.493   6.342
 8339TIP3   OH224973   7.486   0.530   0.735
 8339TIP3    H124974   7.451   0.488   0.657
 8339TIP3    H224975   7.480   0.624   0.717
 8340TIP3   OH224976   1.186   1.978   6.586
 8340TIP3    H124977   1.213   2.070   6.583
 8340TIP3    H224978   1.264   1.929   6.562
 8341TIP3   OH224979   1.062   1.861   2.917
 8341TIP3    H124980   1.018   1.872   2.832
 8341TIP3    H224981   0.991   1.844   2.979
 8342TIP3   OH224982   6.350   7.503   3.658
 8342TIP3    H124983   6.332   7.527   3.566
 8342TIP3    H224984   6.411   7.430   3.652
 8343TIP3   OH224985   5.494   4.094   6.231
 8343TIP3    H124986   5.507   4.024   6.167
 8343TIP3    H224987   5.583   4.119   6.256
 8344TIP3   OH224988   0.964   4.747   2.699
 8344TIP3    H124989   1.008   4.809   2.757
 8344TIP3    H224990   0.884   4.723   2.745
 8345TIP3   OH224991   0.362   7.326   6.123
 8345TIP3    H124992   0.313   7.394   6.169
 8345TIP3    H224993   0.304   7.250   6.124
 8346TIP3   OH224994   2.794   0.477   2.286
 8346TIP3    H124995   2.757   0.556   2.324
 8346TIP3    H224996   2.728   0.409   2.304
 8347TIP3   OH224997   6.540   1.800   6.815
 8347TIP3    H124998   6.532   1.788   6.720
 8347TIP3    H224999   6.514   1.891   6.830
 8348TIP3   OH225000   4.305   1.994   5.348
 8348TIP3    H125001   4.337   2.042   5.272
 8348TIP3    H225002   4.333   1.904   5.333
 8349TIP3   OH225003   4.045   4.301   2.624
 8349TIP3    H125004   3.999   4.216   2.621
 8349TIP3    H225005   4.133   4.281   2.592
 8350TIP3   OH225006   1.182   0.612   0.194
 8350TIP3    H125007   1.128   0.609   0.273
 8350TIP3    H225008   1.228   0.528   0.194
 8351TIP3   OH225009   4.194   0.222   4.554
 8351TIP3    H125010   4.227   0.226   4.464
 8351TIP3    H225011   4.099   0.221   4.545
 8352TIP3   OH225012   5.204   4.201   5.178
 8352TIP3    H125013   5.234   4.126   5.229
 8352TIP3    H225014   5.239   4.186   5.090
 8353TIP3   OH225015   3.961   3.393   4.089
 8353TIP3    H125016   4.029   3.328   4.068
 8353TIP3    H225017   3.963   3.400   4.184
 8354TIP3   OH225018   1.594   3.004   5.422
 8354TIP3    H125019   1.526   3.032   5.483
 8354TIP3    H225020   1.568   3.043   5.338
 8355TIP3   OH225021   1.162   1.013   3.488
 8355TIP3    H125022   1.203   1.099   3.478
 8355TIP3    H225023   1.141   1.007   3.582
 8356TIP3   OH225024   2.969   4.986   3.921
 8356TIP3    H125025   2.969   5.059   3.983
 8356TIP3    H225026   2.885   4.994   3.875
 8357TIP3   OH225027   0.275   7.132   5.130
 8357TIP3    H125028   0.255   7.223   5.107
 8357TIP3    H225029   0.370   7.132   5.143
 8358TIP3   OH225030   6.007   2.112   5.331
 8358TIP3    H125031   6.021   2.188   5.275
 8358TIP3    H225032   6.094   2.077   5.347
 8359TIP3   OH225033   5.696   6.511   2.627
 8359TIP3    H125034   5.733   6.524   2.540
 8359TIP3    H225035   5.655   6.425   2.623
 8360TIP3   OH225036   4.839   3.446   0.775
 8360TIP3    H125037   4.787   3.373   0.811
 8360TIP3    H225038   4.794   3.470   0.694
 8361TIP3   OH225039   6.073   3.480   4.962
 8361TIP3    H125040   6.102   3.486   4.871
 8361TIP3    H225041   5.977   3.483   4.957
 8362TIP3   OH225042   3.866   1.226   1.647
 8362TIP3    H125043   3.908   1.294   1.700
 8362TIP3    H225044   3.776   1.221   1.680
 8363TIP3   OH225045   5.332   7.283   3.977
 8363TIP3    H125046   5.414   7.332   3.977
 8363TIP3    H225047   5.290   7.308   3.894
 8364TIP3   OH225048   7.534   7.066   0.752
 8364TIP3    H125049   7.627   7.085   0.739
 8364TIP3    H225050   7.512   7.007   0.680
 8365TIP3   OH225051   8.274   6.339   5.119
 8365TIP3    H125052   8.201   6.389   5.082
 8365TIP3    H225053   8.331   6.404   5.159
 8366TIP3   OH225054   6.450   0.825   2.307
 8366TIP3    H125055   6.426   0.792   2.394
 8366TIP3    H225056   6.505   0.901   2.325
 8367TIP3   OH225057   7.554   3.444   4.870
 8367TIP3    H125058   7.581   3.359   4.835
 8367TIP3    H225059   7.459   3.441   4.869
 8368TIP3   OH225060   8.072   2.340   1.231
 8368TIP3    H125061   8.055   2.422   1.185
 8368TIP3    H225062   7.991   2.290   1.224
 8369TIP3   OH225063   3.104   2.944   5.997
 8369TIP3    H125064   3.097   2.852   6.022
 8369TIP3    H225065   3.198   2.958   5.982
 8370TIP3   OH225066   0.461   0.637   3.149
 8370TIP3    H125067   0.491   0.561   3.100
 8370TIP3    H225068   0.541   0.675   3.187
 8371TIP3   OH225069   3.088   1.687   0.141
 8371TIP3    H125070   3.044   1.650   0.064
 8371TIP3    H225071   3.029   1.668   0.214
 8372TIP3   OH225072   5.512   7.774   1.562
 8372TIP3    H125073   5.586   7.834   1.574
 8372TIP3    H225074   5.472   7.801   1.480
 8373TIP3   OH225075   7.922   2.904   4.088
 8373TIP3    H125076   7.827   2.918   4.083
 8373TIP3    H225077   7.960   2.975   4.037
 8374TIP3   OH225078   4.207   0.745   1.609
 8374TIP3    H125079   4.230   0.837   1.600
 8374TIP3    H225080   4.187   0.734   1.702
 8375TIP3   OH225081   6.532   5.866   0.100
 8375TIP3    H125082   6.615   5.830   0.070
 8375TIP3    H225083   6.467   5.799   0.076
 8376TIP3   OH225084   1.454   1.314   0.788
 8376TIP3    H125085   1.475   1.318   0.882
 8376TIP3    H225086   1.415   1.228   0.776
 8377TIP3   OH225087   0.783   2.052   3.653
 8377TIP3    H125088   0.694   2.081   3.631
 8377TIP3    H225089   0.839   2.125   3.626
 8378TIP3   OH225090   0.276   5.162   2.718
 8378TIP3    H125091   0.249   5.252   2.698
 8378TIP3    H225092   0.282   5.160   2.813
 8379TIP3   OH225093   6.461   2.377   3.917
 8379TIP3    H125094   6.431   2.361   3.828
 8379TIP3    H225095   6.382   2.376   3.971
 8380TIP3   OH225096   5.801   4.174   6.626
 8380TIP3    H125097   5.815   4.082   6.648
 8380TIP3    H225098   5.764   4.173   6.538
 8381TIP3   OH225099   4.497   5.829   6.502
 8381TIP3    H125100   4.446   5.752   6.524
 8381TIP3    H225101   4.579   5.794   6.468
 8382TIP3   OH225102   0.766   1.836   5.523
 8382TIP3    H125103   0.676   1.827   5.493
 8382TIP3    H225104   0.814   1.871   5.447
 8383TIP3   OH225105   2.032   0.382   1.400
 8383TIP3    H125106   2.066   0.471   1.409
 8383TIP3    H225107   2.110   0.328   1.384
 8384TIP3   OH225108   0.752   7.126   3.569
 8384TIP3    H125109   0.668   7.159   3.601
 8384TIP3    H225110   0.817   7.175   3.618
 8385TIP3   OH225111   7.513   0.744   4.527
 8385TIP3    H125112   7.520   0.752   4.432
 8385TIP3    H225113   7.449   0.674   4.541
 8386TIP3   OH225114   1.009   7.517   5.274
 8386TIP3    H125115   0.940   7.455   5.299
 8386TIP3    H225116   1.060   7.471   5.207
 8387TIP3   OH225117   3.255   4.589   5.697
 8387TIP3    H125118   3.277   4.503   5.660
 8387TIP3    H225119   3.245   4.646   5.622
 8388TIP3   OH225120   2.351   0.675   3.766
 8388TIP3    H125121   2.334   0.581   3.756
 8388TIP3    H225122   2.446   0.681   3.780
 8389TIP3   OH225123   4.197   4.114   1.896
 8389TIP3    H125124   4.165   4.092   1.809
 8389TIP3    H225125   4.224   4.030   1.934
 8390TIP3   OH225126   5.436   5.081   1.424
 8390TIP3    H125127   5.420   4.986   1.420
 8390TIP3    H225128   5.427   5.102   1.516
 8391TIP3   OH225129   6.320   6.182   5.006
 8391TIP3    H125130   6.370   6.160   4.928
 8391TIP3    H225131   6.311   6.098   5.053
 8392TIP3   OH225132   6.924   6.955   5.437
 8392TIP3    H125133   6.968   6.893   5.495
 8392TIP3    H225134   6.835   6.921   5.429
 8393TIP3   OH225135   4.013   2.208   6.387
 8393TIP3    H125136   4.105   2.184   6.376
 8393TIP3    H225137   3.993   2.185   6.478
 8394TIP3   OH225138   2.345   7.637   5.556
 8394TIP3    H125139   2.410   7.570   5.577
 8394TIP3    H225140   2.273   7.618   5.616
 8395TIP3   OH225141   5.937   2.699   1.805
 8395TIP3    H125142   5.855   2.745   1.818
 8395TIP3    H225143   5.989   2.757   1.749
 8396TIP3   OH225144   0.378   5.950   0.443
 8396TIP3    H125145   0.324   6.025   0.468
 8396TIP3    H225146   0.392   5.903   0.525
 8397TIP3   OH225147   4.581   3.321   3.884
 8397TIP3    H125148   4.640   3.253   3.851
 8397TIP3    H225149   4.513   3.274   3.931
 8398TIP3   OH225150   4.454   6.881   3.763
 8398TIP3    H125151   4.468   6.851   3.853
 8398TIP3    H225152   4.455   6.801   3.710
 8399TIP3   OH225153   0.335   4.759   6.148
 8399TIP3    H125154   0.415   4.811   6.160
 8399TIP3    H225155   0.266   4.825   6.138
 8400TIP3   OH225156   5.799   6.928   4.346
 8400TIP3    H125157   5.857   6.856   4.372
 8400TIP3    H225158   5.752   6.952   4.426
 8401TIP3   OH225159   7.132   6.200   5.095
 8401TIP3    H125160   7.209   6.161   5.054
 8401TIP3    H225161   7.088   6.127   5.138
 8402TIP3   OH225162   4.592   4.211   2.977
 8402TIP3    H125163   4.542   4.131   2.993
 8402TIP3    H225164   4.681   4.180   2.957
 8403TIP3   OH225165   2.647   0.978   0.927
 8403TIP3    H125166   2.635   1.054   0.870
 8403TIP3    H225167   2.735   0.988   0.962
 8404TIP3   OH225168   3.912   1.378   4.766
 8404TIP3    H125169   3.975   1.439   4.727
 8404TIP3    H225170   3.833   1.430   4.781
 8405TIP3   OH225171   6.176   2.597   6.401
 8405TIP3    H125172   6.269   2.581   6.389
 8405TIP3    H225173   6.152   2.656   6.329
 8406TIP3   OH225174   3.581   0.104   4.396
 8406TIP3    H125175   3.528   0.036   4.438
 8406TIP3    H225176   3.627   0.059   4.326
 8407TIP3   OH225177   7.806   4.331   5.902
 8407TIP3    H125178   7.781   4.385   5.827
 8407TIP3    H225179   7.725   4.285   5.927
 8408TIP3   OH225180   6.419   1.677   2.903
 8408TIP3    H125181   6.484   1.609   2.920
 8408TIP3    H225182   6.383   1.697   2.990
 8409TIP3   OH225183   5.156   2.494   2.493
 8409TIP3    H125184   5.127   2.409   2.525
 8409TIP3    H225185   5.162   2.483   2.398
 8410TIP3   OH225186   4.125   3.658   6.503
 8410TIP3    H125187   4.185   3.720   6.545
 8410TIP3    H225188   4.071   3.712   6.446
 8411TIP3   OH225189   7.437   5.137   4.305
 8411TIP3    H125190   7.455   5.221   4.262
 8411TIP3    H225191   7.415   5.077   4.234
 8412TIP3   OH225192   2.654   5.652   5.761
 8412TIP3    H125193   2.696   5.618   5.841
 8412TIP3    H225194   2.705   5.730   5.739
 8413TIP3   OH225195   0.510   4.258   1.239
 8413TIP3    H125196   0.511   4.334   1.180
 8413TIP3    H225197   0.417   4.234   1.245
 8414TIP3   OH225198   2.725   7.401   5.711
 8414TIP3    H125199   2.644   7.383   5.664
 8414TIP3    H225200   2.760   7.315   5.733
 8415TIP3   OH225201   5.212   3.786   5.126
 8415TIP3    H125202   5.127   3.807   5.166
 8415TIP3    H225203   5.267   3.758   5.199
 8416TIP3   OH225204   7.963   5.175   3.112
 8416TIP3    H125205   8.047   5.160   3.156
 8416TIP3    H225206   7.972   5.262   3.073
 8417TIP3   OH225207   4.146   5.081   1.826
 8417TIP3    H125208   4.071   5.129   1.863
 8417TIP3    H225209   4.211   5.148   1.806
 8418TIP3   OH225210   6.751   3.724   4.737
 8418TIP3    H125211   6.836   3.758   4.708
 8418TIP3    H225212   6.694   3.736   4.661
 8419TIP3   OH225213   6.874   7.170   5.665
 8419TIP3    H125214   6.897   7.083   5.631
 8419TIP3    H225215   6.951   7.224   5.649
 8420TIP3   OH225216   4.258   0.881   1.257
 8420TIP3    H125217   4.269   0.786   1.257
 8420TIP3    H225218   4.172   0.896   1.219
 8421TIP3   OH225219   3.633   1.571   3.693
 8421TIP3    H125220   3.665   1.660   3.710
 8421TIP3    H225221   3.708   1.525   3.655
 8422TIP3   OH225222   6.485   4.258   4.760
 8422TIP3    H125223   6.463   4.165   4.766
 8422TIP3    H225224   6.577   4.263   4.786
 8423TIP3   OH225225   5.726   6.301   2.122
 8423TIP3    H125226   5.744   6.381   2.073
 8423TIP3    H225227   5.644   6.268   2.086
 8424TIP3   OH225228   2.057   1.722   4.544
 8424TIP3    H125229   1.993   1.794   4.543
 8424TIP3    H225230   2.126   1.751   4.484
 8425TIP3   OH225231   8.173   0.154   6.661
 8425TIP3    H125232   8.160   0.152   6.756
 8425TIP3    H225233   8.098   0.202   6.627
 8426TIP3   OH225234   0.671   5.079   4.860
 8426TIP3    H125235   0.632   5.139   4.796
 8426TIP3    H225236   0.755   5.119   4.883
 8427TIP3   OH225237   3.056   4.314   1.742
 8427TIP3    H125238   3.048   4.219   1.727
 8427TIP3    H225239   3.140   4.337   1.702
 8428TIP3   OH225240   5.637   6.378   6.350
 8428TIP3    H125241   5.690   6.299   6.338
 8428TIP3    H225242   5.636   6.419   6.264
 8429TIP3   OH225243   3.794   3.732   0.219
 8429TIP3    H125244   3.868   3.703   0.272
 8429TIP3    H225245   3.826   3.726   0.129
 8430TIP3   OH225246   5.773   4.321   2.870
 8430TIP3    H125247   5.727   4.270   2.936
 8430TIP3    H225248   5.757   4.412   2.895
 8431TIP3   OH225249   8.061   6.721   6.470
 8431TIP3    H125250   8.136   6.718   6.410
 8431TIP3    H225251   8.066   6.639   6.519
 8432TIP3   OH225252   1.495   4.360   3.185
 8432TIP3    H125253   1.509   4.420   3.259
 8432TIP3    H225254   1.408   4.382   3.153
 8433TIP3   OH225255   2.565   6.084   3.045
 8433TIP3    H125256   2.481   6.040   3.030
 8433TIP3    H225257   2.550   6.139   3.122
 8434TIP3   OH225258   5.241   1.804   5.471
 8434TIP3    H125259   5.333   1.787   5.451
 8434TIP3    H225260   5.196   1.799   5.386
 8435TIP3   OH225261   0.878   3.126   2.228
 8435TIP3    H125262   0.801   3.183   2.225
 8435TIP3    H225263   0.843   3.038   2.215
 8436TIP3   OH225264   7.358   0.329   3.741
 8436TIP3    H125265   7.422   0.273   3.698
 8436TIP3    H225266   7.381   0.418   3.715
 8437TIP3   OH225267   4.767   4.216   1.562
 8437TIP3    H125268   4.734   4.281   1.499
 8437TIP3    H225269   4.772   4.135   1.511
 8438TIP3   OH225270   5.108   1.728   5.832
 8438TIP3    H125271   5.091   1.657   5.893
 8438TIP3    H225272   5.100   1.808   5.885
 8439TIP3   OH225273   1.598   4.399   2.581
 8439TIP3    H125274   1.692   4.407   2.593
 8439TIP3    H225275   1.565   4.489   2.586
 8440TIP3   OH225276   6.439   7.780   6.645
 8440TIP3    H125277   6.450   7.703   6.589
 8440TIP3    H225278   6.364   7.759   6.700
 8441TIP3   OH225279   1.738   0.043   0.876
 8441TIP3    H125280   1.690   0.091   0.944
 8441TIP3    H225281   1.827   0.077   0.882
 8442TIP3   OH225282   4.013   0.238   2.361
 8442TIP3    H125283   3.936   0.256   2.306
 8442TIP3    H225284   4.025   0.318   2.412
 8443TIP3   OH225285   5.478   0.252   0.447
 8443TIP3    H125286   5.552   0.259   0.507
 8443TIP3    H225287   5.518   0.252   0.360
 8444TIP3   OH225288   3.650   0.512   2.295
 8444TIP3    H125289   3.615   0.530   2.207
 8444TIP3    H225290   3.657   0.417   2.300
 8445TIP3   OH225291   2.586   6.263   6.349
 8445TIP3    H125292   2.505   6.314   6.339
 8445TIP3    H225293   2.556   6.177   6.378
 8446TIP3   OH225294   7.070   5.195   6.681
 8446TIP3    H125295   7.037   5.208   6.769
 8446TIP3    H225296   7.134   5.124   6.689
 8447TIP3   OH225297   0.875   1.560   5.111
 8447TIP3    H125298   0.940   1.631   5.112
 8447TIP3    H225299   0.923   1.483   5.082
 8448TIP3   OH225300   4.897   6.629   0.684
 8448TIP3    H125301   4.980   6.625   0.636
 8448TIP3    H225302   4.886   6.542   0.720
 8449TIP3   OH225303   8.235   2.819   3.302
 8449TIP3    H125304   8.142   2.814   3.324
 8449TIP3    H225305   8.242   2.778   3.216
 8450TIP3   OH225306   5.044   7.347   5.539
 8450TIP3    H125307   5.010   7.369   5.626
 8450TIP3    H225308   4.972   7.367   5.479
 8451TIP3   OH225309   0.219   4.997   2.507
 8451TIP3    H125310   0.200   4.927   2.444
 8451TIP3    H225311   0.134   5.036   2.526
 8452TIP3   OH225312   8.208   3.079   5.469
 8452TIP3    H125313   8.295   3.084   5.509
 8452TIP3    H225314   8.164   3.008   5.516
 8453TIP3   OH225315   8.340   5.058   4.205
 8453TIP3    H125316   8.245   5.042   4.206
 8453TIP3    H225317   8.366   5.039   4.115
 8454TIP3   OH225318   4.862   3.554   2.556
 8454TIP3    H125319   4.884   3.520   2.642
 8454TIP3    H225320   4.945   3.586   2.521
 8455TIP3   OH225321   5.106   4.268   0.750
 8455TIP3    H125322   5.053   4.346   0.735
 8455TIP3    H225323   5.107   4.223   0.666
 8456TIP3   OH225324   8.151   2.336   2.316
 8456TIP3    H125325   8.235   2.357   2.273
 8456TIP3    H225326   8.176   2.284   2.392
 8457TIP3   OH225327   5.953   2.024   5.026
 8457TIP3    H125328   6.030   1.985   5.069
 8457TIP3    H225329   5.988   2.063   4.946
 8458TIP3   OH225330   0.639   7.460   5.948
 8458TIP3    H125331   0.546   7.479   5.939
 8458TIP3    H225332   0.666   7.427   5.862
 8459TIP3   OH225333   4.893   2.817   0.044
 8459TIP3    H125334   4.915   2.724   0.053
 8459TIP3    H225335   4.838   2.821  -0.034
 8460TIP3   OH225336   3.742   6.655   0.589
 8460TIP3    H125337   3.758   6.722   0.655
 8460TIP3    H225338   3.777   6.691   0.508
 8461TIP3   OH225339   3.600   7.322   6.619
 8461TIP3    H125340   3.655   7.251   6.587
 8461TIP3    H225341   3.514   7.282   6.633
 8462TIP3   OH225342   1.420   4.823   1.397
 8462TIP3    H125343   1.359   4.752   1.377
 8462TIP3    H225344   1.506   4.787   1.373
 8463TIP3   OH225345   0.506   5.765   2.743
 8463TIP3    H125346   0.470   5.850   2.766
 8463TIP3    H225347   0.430   5.714   2.714
 8464TIP3   OH225348   6.046   7.069   5.961
 8464TIP3    H125349   5.954   7.069   5.937
 8464TIP3    H225350   6.054   6.999   6.026
 8465TIP3   OH225351   3.470   5.116   5.141
 8465TIP3    H125352   3.516   5.168   5.207
 8465TIP3    H225353   3.389   5.164   5.126
 8466TIP3   OH225354   7.734   1.226   5.961
 8466TIP3    H125355   7.746   1.321   5.957
 8466TIP3    H225356   7.640   1.213   5.945
 8467TIP3   OH225357   3.279   2.311   4.808
 8467TIP3    H125358   3.227   2.316   4.729
 8467TIP3    H225359   3.242   2.238   4.857
 8468TIP3   OH225360   3.376   6.079   1.359
 8468TIP3    H125361   3.301   6.128   1.393
 8468TIP3    H225362   3.356   5.988   1.379
 8469TIP3   OH225363   5.317   6.726   6.303
 8469TIP3    H125364   5.410   6.718   6.281
 8469TIP3    H225365   5.281   6.639   6.289
 8470TIP3   OH225366   3.699   2.700   3.272
 8470TIP3    H125367   3.750   2.737   3.344
 8470TIP3    H225368   3.753   2.628   3.240
 8471TIP3   OH225369   1.603   2.382   0.559
 8471TIP3    H125370   1.657   2.368   0.637
 8471TIP3    H225371   1.627   2.311   0.500
 8472TIP3   OH225372   3.597   3.088   0.367
 8472TIP3    H125373   3.539   3.150   0.322
 8472TIP3    H225374   3.648   3.143   0.427
 8473TIP3   OH225375   5.944   3.644   1.033
 8473TIP3    H125376   5.990   3.654   1.117
 8473TIP3    H225377   5.933   3.550   1.023
 8474TIP3   OH225378   4.943   2.215   4.530
 8474TIP3    H125379   4.853   2.206   4.561
 8474TIP3    H225380   4.974   2.296   4.569
 8475TIP3   OH225381   2.356   4.869   1.148
 8475TIP3    H125382   2.370   4.779   1.176
 8475TIP3    H225383   2.324   4.914   1.226
 8476TIP3   OH225384   6.981   1.164   0.656
 8476TIP3    H125385   6.942   1.180   0.742
 8476TIP3    H225386   7.014   1.075   0.661
 8477TIP3   OH225387   6.104   4.737   1.003
 8477TIP3    H125388   6.039   4.704   0.941
 8477TIP3    H225389   6.081   4.829   1.016
 8478TIP3   OH225390   1.562   7.073   3.266
 8478TIP3    H125391   1.544   7.032   3.351
 8478TIP3    H225392   1.610   7.153   3.288
 8479TIP3   OH225393   6.662   2.725   4.531
 8479TIP3    H125394   6.584   2.766   4.494
 8479TIP3    H225395   6.642   2.717   4.625
 8480TIP3   OH225396   1.263   1.769   0.624
 8480TIP3    H125397   1.252   1.678   0.651
 8480TIP3    H225398   1.280   1.764   0.530
 8481TIP3   OH225399   3.985   4.181   1.582
 8481TIP3    H125400   4.044   4.157   1.510
 8481TIP3    H225401   3.995   4.276   1.590
 8482TIP3   OH225402   6.083   0.740   4.357
 8482TIP3    H125403   6.115   0.650   4.360
 8482TIP3    H225404   6.161   0.794   4.351
 8483TIP3   OH225405   5.556   4.585   0.818
 8483TIP3    H125406   5.639   4.623   0.788
 8483TIP3    H225407   5.573   4.491   0.823
 8484TIP3   OH225408   0.664   2.558   3.322
 8484TIP3    H125409   0.646   2.531   3.232
 8484TIP3    H225410   0.607   2.633   3.337
 8485TIP3   OH225411   4.583   1.008   5.353
 8485TIP3    H125412   4.603   0.980   5.263
 8485TIP3    H225413   4.519   1.079   5.343
 8486TIP3   OH225414   8.208   3.182   4.657
 8486TIP3    H125415   8.216   3.146   4.745
 8486TIP3    H225416   8.131   3.139   4.620
 8487TIP3   OH225417   5.557   0.749   3.154
 8487TIP3    H125418   5.480   0.797   3.121
 8487TIP3    H225419   5.558   0.668   3.103
 8488TIP3   OH225420   5.933   2.996   1.714
 8488TIP3    H125421   5.851   3.005   1.664
 8488TIP3    H225422   5.961   3.086   1.730
 8489TIP3   OH225423   1.133   5.092   3.315
 8489TIP3    H125424   1.057   5.041   3.343
 8489TIP3    H225425   1.148   5.154   3.386
 8490TIP3   OH225426   7.578   6.868   0.221
 8490TIP3    H125427   7.630   6.857   0.142
 8490TIP3    H225428   7.642   6.893   0.288
 8491TIP3   OH225429   6.123   0.616   5.722
 8491TIP3    H125430   6.189   0.575   5.778
 8491TIP3    H225431   6.069   0.668   5.781
 8492TIP3   OH225432   7.892   6.674   5.065
 8492TIP3    H125433   7.973   6.673   5.116
 8492TIP3    H225434   7.847   6.593   5.090
 8493TIP3   OH225435   5.222   6.237   3.072
 8493TIP3    H125436   5.144   6.184   3.091
 8493TIP3    H225437   5.210   6.267   2.982
 8494TIP3   OH225438  -0.021   5.694   4.741
 8494TIP3    H125439  -0.107   5.678   4.778
 8494TIP3    H225440   0.024   5.748   4.806
 8495TIP3   OH225441   4.802   6.990   3.586
 8495TIP3    H125442   4.858   7.045   3.641
 8495TIP3    H225443   4.813   6.902   3.620
 8496TIP3   OH225444   5.635   6.292   4.666
 8496TIP3    H125445   5.576   6.238   4.613
 8496TIP3    H225446   5.656   6.237   4.741
 8497TIP3   OH225447   0.339   6.838   1.874
 8497TIP3    H125448   0.404   6.863   1.810
 8497TIP3    H225449   0.264   6.808   1.822
 8498TIP3   OH225450   7.799   7.524   5.476
 8498TIP3    H125451   7.858   7.588   5.436
 8498TIP3    H225452   7.711   7.556   5.456
 8499TIP3   OH225453   5.562   7.134   3.413
 8499TIP3    H125454   5.626   7.091   3.469
 8499TIP3    H225455   5.502   7.179   3.473
 8500TIP3   OH225456   7.176   5.743   3.797
 8500TIP3    H125457   7.116   5.803   3.754
 8500TIP3    H225458   7.144   5.656   3.775
 8501TIP3   OH225459   5.174   4.438   6.726
 8501TIP3    H125460   5.238   4.396   6.784
 8501TIP3    H225461   5.218   4.444   6.641
 8502TIP3   OH225462   1.766   6.786   2.591
 8502TIP3    H125463   1.765   6.768   2.685
 8502TIP3    H225464   1.697   6.851   2.578
 8503TIP3   OH225465   6.012   7.353   0.407
 8503TIP3    H125466   5.986   7.307   0.327
 8503TIP3    H225467   5.954   7.429   0.411
 8504TIP3   OH225468   2.044   6.131   5.786
 8504TIP3    H125469   2.012   6.190   5.854
 8504TIP3    H225470   2.072   6.052   5.832
 8505TIP3   OH225471   8.058   4.153   5.786
 8505TIP3    H125472   8.010   4.228   5.820
 8505TIP3    H225473   8.150   4.173   5.802
 8506TIP3   OH225474   7.668   1.198   1.442
 8506TIP3    H125475   7.697   1.289   1.438
 8506TIP3    H225476   7.589   1.201   1.496
 8507TIP3   OH225477   2.677   0.179   3.532
 8507TIP3    H125478   2.741   0.145   3.595
 8507TIP3    H225479   2.593   0.145   3.561
 8508TIP3   OH225480   0.553   7.788   0.694
 8508TIP3    H125481   0.568   7.708   0.643
 8508TIP3    H225482   0.621   7.786   0.761
 8509TIP3   OH225483   3.652   6.908   2.750
 8509TIP3    H125484   3.630   6.880   2.839
 8509TIP3    H225485   3.576   6.959   2.721
 8510TIP3   OH225486   7.144   6.094   6.592
 8510TIP3    H125487   7.117   6.183   6.613
 8510TIP3    H225488   7.067   6.053   6.553
 8511TIP3   OH225489   0.067   4.610   1.442
 8511TIP3    H125490   0.026   4.586   1.525
 8511TIP3    H225491   0.160   4.617   1.461
 8512TIP3   OH225492   7.673   1.294   4.144
 8512TIP3    H125493   7.708   1.378   4.174
 8512TIP3    H225494   7.750   1.244   4.119
 8513TIP3   OH225495   2.036   6.656   0.174
 8513TIP3    H125496   2.130   6.662   0.156
 8513TIP3    H225497   2.022   6.564   0.195
 8514TIP3   OH225498   4.931   1.410   1.589
 8514TIP3    H125499   4.877   1.474   1.543
 8514TIP3    H225500   4.899   1.411   1.679
 8515TIP3   OH225501   1.654   2.036   2.594
 8515TIP3    H125502   1.744   2.027   2.563
 8515TIP3    H225503   1.645   1.970   2.662
 8516TIP3   OH225504   7.855   5.966   5.828
 8516TIP3    H125505   7.786   5.899   5.832
 8516TIP3    H225506   7.935   5.917   5.807
 8517TIP3   OH225507   4.839   6.824   1.854
 8517TIP3    H125508   4.763   6.853   1.803
 8517TIP3    H225509   4.909   6.815   1.790
 8518TIP3   OH225510   5.217   7.471   6.207
 8518TIP3    H125511   5.309   7.482   6.232
 8518TIP3    H225512   5.168   7.506   6.281
 8519TIP3   OH225513   4.639   1.097   3.591
 8519TIP3    H125514   4.615   1.007   3.615
 8519TIP3    H225515   4.695   1.086   3.514
 8520TIP3   OH225516   1.995   0.829   0.740
 8520TIP3    H125517   1.924   0.766   0.727
 8520TIP3    H225518   1.952   0.906   0.778
 8521TIP3   OH225519   6.871   3.153   0.853
 8521TIP3    H125520   6.911   3.091   0.914
 8521TIP3    H225521   6.810   3.204   0.906
 8522TIP3   OH225522   2.262   5.141   0.892
 8522TIP3    H125523   2.194   5.131   0.959
 8522TIP3    H225524   2.215   5.131   0.809
 8523TIP3   OH225525   2.267   4.338   1.320
 8523TIP3    H125526   2.360   4.317   1.308
 8523TIP3    H225527   2.260   4.362   1.412
 8524TIP3   OH225528   0.855   7.414   2.124
 8524TIP3    H125529   0.933   7.378   2.082
 8524TIP3    H225530   0.825   7.343   2.182
 8525TIP3   OH225531   3.094   3.235   6.677
 8525TIP3    H125532   3.101   3.181   6.599
 8525TIP3    H225533   3.103   3.325   6.644
 8526TIP3   OH225534   0.276   3.012   1.708
 8526TIP3    H125535   0.275   3.065   1.787
 8526TIP3    H225536   0.185   3.013   1.677
 8527TIP3   OH225537   6.640   5.087   4.521
 8527TIP3    H125538   6.687   5.005   4.502
 8527TIP3    H225539   6.607   5.075   4.610
 8528TIP3   OH225540   1.799   5.912   0.839
 8528TIP3    H125541   1.776   5.984   0.898
 8528TIP3    H225542   1.780   5.946   0.751
 8529TIP3   OH225543   0.055   4.124   4.020
 8529TIP3    H125544   0.102   4.046   4.050
 8529TIP3    H225545  -0.036   4.094   4.009
 8530TIP3   OH225546   6.196   0.932   0.395
 8530TIP3    H125547   6.230   0.856   0.348
 8530TIP3    H225548   6.242   0.932   0.479
 8531TIP3   OH225549   4.220   6.741   1.315
 8531TIP3    H125550   4.228   6.749   1.410
 8531TIP3    H225551   4.155   6.671   1.303
 8532TIP3   OH225552   8.147   6.082   1.449
 8532TIP3    H125553   8.105   6.009   1.494
 8532TIP3    H225554   8.100   6.160   1.482
 8533TIP3   OH225555   4.263   6.543   4.967
 8533TIP3    H125556   4.339   6.598   4.945
 8533TIP3    H225557   4.293   6.454   4.952
 8534TIP3   OH225558   4.558   3.954   3.470
 8534TIP3    H125559   4.528   3.916   3.553
 8534TIP3    H225560   4.581   4.044   3.492
 8535TIP3   OH225561   2.574   5.207   3.607
 8535TIP3    H125562   2.551   5.122   3.643
 8535TIP3    H225563   2.491   5.242   3.574
 8536TIP3   OH225564   4.178   5.779   5.875
 8536TIP3    H125565   4.109   5.817   5.821
 8536TIP3    H225566   4.154   5.801   5.964
 8537TIP3   OH225567   5.707   3.399   4.621
 8537TIP3    H125568   5.791   3.443   4.632
 8537TIP3    H225569   5.643   3.470   4.613
 8538TIP3   OH225570   3.907   5.604   6.011
 8538TIP3    H125571   3.918   5.511   5.989
 8538TIP3    H225572   3.848   5.637   5.944
 8539TIP3   OH225573   2.649   3.040   2.373
 8539TIP3    H125574   2.619   3.105   2.311
 8539TIP3    H225575   2.734   3.012   2.340
 8540TIP3   OH225576   2.681   5.247   0.148
 8540TIP3    H125577   2.724   5.296   0.218
 8540TIP3    H225578   2.732   5.266   0.069
 8541TIP3   OH225579   0.945   0.525   2.456
 8541TIP3    H125580   0.995   0.502   2.534
 8541TIP3    H225581   0.865   0.565   2.489
 8542TIP3   OH225582   6.925   4.643   1.584
 8542TIP3    H125583   6.837   4.637   1.621
 8542TIP3    H225584   6.967   4.561   1.607
 8543TIP3   OH225585   2.313   1.734   0.841
 8543TIP3    H125586   2.262   1.762   0.765
 8543TIP3    H225587   2.316   1.639   0.834
 8544TIP3   OH225588   0.442   4.530   4.811
 8544TIP3    H125589   0.476   4.519   4.722
 8544TIP3    H225590   0.465   4.620   4.835
 8545TIP3   OH225591   5.231   4.153   2.892
 8545TIP3    H125592   5.285   4.232   2.886
 8545TIP3    H225593   5.167   4.174   2.960
 8546TIP3   OH225594   2.883   4.727   4.336
 8546TIP3    H125595   2.845   4.665   4.274
 8546TIP3    H225596   2.968   4.689   4.358
 8547TIP3   OH225597   3.649   3.554   4.449
 8547TIP3    H125598   3.639   3.566   4.355
 8547TIP3    H225599   3.564   3.578   4.485
 8548TIP3   OH225600   7.997   6.115   3.298
 8548TIP3    H125601   7.955   6.145   3.217
 8548TIP3    H225602   7.979   6.021   3.301
 8549TIP3   OH225603   1.738   1.851   3.414
 8549TIP3    H125604   1.655   1.890   3.440
 8549TIP3    H225605   1.770   1.807   3.492
 8550TIP3   OH225606   6.351   4.367   4.524
 8550TIP3    H125607   6.374   4.316   4.601
 8550TIP3    H225608   6.435   4.398   4.490
 8551TIP3   OH225609   5.001   4.358   5.744
 8551TIP3    H125610   5.070   4.309   5.789
 8551TIP3    H225611   4.937   4.292   5.718
 8552TIP3   OH225612   2.576   3.254   2.240
 8552TIP3    H125613   2.653   3.293   2.197
 8552TIP3    H225614   2.501   3.296   2.197
 8553TIP3   OH225615   2.976   2.379   0.480
 8553TIP3    H125616   2.969   2.313   0.411
 8553TIP3    H225617   2.996   2.461   0.434
 8554TIP3   OH225618   2.629   6.918   4.890
 8554TIP3    H125619   2.680   6.996   4.868
 8554TIP3    H225620   2.640   6.908   4.984
 8555TIP3   OH225621   2.105   0.021   1.964
 8555TIP3    H125622   2.162   0.064   2.029
 8555TIP3    H225623   2.040   0.087   1.942
 8556TIP3   OH225624   0.694   5.613   5.618
 8556TIP3    H125625   0.640   5.588   5.543
 8556TIP3    H225626   0.767   5.662   5.581
 8557TIP3   OH225627   1.838   6.852   3.472
 8557TIP3    H125628   1.823   6.858   3.566
 8557TIP3    H225629   1.753   6.871   3.433
 8558TIP3   OH225630   3.016   3.962   6.582
 8558TIP3    H125631   2.991   3.933   6.494
 8558TIP3    H225632   3.042   3.882   6.628
 8559TIP3   OH225633   1.265   0.317   3.953
 8559TIP3    H125634   1.178   0.302   3.916
 8559TIP3    H225635   1.248   0.363   4.036
 8560TIP3   OH225636   3.707   6.000   2.318
 8560TIP3    H125637   3.704   5.963   2.230
 8560TIP3    H225638   3.796   6.034   2.327
 8561TIP3   OH225639   3.449   5.870   1.154
 8561TIP3    H125640   3.484   5.949   1.194
 8561TIP3    H225641   3.527   5.818   1.133
 8562TIP3   OH225642   0.337   4.518   5.219
 8562TIP3    H125643   0.322   4.512   5.124
 8562TIP3    H225644   0.254   4.490   5.258
 8563TIP3   OH225645   4.437   1.031   3.072
 8563TIP3    H125646   4.376   0.963   3.043
 8563TIP3    H225647   4.457   1.080   2.992
 8564TIP3   OH225648   0.463   7.431   1.350
 8564TIP3    H125649   0.550   7.470   1.337
 8564TIP3    H225650   0.404   7.506   1.354
 8565TIP3   OH225651   0.514   3.926   3.857
 8565TIP3    H125652   0.521   3.967   3.770
 8565TIP3    H225653   0.561   3.843   3.848
 8566TIP3   OH225654   4.959   0.748   5.588
 8566TIP3    H125655   5.015   0.823   5.610
 8566TIP3    H225656   4.894   0.745   5.658
 8567TIP3   OH225657   6.424   1.315   3.129
 8567TIP3    H125658   6.413   1.323   3.034
 8567TIP3    H225659   6.519   1.324   3.143
 8568TIP3   OH225660   8.044   7.149   4.208
 8568TIP3    H125661   7.962   7.117   4.170
 8568TIP3    H225662   8.062   7.088   4.280
 8569TIP3   OH225663   2.856   0.425   4.300
 8569TIP3    H125664   2.926   0.464   4.353
 8569TIP3    H225665   2.775   0.457   4.341
 8570TIP3   OH225666   3.707   7.157   5.964
 8570TIP3    H125667   3.798   7.169   5.991
 8570TIP3    H225668   3.706   7.178   5.871
 8571TIP3   OH225669   6.753   4.529   2.934
 8571TIP3    H125670   6.808   4.492   2.865
 8571TIP3    H225671   6.733   4.456   2.992
 8572TIP3   OH225672   5.456   5.638   1.782
 8572TIP3    H125673   5.520   5.705   1.806
 8572TIP3    H225674   5.375   5.686   1.769
 8573TIP3   OH225675   1.162   0.262   3.570
 8573TIP3    H125676   1.098   0.235   3.503
 8573TIP3    H225677   1.204   0.339   3.532
 8574TIP3   OH225678   7.104   4.670   4.007
 8574TIP3    H125679   7.158   4.663   4.086
 8574TIP3    H225680   7.088   4.764   3.997
 8575TIP3   OH225681   3.195   2.355   6.067
 8575TIP3    H125682   3.264   2.419   6.049
 8575TIP3    H225683   3.241   2.271   6.073
 8576TIP3   OH225684   0.801   4.335   4.287
 8576TIP3    H125685   0.728   4.369   4.235
 8576TIP3    H225686   0.764   4.264   4.338
 8577TIP3   OH225687   2.960   7.085   1.881
 8577TIP3    H125688   3.027   7.142   1.843
 8577TIP3    H225689   2.935   7.128   1.962
 8578TIP3   OH225690   4.592   4.097   5.129
 8578TIP3    H125691   4.553   4.179   5.100
 8578TIP3    H225692   4.561   4.032   5.065
 8579TIP3   OH225693   4.605   3.347   4.370
 8579TIP3    H125694   4.561   3.294   4.303
 8579TIP3    H225695   4.698   3.330   4.357
 8580TIP3   OH225696   6.480   7.548   4.206
 8580TIP3    H125697   6.414   7.515   4.144
 8580TIP3    H225698   6.555   7.571   4.150
 8581TIP3   OH225699   6.046   3.253   1.198
 8581TIP3    H125700   6.106   3.179   1.189
 8581TIP3    H225701   6.082   3.305   1.270
 8582TIP3   OH225702   0.162   7.267   3.673
 8582TIP3    H125703   0.152   7.191   3.615
 8582TIP3    H225704   0.251   7.298   3.657
 8583TIP3   OH225705   7.769   4.478   3.216
 8583TIP3    H125706   7.688   4.515   3.251
 8583TIP3    H225707   7.819   4.554   3.186
 8584TIP3   OH225708   0.908   4.583   4.364
 8584TIP3    H125709   0.858   4.502   4.355
 8584TIP3    H225710   0.884   4.635   4.288
 8585TIP3   OH225711   7.831   2.144   5.429
 8585TIP3    H125712   7.903   2.208   5.427
 8585TIP3    H225713   7.763   2.183   5.374
 8586TIP3   OH225714   5.707   1.135   3.373
 8586TIP3    H125715   5.778   1.124   3.435
 8586TIP3    H225716   5.715   1.225   3.342
 8587TIP3   OH225717   4.735   2.597   0.591
 8587TIP3    H125718   4.824   2.632   0.594
 8587TIP3    H225719   4.740   2.515   0.640
 8588TIP3   OH225720   7.177   3.160   1.407
 8588TIP3    H125721   7.132   3.104   1.470
 8588TIP3    H225722   7.118   3.161   1.331
 8589TIP3   OH225723   8.121   4.836   3.844
 8589TIP3    H125724   8.104   4.792   3.761
 8589TIP3    H225725   8.186   4.903   3.822
 8590TIP3   OH225726   0.343   1.664   1.518
 8590TIP3    H125727   0.418   1.720   1.538
 8590TIP3    H225728   0.336   1.605   1.593
 8591TIP3   OH225729   7.761   1.202   3.046
 8591TIP3    H125730   7.772   1.265   3.118
 8591TIP3    H225731   7.763   1.255   2.967
 8592TIP3   OH225732   6.428   2.759   4.386
 8592TIP3    H125733   6.362   2.736   4.451
 8592TIP3    H225734   6.392   2.727   4.303
 8593TIP3   OH225735   6.862   0.933   5.544
 8593TIP3    H125736   6.934   0.942   5.482
 8593TIP3    H225737   6.889   0.860   5.601
 8594TIP3   OH225738   3.968   1.407   1.817
 8594TIP3    H125739   3.912   1.401   1.894
 8594TIP3    H225740   3.986   1.501   1.807
 8595TIP3   OH225741   1.605   0.111   4.043
 8595TIP3    H125742   1.585   0.127   3.951
 8595TIP3    H225743   1.691   0.151   4.057
 8596TIP3   OH225744   7.339   1.778   1.730
 8596TIP3    H125745   7.423   1.735   1.745
 8596TIP3    H225746   7.361   1.857   1.682
 8597TIP3   OH225747   6.745   7.617   2.797
 8597TIP3    H125748   6.808   7.642   2.729
 8597TIP3    H225749   6.662   7.605   2.751
 8598TIP3   OH225750   7.211   4.849   4.257
 8598TIP3    H125751   7.159   4.844   4.337
 8598TIP3    H225752   7.202   4.940   4.229
 8599TIP3   OH225753   3.889   1.608   2.514
 8599TIP3    H125754   3.929   1.582   2.431
 8599TIP3    H225755   3.928   1.693   2.534
 8600TIP3   OH225756   6.873   3.324   1.486
 8600TIP3    H125757   6.841   3.329   1.396
 8600TIP3    H225758   6.805   3.275   1.533
 8601TIP3   OH225759   4.740   3.214   0.886
 8601TIP3    H125760   4.649   3.209   0.915
 8601TIP3    H225761   4.739   3.170   0.801
 8602TIP3   OH225762   7.136   7.727   3.263
 8602TIP3    H125763   7.071   7.746   3.330
 8602TIP3    H225764   7.186   7.653   3.297
 8603TIP3   OH225765   4.202   1.924   3.693
 8603TIP3    H125766   4.153   1.842   3.695
 8603TIP3    H225767   4.140   1.988   3.657
 8604TIP3   OH225768   4.710   2.578   0.222
 8604TIP3    H125769   4.792   2.587   0.270
 8604TIP3    H225770   4.729   2.514   0.154
 8605TIP3   OH225771   8.213   5.301   3.875
 8605TIP3    H125772   8.239   5.290   3.784
 8605TIP3    H225773   8.250   5.225   3.920
 8606TIP3   OH225774   0.873   2.473   5.078
 8606TIP3    H125775   0.791   2.499   5.035
 8606TIP3    H225776   0.857   2.384   5.109
 8607TIP3   OH225777   3.465   3.103   3.946
 8607TIP3    H125778   3.503   3.106   3.858
 8607TIP3    H225779   3.388   3.047   3.937
 8608TIP3   OH225780   1.083   1.052   4.551
 8608TIP3    H125781   1.155   1.041   4.614
 8608TIP3    H225782   1.127   1.065   4.467
 8609TIP3   OH225783   7.519   7.164   4.229
 8609TIP3    H125784   7.520   7.187   4.137
 8609TIP3    H225785   7.599   7.203   4.265
 8610TIP3   OH225786   6.007   3.494   4.397
 8610TIP3    H125787   6.093   3.514   4.433
 8610TIP3    H225788   6.005   3.536   4.311
 8611TIP3   OH225789   4.542   0.954   2.482
 8611TIP3    H125790   4.542   1.044   2.451
 8611TIP3    H225791   4.452   0.938   2.509
 8612TIP3   OH225792   7.048   2.339   0.611
 8612TIP3    H125793   7.117   2.396   0.579
 8612TIP3    H225794   6.967   2.383   0.587
 8613TIP3   OH225795   4.309   0.676   4.251
 8613TIP3    H125796   4.327   0.708   4.339
 8613TIP3    H225797   4.217   0.650   4.253
 8614TIP3   OH225798   6.990   3.917   3.647
 8614TIP3    H125799   6.970   3.823   3.644
 8614TIP3    H225800   7.078   3.921   3.683
 8615TIP3   OH225801   4.319   0.966   2.208
 8615TIP3    H125802   4.329   1.016   2.127
 8615TIP3    H225803   4.335   1.030   2.277
 8616TIP3   OH225804   3.028   0.061   4.461
 8616TIP3    H125805   3.027   0.118   4.384
 8616TIP3    H225806   2.980   0.110   4.528
 8617TIP3   OH225807   2.556   1.054   3.579
 8617TIP3    H125808   2.603   1.009   3.649
 8617TIP3    H225809   2.494   0.989   3.546
 8618TIP3   OH225810   2.414   4.305   0.904
 8618TIP3    H125811   2.344   4.285   0.842
 8618TIP3    H225812   2.368   4.334   0.983
 8619TIP3   OH225813   3.021   2.923   4.455
 8619TIP3    H125814   3.002   2.845   4.402
 8619TIP3    H225815   3.051   2.988   4.391
 8620TIP3   OH225816   4.440   6.201   1.266
 8620TIP3    H125817   4.452   6.275   1.326
 8620TIP3    H225818   4.360   6.158   1.297
 8621TIP3   OH225819   4.669   5.667   2.048
 8621TIP3    H125820   4.633   5.690   1.962
 8621TIP3    H225821   4.737   5.603   2.029
 8622TIP3   OH225822   0.779   1.392   4.880
 8622TIP3    H125823   0.729   1.426   4.806
 8622TIP3    H225824   0.773   1.460   4.947
 8623TIP3   OH225825   8.014   4.270   6.667
 8623TIP3    H125826   7.961   4.226   6.600
 8623TIP3    H225827   8.012   4.362   6.642
 8624TIP3   OH225828   2.365   5.082   4.888
 8624TIP3    H125829   2.409   5.128   4.816
 8624TIP3    H225830   2.320   5.009   4.845
 8625TIP3   OH225831   6.126   5.503   5.385
 8625TIP3    H125832   6.056   5.479   5.446
 8625TIP3    H225833   6.081   5.513   5.300
 8626TIP3   OH225834   8.136   7.546   4.731
 8626TIP3    H125835   8.196   7.579   4.664
 8626TIP3    H225836   8.052   7.539   4.685
 8627TIP3   OH225837   2.992   4.564   2.459
 8627TIP3    H125838   3.050   4.507   2.410
 8627TIP3    H225839   3.038   4.648   2.463
 8628TIP3   OH225840   3.891   7.672   6.323
 8628TIP3    H125841   3.816   7.669   6.264
 8628TIP3    H225842   3.937   7.753   6.299
 8629TIP3   OH225843   0.529   3.979   4.146
 8629TIP3    H125844   0.524   3.883   4.145
 8629TIP3    H225845   0.441   4.007   4.122
 8630TIP3   OH225846   2.867   5.193   2.066
 8630TIP3    H125847   2.899   5.194   2.156
 8630TIP3    H225848   2.821   5.277   2.057
 8631TIP3   OH225849   0.790   2.056   4.465
 8631TIP3    H125850   0.863   2.021   4.515
 8631TIP3    H225851   0.824   2.136   4.426
 8632TIP3   OH225852   4.077   1.106   6.326
 8632TIP3    H125853   4.004   1.168   6.338
 8632TIP3    H225854   4.059   1.065   6.241
 8633TIP3   OH225855   1.143   2.841   3.687
 8633TIP3    H125856   1.106   2.757   3.716
 8633TIP3    H225857   1.206   2.865   3.755
 8634TIP3   OH225858   2.542   1.619   1.125
 8634TIP3    H125859   2.578   1.530   1.126
 8634TIP3    H225860   2.618   1.676   1.137
 8635TIP3   OH225861   8.262   7.608   4.030
 8635TIP3    H125862   8.252   7.533   4.089
 8635TIP3    H225863   8.281   7.682   4.088
 8636TIP3   OH225864   0.378   2.708   5.032
 8636TIP3    H125865   0.427   2.749   4.961
 8636TIP3    H225866   0.299   2.762   5.041
 8637TIP3   OH225867   5.394   3.087   2.388
 8637TIP3    H125868   5.353   3.090   2.474
 8637TIP3    H225869   5.323   3.109   2.327
 8638TIP3   OH225870   5.661   3.631   1.006
 8638TIP3    H125871   5.753   3.641   1.030
 8638TIP3    H225872   5.631   3.556   1.057
 8639TIP3   OH225873   0.499   1.777   6.543
 8639TIP3    H125874   0.539   1.738   6.466
 8639TIP3    H225875   0.566   1.836   6.577
 8640TIP3   OH225876   1.352   2.569   1.489
 8640TIP3    H125877   1.261   2.567   1.461
 8640TIP3    H225878   1.397   2.508   1.430
 8641TIP3   OH225879   1.903   3.429   2.520
 8641TIP3    H125880   1.960   3.354   2.539
 8641TIP3    H225881   1.963   3.501   2.503
 8642TIP3   OH225882   1.542   6.768   6.056
 8642TIP3    H125883   1.600   6.697   6.029
 8642TIP3    H225884   1.515   6.810   5.973
 8643TIP3   OH225885   0.458   7.681   5.975
 8643TIP3    H125886   0.502   7.760   6.007
 8643TIP3    H225887   0.377   7.675   6.026
 8644TIP3   OH225888   0.475   5.839   2.424
 8644TIP3    H125889   0.570   5.830   2.411
 8644TIP3    H225890   0.436   5.780   2.360
 8645TIP3   OH225891   0.129   1.619   5.345
 8645TIP3    H125892   0.039   1.625   5.379
 8645TIP3    H225893   0.127   1.671   5.264
 8646TIP3   OH225894   7.997   2.984   4.618
 8646TIP3    H125895   7.963   3.036   4.545
 8646TIP3    H225896   8.018   2.899   4.578
 8647TIP3   OH225897   2.420   4.541   6.117
 8647TIP3    H125898   2.476   4.595   6.060
 8647TIP3    H225899   2.481   4.484   6.163
 8648TIP3   OH225900   1.964   1.848   5.986
 8648TIP3    H125901   1.926   1.923   5.939
 8648TIP3    H225902   2.023   1.808   5.922
 8649TIP3   OH225903   4.013   4.347   3.600
 8649TIP3    H125904   4.094   4.393   3.621
 8649TIP3    H225905   4.031   4.255   3.621
 8650TIP3   OH225906   2.331   3.102   5.859
 8650TIP3    H125907   2.287   3.021   5.887
 8650TIP3    H225908   2.289   3.123   5.775
 8651TIP3   OH225909   1.250   5.437   2.129
 8651TIP3    H125910   1.183   5.484   2.179
 8651TIP3    H225911   1.321   5.501   2.119
 8652TIP3   OH225912   1.705   6.931   3.088
 8652TIP3    H125913   1.725   6.844   3.123
 8652TIP3    H225914   1.641   6.968   3.149
 8653TIP3   OH225915   0.145   1.079   4.180
 8653TIP3    H125916   0.175   1.166   4.154
 8653TIP3    H225917   0.224   1.034   4.210
 8654TIP3   OH225918   7.586   3.540   3.237
 8654TIP3    H125919   7.525   3.614   3.236
 8654TIP3    H225920   7.560   3.488   3.161
 8655TIP3   OH225921   0.688   0.965   5.919
 8655TIP3    H125922   0.613   0.958   5.978
 8655TIP3    H225923   0.701   0.876   5.887
 8656TIP3   OH225924   1.571   0.180   1.040
 8656TIP3    H125925   1.494   0.236   1.032
 8656TIP3    H225926   1.607   0.202   1.126
 8657TIP3   OH225927   8.142   2.970   1.097
 8657TIP3    H125928   8.080   2.948   1.028
 8657TIP3    H225929   8.228   2.951   1.060
 8658TIP3   OH225930   6.159   3.425   3.133
 8658TIP3    H125931   6.222   3.457   3.198
 8658TIP3    H225932   6.206   3.430   3.050
 8659TIP3   OH225933   3.353   3.334   2.510
 8659TIP3    H125934   3.394   3.284   2.580
 8659TIP3    H225935   3.316   3.411   2.554
 8660TIP3   OH225936   5.695   6.909   2.670
 8660TIP3    H125937   5.749   6.986   2.650
 8660TIP3    H225938   5.704   6.853   2.593
 8661TIP3   OH225939   6.398   6.627   2.086
 8661TIP3    H125940   6.432   6.685   2.019
 8661TIP3    H225941   6.420   6.539   2.055
 8662TIP3   OH225942   5.764   0.062   0.785
 8662TIP3    H125943   5.859   0.063   0.776
 8662TIP3    H225944   5.738  -0.026   0.755
 8663TIP3   OH225945   3.123   5.590   3.598
 8663TIP3    H125946   3.046   5.545   3.634
 8663TIP3    H225947   3.162   5.526   3.538
 8664TIP3   OH225948   4.859   3.415   2.830
 8664TIP3    H125949   4.953   3.402   2.816
 8664TIP3    H225950   4.853   3.447   2.920
 8665TIP3   OH225951   0.209   0.888   5.025
 8665TIP3    H125952   0.122   0.899   4.987
 8665TIP3    H225953   0.247   0.815   4.977
 8666TIP3   OH225954   6.583   3.969   6.683
 8666TIP3    H125955   6.516   3.907   6.711
 8666TIP3    H225956   6.539   4.026   6.621
 8667TIP3   OH225957   5.721   2.059   1.406
 8667TIP3    H125958   5.674   2.048   1.488
 8667TIP3    H225959   5.763   2.145   1.414
 8668TIP3   OH225960   1.511   7.152   1.224
 8668TIP3    H125961   1.441   7.180   1.165
 8668TIP3    H225962   1.589   7.198   1.191
 8669TIP3   OH225963   6.527   0.571   2.984
 8669TIP3    H125964   6.530   0.479   2.960
 8669TIP3    H225965   6.573   0.616   2.913
 8670TIP3   OH225966   1.066   2.554   0.509
 8670TIP3    H125967   1.040   2.612   0.581
 8670TIP3    H225968   1.153   2.585   0.483
 8671TIP3   OH225969   2.146   7.129   5.026
 8671TIP3    H125970   2.122   7.050   5.073
 8671TIP3    H225971   2.098   7.199   5.070
 8672TIP3   OH225972   5.619   3.209   4.999
 8672TIP3    H125973   5.599   3.300   5.017
 8672TIP3    H225974   5.594   3.196   4.907
 8673TIP3   OH225975   3.255   0.250   0.925
 8673TIP3    H125976   3.306   0.239   0.845
 8673TIP3    H225977   3.195   0.176   0.925
 8674TIP3   OH225978   4.319   7.760   6.369
 8674TIP3    H125979   4.357   7.713   6.295
 8674TIP3    H225980   4.260   7.697   6.410
 8675TIP3   OH225981   4.001   1.530   0.890
 8675TIP3    H125982   3.989   1.624   0.881
 8675TIP3    H225983   4.062   1.507   0.820
 8676TIP3   OH225984   8.284   2.817   6.077
 8676TIP3    H125985   8.365   2.767   6.077
 8676TIP3    H225986   8.215   2.752   6.082
 8677TIP3   OH225987   2.889   3.324   3.192
 8677TIP3    H125988   2.830   3.389   3.230
 8677TIP3    H225989   2.865   3.322   3.099
 8678TIP3   OH225990   5.086   3.470   0.954
 8678TIP3    H125991   5.008   3.466   0.899
 8678TIP3    H225992   5.121   3.559   0.941
 8679TIP3   OH225993   0.108   3.060   5.645
 8679TIP3    H125994   0.080   3.056   5.737
 8679TIP3    H225995   0.174   2.991   5.638
 8680TIP3   OH225996   5.188   2.760   6.047
 8680TIP3    H125997   5.099   2.776   6.077
 8680TIP3    H225998   5.231   2.717   6.121
 8681TIP3   OH225999   1.787   7.332   4.631
 8681TIP3    H126000   1.818   7.341   4.541
 8681TIP3    H226001   1.810   7.414   4.673
 8682TIP3   OH226002   0.191   3.303   3.928
 8682TIP3    H126003   0.110   3.332   3.971
 8682TIP3    H226004   0.161   3.270   3.843
 8683TIP3   OH226005   0.576   3.990   2.091
 8683TIP3    H126006   0.519   4.066   2.083
 8683TIP3    H226007   0.597   3.966   2.000
 8684TIP3   OH226008   0.552   3.797   5.264
 8684TIP3    H126009   0.545   3.825   5.172
 8684TIP3    H226010   0.634   3.748   5.268
 8685TIP3   OH226011   2.276   6.856   5.683
 8685TIP3    H126012   2.251   6.788   5.620
 8685TIP3    H226013   2.298   6.932   5.630
 8686TIP3   OH226014   4.045   2.115   0.321
 8686TIP3    H126015   3.991   2.163   0.259
 8686TIP3    H226016   4.105   2.181   0.356
 8687TIP3   OH226017   1.957   4.576   1.620
 8687TIP3    H126018   1.888   4.510   1.622
 8687TIP3    H226019   2.035   4.529   1.591
 8688TIP3   OH226020   5.583   4.779   1.415
 8688TIP3    H126021   5.594   4.819   1.329
 8688TIP3    H226022   5.658   4.809   1.466
 8689TIP3   OH226023   2.473   1.162   2.496
 8689TIP3    H126024   2.444   1.252   2.510
 8689TIP3    H226025   2.560   1.170   2.458
 8690TIP3   OH226026   4.660   6.915   1.679
 8690TIP3    H126027   4.575   6.927   1.723
 8690TIP3    H226028   4.637   6.904   1.586
 8691TIP3   OH226029   2.946   7.576   2.376
 8691TIP3    H126030   2.996   7.502   2.344
 8691TIP3    H226031   2.983   7.652   2.331
 8692TIP3   OH226032   4.703   2.182   2.087
 8692TIP3    H126033   4.687   2.243   2.015
 8692TIP3    H226034   4.760   2.115   2.048
 8693TIP3   OH226035   7.255   5.963   6.285
 8693TIP3    H126036   7.160   5.974   6.293
 8693TIP3    H226037   7.283   5.928   6.369
 8694TIP3   OH226038   3.364   7.425   0.588
 8694TIP3    H126039   3.313   7.348   0.562
 8694TIP3    H226040   3.440   7.389   0.634
 8695TIP3   OH226041   5.867   1.100   2.507
 8695TIP3    H126042   5.935   1.082   2.572
 8695TIP3    H226043   5.912   1.094   2.423
 8696TIP3   OH226044   2.031   0.811   0.302
 8696TIP3    H126045   1.965   0.866   0.261
 8696TIP3    H226046   1.981   0.745   0.349
 8697TIP3   OH226047   1.680   2.450   2.011
 8697TIP3    H126048   1.601   2.421   2.055
 8697TIP3    H226049   1.671   2.416   1.922
 8698TIP3   OH226050   1.399   4.391   1.877
 8698TIP3    H126051   1.323   4.426   1.829
 8698TIP3    H226052   1.392   4.296   1.867
 8699TIP3   OH226053   1.882   1.116   0.783
 8699TIP3    H126054   1.918   1.202   0.803
 8699TIP3    H226055   1.799   1.113   0.829
 8700TIP3   OH226056   4.287   7.586   5.007
 8700TIP3    H126057   4.374   7.553   4.983
 8700TIP3    H226058   4.262   7.642   4.933
 8701TIP3   OH226059   3.825   1.590   5.825
 8701TIP3    H126060   3.761   1.650   5.864
 8701TIP3    H226061   3.783   1.560   5.744
 8702TIP3   OH226062   3.239   5.534   3.179
 8702TIP3    H126063   3.176   5.604   3.193
 8702TIP3    H226064   3.193   5.471   3.124
 8703TIP3   OH226065   5.734   1.727   4.290
 8703TIP3    H126066   5.684   1.744   4.370
 8703TIP3    H226067   5.676   1.756   4.219
 8704TIP3   OH226068   0.542   2.981   5.904
 8704TIP3    H126069   0.602   3.053   5.924
 8704TIP3    H226070   0.595   2.902   5.917
 8705TIP3   OH226071   7.004   7.312   4.756
 8705TIP3    H126072   6.908   7.313   4.762
 8705TIP3    H226073   7.027   7.220   4.769
 8706TIP3   OH226074   4.789   3.490   4.825
 8706TIP3    H126075   4.861   3.542   4.860
 8706TIP3    H226076   4.718   3.553   4.810
 8707TIP3   OH226077   6.723   5.291   3.323
 8707TIP3    H126078   6.673   5.212   3.303
 8707TIP3    H226079   6.685   5.358   3.266
 8708TIP3   OH226080   3.129   4.999   5.643
 8708TIP3    H126081   3.056   5.061   5.636
 8708TIP3    H226082   3.104   4.942   5.716
 8709TIP3   OH226083   6.897   3.014   2.423
 8709TIP3    H126084   6.933   3.051   2.504
 8709TIP3    H226085   6.968   2.960   2.388
 8710TIP3   OH226086   5.176   0.052   3.654
 8710TIP3    H126087   5.175   0.140   3.616
 8710TIP3    H226088   5.126  -0.002   3.593
 8711TIP3   OH226089   2.537   3.954   2.052
 8711TIP3    H126090   2.590   3.994   1.983
 8711TIP3    H226091   2.600   3.926   2.119
 8712TIP3   OH226092   7.970   0.880   3.023
 8712TIP3    H126093   7.888   0.901   3.068
 8712TIP3    H226094   7.953   0.797   2.979
 8713TIP3   OH226095   6.976   7.743   5.318
 8713TIP3    H126096   6.944   7.706   5.400
 8713TIP3    H226097   6.998   7.667   5.264
 8714TIP3   OH226098   7.628   3.765   0.813
 8714TIP3    H126099   7.609   3.674   0.790
 8714TIP3    H226100   7.697   3.791   0.753
 8715TIP3   OH226101   5.353   5.312   2.527
 8715TIP3    H126102   5.437   5.285   2.488
 8715TIP3    H226103   5.351   5.266   2.611
 8716TIP3   OH226104   0.604   1.989   6.279
 8716TIP3    H126105   0.526   1.934   6.281
 8716TIP3    H226106   0.677   1.928   6.282
 8717TIP3   OH226107   0.904   4.068   2.733
 8717TIP3    H126108   0.885   4.016   2.655
 8717TIP3    H226109   0.909   4.158   2.700
 8718TIP3   OH226110   5.340   1.470   0.725
 8718TIP3    H126111   5.311   1.555   0.693
 8718TIP3    H226112   5.409   1.490   0.789
 8719TIP3   OH226113   5.679   1.806   2.696
 8719TIP3    H126114   5.683   1.795   2.601
 8719TIP3    H226115   5.659   1.718   2.729
 8720TIP3   OH226116   3.369   1.377   0.576
 8720TIP3    H126117   3.441   1.318   0.602
 8720TIP3    H226118   3.368   1.371   0.480
 8721TIP3   OH226119   6.100   3.070   6.622
 8721TIP3    H126120   6.078   3.035   6.708
 8721TIP3    H226121   6.089   2.995   6.563
 8722TIP3   OH226122   2.709   1.577   3.091
 8722TIP3    H126123   2.671   1.638   3.154
 8722TIP3    H226124   2.791   1.550   3.132
 8723TIP3   OH226125   5.706   4.064   0.818
 8723TIP3    H126126   5.733   4.021   0.737
 8723TIP3    H226127   5.744   4.009   0.888
 8724TIP3   OH226128   5.026   1.028   0.516
 8724TIP3    H126129   5.064   0.962   0.458
 8724TIP3    H226130   4.938   0.996   0.534
 8725TIP3   OH226131   0.036   3.575   3.059
 8725TIP3    H126132   0.047   3.625   2.979
 8725TIP3    H226133  -0.058   3.576   3.076
 8726TIP3   OH226134   3.746   4.118   1.835
 8726TIP3    H126135   3.670   4.133   1.779
 8726TIP3    H226136   3.796   4.200   1.831
 8727TIP3   OH226137   5.315   0.471   2.224
 8727TIP3    H126138   5.277   0.456   2.138
 8727TIP3    H226139   5.292   0.393   2.275
 8728TIP3   OH226140   5.271   0.915   3.364
 8728TIP3    H126141   5.296   0.923   3.272
 8728TIP3    H226142   5.354   0.902   3.410
 8729TIP3   OH226143   2.985   0.939   2.730
 8729TIP3    H126144   2.930   0.875   2.775
 8729TIP3    H226145   2.953   0.939   2.640
 8730TIP3   OH226146   3.628   2.748   5.960
 8730TIP3    H126147   3.635   2.735   6.055
 8730TIP3    H226148   3.660   2.666   5.922
 8731TIP3   OH226149   8.002   2.311   5.228
 8731TIP3    H126150   8.085   2.353   5.208
 8731TIP3    H226151   7.940   2.383   5.238
 8732TIP3   OH226152   4.775   5.673   5.921
 8732TIP3    H126153   4.869   5.693   5.926
 8732TIP3    H226154   4.756   5.675   5.827
 8733TIP3   OH226155   6.019   2.574   6.607
 8733TIP3    H126156   6.083   2.592   6.538
 8733TIP3    H226157   5.984   2.487   6.585
 8734TIP3   OH226158   1.319   0.048   2.918
 8734TIP3    H126159   1.256   0.120   2.924
 8734TIP3    H226160   1.345   0.031   3.009
 8735TIP3   OH226161   2.072   3.937   3.691
 8735TIP3    H126162   2.060   3.915   3.599
 8735TIP3    H226163   2.097   3.854   3.732
 8736TIP3   OH226164   3.420   5.156   0.133
 8736TIP3    H126165   3.368   5.230   0.166
 8736TIP3    H226166   3.505   5.165   0.175
 8737TIP3   OH226167   6.629   1.069   2.235
 8737TIP3    H126168   6.671   1.144   2.194
 8737TIP3    H226169   6.561   1.106   2.291
 8738TIP3   OH226170   6.557   4.186   2.968
 8738TIP3    H126171   6.562   4.241   2.890
 8738TIP3    H226172   6.593   4.241   3.038
 8739TIP3   OH226173   6.660   6.170   3.278
 8739TIP3    H126174   6.724   6.210   3.219
 8739TIP3    H226175   6.605   6.243   3.306
 8740TIP3   OH226176   1.863   0.624   2.638
 8740TIP3    H126177   1.863   0.582   2.724
 8740TIP3    H226178   1.952   0.657   2.628
 8741TIP3   OH226179   1.936   2.276   4.450
 8741TIP3    H126180   1.894   2.336   4.511
 8741TIP3    H226181   1.864   2.232   4.405
 8742TIP3   OH226182   5.334   4.027   5.022
 8742TIP3    H126183   5.423   4.036   5.058
 8742TIP3    H226184   5.306   3.940   5.050
 8743TIP3   OH226185   7.314   3.990   1.441
 8743TIP3    H126186   7.218   3.984   1.438
 8743TIP3    H226187   7.332   4.026   1.528
 8744TIP3   OH226188   0.098   5.003   0.377
 8744TIP3    H126189   0.184   4.971   0.405
 8744TIP3    H226190   0.114   5.091   0.345
 8745TIP3   OH226191   1.163   1.809   2.423
 8745TIP3    H126192   1.109   1.738   2.458
 8745TIP3    H226193   1.253   1.782   2.441
 8746TIP3   OH226194   7.452   2.671   1.310
 8746TIP3    H126195   7.509   2.648   1.383
 8746TIP3    H226196   7.384   2.726   1.350
 8747TIP3   OH226197   3.790   7.281   5.400
 8747TIP3    H126198   3.723   7.347   5.386
 8747TIP3    H226199   3.846   7.318   5.468
 8748TIP3   OH226200   6.950   6.438   6.581
 8748TIP3    H126201   6.989   6.522   6.561
 8748TIP3    H226202   7.020   6.388   6.623
 8749TIP3   OH226203   1.111   0.200   4.491
 8749TIP3    H126204   1.129   0.159   4.575
 8749TIP3    H226205   1.035   0.154   4.457
 8750TIP3   OH226206   3.480   5.561   6.297
 8750TIP3    H126207   3.424   5.487   6.273
 8750TIP3    H226208   3.448   5.588   6.383
 8751TIP3   OH226209   5.722   5.167   4.960
 8751TIP3    H126210   5.741   5.131   5.047
 8751TIP3    H226211   5.744   5.260   4.967
 8752TIP3   OH226212   6.198   3.737   4.366
 8752TIP3    H126213   6.225   3.645   4.370
 8752TIP3    H226214   6.270   3.785   4.408
 8753TIP3   OH226215   1.146   6.591   2.108
 8753TIP3    H126216   1.081   6.530   2.144
 8753TIP3    H226217   1.100   6.676   2.105
 8754TIP3   OH226218   2.070   0.728   4.229
 8754TIP3    H126219   1.984   0.739   4.187
 8754TIP3    H226220   2.081   0.807   4.282
 8755TIP3   OH226221   5.996   1.780   0.823
 8755TIP3    H126222   6.069   1.777   0.884
 8755TIP3    H226223   6.000   1.868   0.785
 8756TIP3   OH226224   5.676   1.476   4.432
 8756TIP3    H126225   5.618   1.404   4.459
 8756TIP3    H226226   5.627   1.555   4.453
 8757TIP3   OH226227   5.103   5.517   1.012
 8757TIP3    H126228   5.183   5.557   1.047
 8757TIP3    H226229   5.044   5.512   1.087
 8758TIP3   OH226230   6.465   0.417   6.580
 8758TIP3    H126231   6.518   0.425   6.500
 8758TIP3    H226232   6.526   0.440   6.651
 8759TIP3   OH226233   1.037   5.589   1.537
 8759TIP3    H126234   1.079   5.580   1.451
 8759TIP3    H226235   1.007   5.680   1.540
 8760TIP3   OH226236   1.286   3.119   3.004
 8760TIP3    H126237   1.360   3.064   2.978
 8760TIP3    H226238   1.304   3.142   3.095
 8761TIP3   OH226239   0.997   7.166   5.238
 8761TIP3    H126240   1.043   7.214   5.169
 8761TIP3    H226241   0.909   7.204   5.238
 8762TIP3   OH226242   6.925   3.679   1.448
 8762TIP3    H126243   6.957   3.627   1.522
 8762TIP3    H226244   6.831   3.685   1.462
 8763TIP3   OH226245   4.175   3.014   4.851
 8763TIP3    H126246   4.250   3.038   4.904
 8763TIP3    H226247   4.206   3.023   4.761
 8764TIP3   OH226248   7.998   2.868   6.459
 8764TIP3    H126249   7.919   2.814   6.472
 8764TIP3    H226250   7.984   2.944   6.516
 8765TIP3   OH226251   2.983   4.251   2.953
 8765TIP3    H126252   2.991   4.192   2.878
 8765TIP3    H226253   2.889   4.272   2.957
 8766TIP3   OH226254   6.379   5.180   1.613
 8766TIP3    H126255   6.398   5.146   1.526
 8766TIP3    H226256   6.297   5.138   1.638
 8767TIP3   OH226257   0.276   7.149   3.201
 8767TIP3    H126258   0.220   7.114   3.132
 8767TIP3    H226259   0.226   7.221   3.239
 8768TIP3   OH226260   5.390   4.019   3.405
 8768TIP3    H126261   5.310   3.997   3.452
 8768TIP3    H226262   5.412   4.107   3.433
 8769TIP3   OH226263   7.953   5.524   4.388
 8769TIP3    H126264   7.925   5.486   4.471
 8769TIP3    H226265   7.873   5.565   4.353
 8770TIP3   OH226266   6.397   1.466   5.744
 8770TIP3    H126267   6.458   1.474   5.671
 8770TIP3    H226268   6.310   1.474   5.704
 8771TIP3   OH226269   1.538   6.645   0.962
 8771TIP3    H126270   1.534   6.589   1.040
 8771TIP3    H226271   1.454   6.632   0.919
 8772TIP3   OH226272   6.093   1.831   5.845
 8772TIP3    H126273   6.088   1.842   5.751
 8772TIP3    H226274   6.005   1.804   5.871
 8773TIP3   OH226275   1.247   5.710   2.444
 8773TIP3    H126276   1.307   5.719   2.519
 8773TIP3    H226277   1.164   5.745   2.476
 8774TIP3   OH226278   1.612   6.810   1.446
 8774TIP3    H126279   1.655   6.782   1.365
 8774TIP3    H226280   1.519   6.810   1.425
 8775TIP3   OH226281   5.924   4.415   2.066
 8775TIP3    H126282   5.869   4.487   2.038
 8775TIP3    H226283   5.870   4.337   2.052
 8776TIP3   OH226284   5.027   1.246   3.553
 8776TIP3    H126285   4.996   1.308   3.487
 8776TIP3    H226286   4.948   1.214   3.596
 8777TIP3   OH226287   4.350   3.824   4.126
 8777TIP3    H126288   4.282   3.784   4.181
 8777TIP3    H226289   4.391   3.750   4.082
 8778TIP3   OH226290   5.019   7.777   4.844
 8778TIP3    H126291   5.053   7.826   4.769
 8778TIP3    H226292   5.061   7.692   4.838
 8779TIP3   OH226293   4.887   3.511   3.097
 8779TIP3    H126294   4.940   3.568   3.152
 8779TIP3    H226295   4.824   3.470   3.157
 8780TIP3   OH226296   7.670   1.055   1.146
 8780TIP3    H126297   7.636   1.140   1.176
 8780TIP3    H226298   7.599   0.993   1.165
 8781TIP3   OH226299   3.221   0.924   1.863
 8781TIP3    H126300   3.187   1.004   1.902
 8781TIP3    H226301   3.258   0.875   1.936
 8782TIP3   OH226302   7.928   6.185   3.981
 8782TIP3    H126303   8.003   6.177   4.040
 8782TIP3    H226304   7.962   6.157   3.896
 8783TIP3   OH226305   8.041   1.938   4.158
 8783TIP3    H126306   8.120   1.936   4.212
 8783TIP3    H226307   8.034   1.850   4.121
 8784TIP3   OH226308   0.308   0.257   0.359
 8784TIP3    H126309   0.276   0.347   0.356
 8784TIP3    H226310   0.379   0.258   0.423
 8785TIP3   OH226311   6.820   0.738   0.776
 8785TIP3    H126312   6.872   0.791   0.835
 8785TIP3    H226313   6.849   0.764   0.688
 8786TIP3   OH226314   7.326   4.045   2.942
 8786TIP3    H126315   7.397   3.990   2.909
 8786TIP3    H226316   7.367   4.130   2.960
 8787TIP3   OH226317   1.332   5.234   6.558
 8787TIP3    H126318   1.401   5.189   6.607
 8787TIP3    H226319   1.375   5.312   6.522
 8788TIP3   OH226320   3.457   3.412   1.475
 8788TIP3    H126321   3.528   3.368   1.427
 8788TIP3    H226322   3.503   3.473   1.534
 8789TIP3   OH226323   4.332   4.317   0.063
 8789TIP3    H126324   4.353   4.265   0.140
 8789TIP3    H226325   4.332   4.254  -0.009
 8790TIP3   OH226326   5.439   3.565   2.042
 8790TIP3    H126327   5.452   3.595   1.952
 8790TIP3    H226328   5.443   3.645   2.095
 8791TIP3   OH226329   6.217   2.793   5.535
 8791TIP3    H126330   6.149   2.729   5.553
 8791TIP3    H226331   6.295   2.758   5.580
 8792TIP3   OH226332   4.055   0.346   3.003
 8792TIP3    H126333   4.041   0.255   3.031
 8792TIP3    H226334   3.986   0.396   3.046
 8793TIP3   OH226335   7.557   7.248   3.471
 8793TIP3    H126336   7.540   7.207   3.386
 8793TIP3    H226337   7.627   7.195   3.509
 8794TIP3   OH226338   1.734   0.067   5.886
 8794TIP3    H126339   1.743   0.105   5.974
 8794TIP3    H226340   1.717  -0.026   5.903
 8795TIP3   OH226341   1.397   1.438   4.294
 8795TIP3    H126342   1.417   1.345   4.303
 8795TIP3    H226343   1.306   1.446   4.324
 8796TIP3   OH226344   1.978   6.610   4.209
 8796TIP3    H126345   1.918   6.645   4.142
 8796TIP3    H226346   2.065   6.619   4.169
 8797TIP3   OH226347   2.040   2.322   5.578
 8797TIP3    H126348   1.988   2.259   5.527
 8797TIP3    H226349   2.103   2.268   5.626
 8798TIP3   OH226350   1.559   5.352   6.749
 8798TIP3    H126351   1.516   5.267   6.760
 8798TIP3    H226352   1.487   5.414   6.738
 8799TIP3   OH226353   7.185   7.561   3.815
 8799TIP3    H126354   7.208   7.469   3.801
 8799TIP3    H226355   7.154   7.591   3.730
 8800TIP3   OH226356   0.369   2.306   4.336
 8800TIP3    H126357   0.433   2.241   4.365
 8800TIP3    H226358   0.290   2.254   4.318
 8801TIP3   OH226359   7.750   1.959   2.964
 8801TIP3    H126360   7.718   1.945   3.053
 8801TIP3    H226361   7.755   1.872   2.926
 8802TIP3   OH226362   7.636   4.863   0.114
 8802TIP3    H126363   7.717   4.814   0.126
 8802TIP3    H226364   7.580   4.807   0.061
 8803TIP3   OH226365   1.324   7.010   6.349
 8803TIP3    H126366   1.286   6.971   6.428
 8803TIP3    H226367   1.260   7.075   6.321
 8804TIP3   OH226368   0.289   5.174   6.684
 8804TIP3    H126369   0.322   5.144   6.600
 8804TIP3    H226370   0.238   5.253   6.664
 8805TIP3   OH226371   2.954   3.079   6.174
 8805TIP3    H126372   2.991   3.051   6.090
 8805TIP3    H226373   2.869   3.035   6.179
 8806TIP3   OH226374   7.167   1.331   1.341
 8806TIP3    H126375   7.182   1.383   1.262
 8806TIP3    H226376   7.247   1.279   1.351
 8807TIP3   OH226377   2.032   6.831   2.821
 8807TIP3    H126378   2.109   6.799   2.869
 8807TIP3    H226379   2.065   6.848   2.733
 8808TIP3   OH226380   1.602   7.220   2.427
 8808TIP3    H126381   1.691   7.237   2.459
 8808TIP3    H226382   1.547   7.229   2.505
 8809TIP3   OH226383   3.243   4.767   4.146
 8809TIP3    H126384   3.156   4.758   4.106
 8809TIP3    H226385   3.304   4.763   4.072
 8810TIP3   OH226386   2.847   7.737   4.455
 8810TIP3    H126387   2.782   7.694   4.511
 8810TIP3    H226388   2.814   7.723   4.366
 8811TIP3   OH226389   1.922   6.421   1.320
 8811TIP3    H126390   1.911   6.424   1.225
 8811TIP3    H226391   1.832   6.417   1.355
 8812TIP3   OH226392   7.727   6.040   6.738
 8812TIP3    H126393   7.777   6.013   6.661
 8812TIP3    H226394   7.652   5.981   6.740
 8813TIP3   OH226395   4.810   0.350   3.881
 8813TIP3    H126396   4.791   0.312   3.967
 8813TIP3    H226397   4.820   0.274   3.824
 8814TIP3   OH226398   6.583   2.652   2.605
 8814TIP3    H126399   6.591   2.734   2.654
 8814TIP3    H226400   6.577   2.584   2.672
 8815TIP3   OH226401   8.040   1.181   6.202
 8815TIP3    H126402   7.979   1.240   6.246
 8815TIP3    H226403   8.051   1.108   6.264
 8816TIP3   OH226404   4.570   3.013   3.519
 8816TIP3    H126405   4.591   3.104   3.496
 8816TIP3    H226406   4.610   2.961   3.450
 8817TIP3   OH226407   5.839   3.909   6.598
 8817TIP3    H126408   5.902   3.846   6.563
 8817TIP3    H226409   5.767   3.855   6.631
 8818TIP3   OH226410   1.188   5.232   5.301
 8818TIP3    H126411   1.238   5.299   5.255
 8818TIP3    H226412   1.108   5.277   5.330
 8819TIP3   OH226413   3.960   2.255   2.315
 8819TIP3    H126414   3.984   2.348   2.311
 8819TIP3    H226415   3.983   2.221   2.228
 8820TIP3   OH226416   5.976   5.377   0.960
 8820TIP3    H126417   6.016   5.463   0.947
 8820TIP3    H226418   5.938   5.355   0.875
 8821TIP3   OH226419   1.662   4.763   3.692
 8821TIP3    H126420   1.624   4.675   3.697
 8821TIP3    H226421   1.586   4.822   3.691
 8822TIP3   OH226422   0.344   0.694   4.891
 8822TIP3    H126423   0.346   0.709   4.797
 8822TIP3    H226424   0.355   0.599   4.900
 8823TIP3   OH226425   0.806   1.420   0.385
 8823TIP3    H126426   0.880   1.400   0.442
 8823TIP3    H226427   0.735   1.442   0.445
 8824TIP3   OH226428   3.066   2.385   2.957
 8824TIP3    H126429   3.161   2.374   2.950
 8824TIP3    H226430   3.037   2.311   3.009
 8825TIP3   OH226431   4.854   5.220   4.631
 8825TIP3    H126432   4.942   5.209   4.666
 8825TIP3    H226433   4.795   5.193   4.702
 8826TIP3   OH226434   4.126   4.186   5.483
 8826TIP3    H126435   4.189   4.156   5.548
 8826TIP3    H226436   4.178   4.202   5.404
 8827TIP3   OH226437   8.054   6.714   1.347
 8827TIP3    H126438   8.022   6.774   1.280
 8827TIP3    H226439   7.975   6.677   1.386
 8828TIP3   OH226440   0.656   1.173   2.675
 8828TIP3    H126441   0.697   1.198   2.757
 8828TIP3    H226442   0.615   1.089   2.693
 8829TIP3   OH226443   6.950   6.755   3.252
 8829TIP3    H126444   6.968   6.729   3.161
 8829TIP3    H226445   7.035   6.754   3.295
 8830TIP3   OH226446   5.027   3.970   1.920
 8830TIP3    H126447   5.100   3.923   1.879
 8830TIP3    H226448   5.069   4.033   1.978
 8831TIP3   OH226449   7.673   5.388   4.735
 8831TIP3    H126450   7.626   5.321   4.786
 8831TIP3    H226451   7.677   5.463   4.793
 8832TIP3   OH226452   2.982   5.438   4.990
 8832TIP3    H126453   3.057   5.379   5.000
 8832TIP3    H226454   3.015   5.523   5.019
 8833TIP3   OH226455   6.600   4.988   3.029
 8833TIP3    H126456   6.658   5.055   2.993
 8833TIP3    H226457   6.520   4.995   2.977
 8834TIP3   OH226458   4.474   6.732   4.295
 8834TIP3    H126459   4.450   6.772   4.378
 8834TIP3    H226460   4.393   6.730   4.244
 8835TIP3   OH226461   4.720   2.042   5.794
 8835TIP3    H126462   4.636   2.030   5.750
 8835TIP3    H226463   4.785   2.043   5.723
 8836TIP3   OH226464   1.165   3.199   6.761
 8836TIP3    H126465   1.080   3.156   6.752
 8836TIP3    H226466   1.168   3.262   6.689
 8837TIP3   OH226467   1.977   5.508   5.994
 8837TIP3    H126468   2.001   5.594   6.027
 8837TIP3    H226469   2.021   5.446   6.053
 8838TIP3   OH226470   6.716   6.719   4.604
 8838TIP3    H126471   6.626   6.729   4.573
 8838TIP3    H226472   6.707   6.695   4.696
 8839TIP3   OH226473   2.511   3.178   3.979
 8839TIP3    H126474   2.474   3.173   4.068
 8839TIP3    H226475   2.520   3.272   3.962
 8840TIP3   OH226476   5.543   7.634   5.088
 8840TIP3    H126477   5.463   7.677   5.058
 8840TIP3    H226478   5.608   7.704   5.094
 8841TIP3   OH226479   4.311   1.534   4.243
 8841TIP3    H126480   4.291   1.627   4.234
 8841TIP3    H226481   4.401   1.526   4.210
 8842TIP3   OH226482   4.889   6.289   2.560
 8842TIP3    H126483   4.845   6.205   2.544
 8842TIP3    H226484   4.968   6.285   2.506
 8843TIP3   OH226485   0.558   5.168   1.475
 8843TIP3    H126486   0.546   5.124   1.559
 8843TIP3    H226487   0.482   5.141   1.423
 8844TIP3   OH226488   7.056   4.571   5.280
 8844TIP3    H126489   6.969   4.609   5.291
 8844TIP3    H226490   7.105   4.637   5.231
 8845TIP3   OH226491   6.857   3.153   2.183
 8845TIP3    H126492   6.850   3.248   2.196
 8845TIP3    H226493   6.861   3.117   2.271
 8846TIP3   OH226494   1.937   7.075   0.583
 8846TIP3    H126495   1.954   6.987   0.550
 8846TIP3    H226496   1.971   7.133   0.515
 8847TIP3   OH226497   1.677   4.787   5.999
 8847TIP3    H126498   1.771   4.802   6.006
 8847TIP3    H226499   1.661   4.775   5.905
 8848TIP3   OH226500   3.359   3.823   3.776
 8848TIP3    H126501   3.308   3.758   3.825
 8848TIP3    H226502   3.295   3.889   3.750
 8849TIP3   OH226503   4.414   4.608   6.267
 8849TIP3    H126504   4.399   4.606   6.362
 8849TIP3    H226505   4.433   4.700   6.248
 8850TIP3   OH226506   1.530   4.903   2.395
 8850TIP3    H126507   1.547   4.853   2.315
 8850TIP3    H226508   1.561   4.848   2.466
 8851TIP3   OH226509   2.876   1.715   2.018
 8851TIP3    H126510   2.948   1.726   2.080
 8851TIP3    H226511   2.814   1.657   2.063
 8852TIP3   OH226512   1.405   6.812   5.804
 8852TIP3    H126513   1.312   6.796   5.792
 8852TIP3    H226514   1.435   6.841   5.718
 8853TIP3   OH226515   7.195   1.365   4.368
 8853TIP3    H126516   7.137   1.347   4.442
 8853TIP3    H226517   7.197   1.283   4.319
 8854TIP3   OH226518   4.653   5.803   4.363
 8854TIP3    H126519   4.567   5.836   4.338
 8854TIP3    H226520   4.634   5.723   4.413
 8855TIP3   OH226521   0.052   4.042   4.290
 8855TIP3    H126522   0.008   3.986   4.353
 8855TIP3    H226523  -0.019   4.088   4.245
 8856TIP3   OH226524   1.558   2.422   6.054
 8856TIP3    H126525   1.483   2.430   6.114
 8856TIP3    H226526   1.534   2.475   5.978
 8857TIP3   OH226527   5.796   7.818   5.999
 8857TIP3    H126528   5.834   7.852   6.081
 8857TIP3    H226529   5.753   7.737   6.025
 8858TIP3   OH226530   3.971   7.695   1.027
 8858TIP3    H126531   3.913   7.643   0.970
 8858TIP3    H226532   4.037   7.731   0.968
 8859TIP3   OH226533   1.262   7.248   2.830
 8859TIP3    H126534   1.297   7.182   2.889
 8859TIP3    H226535   1.172   7.262   2.860
 8860TIP3   OH226536   8.034   6.457   0.460
 8860TIP3    H126537   7.956   6.457   0.404
 8860TIP3    H226538   8.014   6.521   0.528
 8861TIP3   OH226539   2.431   2.082   4.554
 8861TIP3    H126540   2.519   2.079   4.517
 8861TIP3    H226541   2.442   2.058   4.646
 8862TIP3   OH226542   0.630   5.376   1.979
 8862TIP3    H126543   0.703   5.434   1.999
 8862TIP3    H226544   0.668   5.305   1.929
 8863TIP3   OH226545   2.352   6.474   0.497
 8863TIP3    H126546   2.299   6.524   0.559
 8863TIP3    H226547   2.438   6.466   0.541
 8864TIP3   OH226548   3.011   4.186   3.223
 8864TIP3    H126549   2.930   4.137   3.238
 8864TIP3    H226550   3.009   4.209   3.130
 8865TIP3   OH226551   3.631   3.777   5.920
 8865TIP3    H126552   3.692   3.844   5.952
 8865TIP3    H226553   3.550   3.792   5.968
 8866TIP3   OH226554   6.753   1.872   0.684
 8866TIP3    H126555   6.806   1.860   0.605
 8866TIP3    H226556   6.796   1.944   0.730
 8867TIP3   OH226557   4.164   0.755   2.363
 8867TIP3    H126558   4.069   0.758   2.347
 8867TIP3    H226559   4.195   0.843   2.340
 8868TIP3   OH226560   2.659   1.186   2.832
 8868TIP3    H126561   2.627   1.275   2.852
 8868TIP3    H226562   2.750   1.199   2.805
 8869TIP3   OH226563   3.441   1.838   4.979
 8869TIP3    H126564   3.373   1.845   4.912
 8869TIP3    H226565   3.511   1.896   4.949
 8870TIP3   OH226566   6.663   3.692   1.549
 8870TIP3    H126567   6.694   3.730   1.632
 8870TIP3    H226568   6.601   3.757   1.515
 8871TIP3   OH226569   7.111   3.061   2.051
 8871TIP3    H126570   7.137   3.151   2.028
 8871TIP3    H226571   7.051   3.071   2.124
 8872TIP3   OH226572   7.827   3.368   0.813
 8872TIP3    H126573   7.920   3.391   0.821
 8872TIP3    H226574   7.786   3.405   0.890
 8873TIP3   OH226575   6.289   3.476   4.409
 8873TIP3    H126576   6.304   3.407   4.473
 8873TIP3    H226577   6.277   3.430   4.326
 8874TIP3   OH226578   2.924   6.016   0.425
 8874TIP3    H126579   2.991   6.017   0.493
 8874TIP3    H226580   2.910   5.924   0.406
 8875TIP3   OH226581   5.035   3.561   5.284
 8875TIP3    H126582   5.046   3.478   5.238
 8875TIP3    H226583   4.953   3.550   5.333
 8876TIP3   OH226584   1.661   0.116   2.716
 8876TIP3    H126585   1.657   0.169   2.637
 8876TIP3    H226586   1.582   0.138   2.765
 8877TIP3   OH226587   7.608   3.788   5.212
 8877TIP3    H126588   7.570   3.875   5.199
 8877TIP3    H226589   7.532   3.730   5.220
 8878TIP3   OH226590   0.231   3.430   6.610
 8878TIP3    H126591   0.250   3.508   6.559
 8878TIP3    H226592   0.219   3.462   6.700
 8879TIP3   OH226593   0.461   0.770   6.621
 8879TIP3    H126594   0.371   0.761   6.654
 8879TIP3    H226595   0.468   0.705   6.551
 8880TIP3   OH226596   6.956   1.627   2.761
 8880TIP3    H126597   6.924   1.626   2.851
 8880TIP3    H226598   6.993   1.539   2.747
 8881TIP3   OH226599   1.570   0.737   1.134
 8881TIP3    H126600   1.647   0.681   1.119
 8881TIP3    H226601   1.555   0.779   1.049
 8882TIP3   OH226602   2.036   4.473   6.694
 8882TIP3    H126603   2.066   4.419   6.621
 8882TIP3    H226604   2.091   4.447   6.767
 8883TIP3   OH226605   6.091   6.060   0.605
 8883TIP3    H126606   6.181   6.086   0.586
 8883TIP3    H226607   6.072   6.101   0.689
 8884TIP3   OH226608   5.299   1.834   3.694
 8884TIP3    H126609   5.223   1.855   3.748
 8884TIP3    H226610   5.283   1.878   3.611
 8885TIP3   OH226611   1.430   7.458   5.138
 8885TIP3    H126612   1.467   7.526   5.082
 8885TIP3    H226613   1.443   7.489   5.227
 8886TIP3   OH226614   1.485   4.471   0.614
 8886TIP3    H126615   1.433   4.530   0.669
 8886TIP3    H226616   1.497   4.393   0.667
 8887TIP3   OH226617   6.835   7.297   3.631
 8887TIP3    H126618   6.793   7.277   3.714
 8887TIP3    H226619   6.906   7.232   3.624
 8888TIP3   OH226620   7.236   0.820   3.113
 8888TIP3    H126621   7.235   0.755   3.043
 8888TIP3    H226622   7.146   0.822   3.146
 8889TIP3   OH226623   7.454   2.442   5.986
 8889TIP3    H126624   7.445   2.491   5.904
 8889TIP3    H226625   7.520   2.375   5.967
 8890TIP3   OH226626   2.153   3.140   6.213
 8890TIP3    H126627   2.128   3.215   6.267
 8890TIP3    H226628   2.222   3.096   6.262
 8891TIP3   OH226629   3.981   4.248   3.990
 8891TIP3    H126630   3.991   4.248   3.895
 8891TIP3    H226631   3.996   4.158   4.017
 8892TIP3   OH226632   5.200   7.646   3.804
 8892TIP3    H126633   5.265   7.713   3.783
 8892TIP3    H226634   5.166   7.672   3.890
 8893TIP3   OH226635   3.268   6.916   3.168
 8893TIP3    H126636   3.175   6.928   3.188
 8893TIP3    H226637   3.311   6.991   3.211
 8894TIP3   OH226638   0.725   4.247   1.863
 8894TIP3    H126639   0.811   4.208   1.851
 8894TIP3    H226640   0.742   4.339   1.881
 8895TIP3   OH226641   3.628   2.704   6.249
 8895TIP3    H126642   3.683   2.647   6.303
 8895TIP3    H226643   3.549   2.717   6.300
 8896TIP3   OH226644   2.227   5.403   6.136
 8896TIP3    H126645   2.306   5.456   6.124
 8896TIP3    H226646   2.259   5.316   6.158
 8897TIP3   OH226647   2.479   5.082   3.072
 8897TIP3    H126648   2.483   5.167   3.116
 8897TIP3    H226649   2.533   5.025   3.127
 8898TIP3   OH226650   6.776   0.037   5.372
 8898TIP3    H126651   6.719   0.000   5.305
 8898TIP3    H226652   6.719   0.094   5.424
 8899TIP3   OH226653   0.437   4.137   4.792
 8899TIP3    H126654   0.453   4.228   4.767
 8899TIP3    H226655   0.520   4.106   4.828
 8900TIP3   OH226656   7.290   0.111   5.582
 8900TIP3    H126657   7.266   0.144   5.496
 8900TIP3    H226658   7.250   0.024   5.586
 8901TIP3   OH226659   7.300   4.664   0.826
 8901TIP3    H126660   7.259   4.581   0.851
 8901TIP3    H226661   7.380   4.637   0.780
 8902TIP3   OH226662   5.695   6.679   1.702
 8902TIP3    H126663   5.740   6.640   1.627
 8902TIP3    H226664   5.760   6.682   1.771
 8903TIP3   OH226665   6.719   5.260   5.075
 8903TIP3    H126666   6.663   5.330   5.111
 8903TIP3    H226667   6.805   5.300   5.068
 8904TIP3   OH226668   2.743   0.128   5.593
 8904TIP3    H126669   2.775   0.142   5.682
 8904TIP3    H226670   2.685   0.202   5.576
 8905TIP3   OH226671   3.803   6.749   1.151
 8905TIP3    H126672   3.836   6.697   1.223
 8905TIP3    H226673   3.858   6.827   1.150
 8906TIP3   OH226674   4.652   5.869   3.533
 8906TIP3    H126675   4.747   5.868   3.540
 8906TIP3    H226676   4.621   5.821   3.609
 8907TIP3   OH226677   3.419   5.748   3.735
 8907TIP3    H126678   3.430   5.752   3.640
 8907TIP3    H226679   3.336   5.703   3.748
 8908TIP3   OH226680  -0.007   6.432   0.776
 8908TIP3    H126681   0.072   6.390   0.740
 8908TIP3    H226682  -0.040   6.486   0.705
 8909TIP3   OH226683   1.129   5.842   6.055
 8909TIP3    H126684   1.204   5.804   6.100
 8909TIP3    H226685   1.077   5.766   6.028
 8910TIP3   OH226686   2.017   3.132   2.081
 8910TIP3    H126687   2.047   3.172   2.163
 8910TIP3    H226688   1.931   3.172   2.066
 8911TIP3   OH226689   8.023   5.851   1.102
 8911TIP3    H126690   8.059   5.814   1.183
 8911TIP3    H226691   8.018   5.776   1.042
 8912TIP3   OH226692   6.811   0.432   3.386
 8912TIP3    H126693   6.774   0.455   3.301
 8912TIP3    H226694   6.792   0.508   3.442
 8913TIP3   OH226695   4.691   0.137   1.975
 8913TIP3    H126696   4.682   0.079   2.051
 8913TIP3    H226697   4.674   0.080   1.900
 8914TIP3   OH226698   4.855   7.029   5.302
 8914TIP3    H126699   4.820   7.045   5.214
 8914TIP3    H226700   4.936   7.079   5.305
 8915TIP3   OH226701   0.239   0.234   0.099
 8915TIP3    H126702   0.249   0.265   0.189
 8915TIP3    H226703   0.297   0.159   0.092
 8916TIP3   OH226704   1.878   5.230   2.476
 8916TIP3    H126705   1.927   5.209   2.397
 8916TIP3    H226706   1.854   5.145   2.512
 8917TIP3   OH226707   0.565   3.294   6.163
 8917TIP3    H126708   0.623   3.329   6.096
 8917TIP3    H226709   0.547   3.367   6.222
 8918TIP3   OH226710   8.297   1.933   3.201
 8918TIP3    H126711   8.287   1.880   3.122
 8918TIP3    H226712   8.232   2.002   3.192
 8919TIP3   OH226713   3.535   4.278   4.169
 8919TIP3    H126714   3.605   4.326   4.213
 8919TIP3    H226715   3.580   4.224   4.105
 8920TIP3   OH226716   1.639   1.422   1.614
 8920TIP3    H126717   1.646   1.449   1.522
 8920TIP3    H226718   1.689   1.488   1.662
 8921TIP3   OH226719   2.733   3.708   1.858
 8921TIP3    H126720   2.813   3.695   1.910
 8921TIP3    H226721   2.676   3.760   1.914
 8922TIP3   OH226722   2.245   0.521   4.106
 8922TIP3    H126723   2.219   0.607   4.141
 8922TIP3    H226724   2.340   0.523   4.107
 8923TIP3   OH226725   0.498   3.879   2.584
 8923TIP3    H126726   0.410   3.845   2.600
 8923TIP3    H226727   0.553   3.801   2.576
 8924TIP3   OH226728   0.251   4.064   2.198
 8924TIP3    H126729   0.282   4.017   2.120
 8924TIP3    H226730   0.177   4.012   2.228
 8925TIP3   OH226731   0.645   3.608   1.052
 8925TIP3    H126732   0.698   3.625   1.129
 8925TIP3    H226733   0.555   3.620   1.082
 8926TIP3   OH226734   4.938   3.846   5.132
 8926TIP3    H126735   4.916   3.929   5.089
 8926TIP3    H226736   4.869   3.833   5.196
 8927TIP3   OH226737   7.848   7.520   3.460
 8927TIP3    H126738   7.802   7.575   3.523
 8927TIP3    H226739   7.790   7.445   3.447
 8928TIP3   OH226740   6.883   1.819   5.813
 8928TIP3    H126741   6.940   1.891   5.841
 8928TIP3    H226742   6.861   1.773   5.894
 8929TIP3   OH226743   2.398   4.599   4.381
 8929TIP3    H126744   2.364   4.514   4.352
 8929TIP3    H226745   2.471   4.578   4.439
 8930TIP3   OH226746   7.672   0.942   3.524
 8930TIP3    H126747   7.686   0.954   3.618
 8930TIP3    H226748   7.580   0.918   3.516
 8931TIP3   OH226749   3.708   4.004   6.344
 8931TIP3    H126750   3.643   3.940   6.313
 8931TIP3    H226751   3.660   4.059   6.406
 8932TIP3   OH226752   5.640   4.862   2.889
 8932TIP3    H126753   5.624   4.881   2.796
 8932TIP3    H226754   5.553   4.857   2.927
 8933TIP3   OH226755   3.724   4.786   4.478
 8933TIP3    H126756   3.694   4.743   4.398
 8933TIP3    H226757   3.664   4.860   4.491
 8934TIP3   OH226758   1.434   2.395   2.456
 8934TIP3    H126759   1.465   2.372   2.544
 8934TIP3    H226760   1.383   2.319   2.428
 8935TIP3   OH226761   0.552   6.299   4.281
 8935TIP3    H126762   0.489   6.331   4.346
 8935TIP3    H226763   0.548   6.204   4.289
 8936TIP3   OH226764   5.330   4.035   5.360
 8936TIP3    H126765   5.324   4.106   5.424
 8936TIP3    H226766   5.293   3.959   5.405
 8937TIP3   OH226767   4.304   2.583   4.022
 8937TIP3    H126768   4.337   2.610   3.937
 8937TIP3    H226769   4.261   2.499   4.006
 8938TIP3   OH226770   5.029   3.477   5.654
 8938TIP3    H126771   4.972   3.531   5.708
 8938TIP3    H226772   4.972   3.410   5.617
 8939TIP3   OH226773   0.342   1.650   3.444
 8939TIP3    H126774   0.402   1.706   3.394
 8939TIP3    H226775   0.257   1.693   3.437
 8940TIP3   OH226776   3.758   0.484   1.616
 8940TIP3    H126777   3.671   0.523   1.620
 8940TIP3    H226778   3.797   0.519   1.536
 8941TIP3   OH226779   3.633   0.160   1.081
 8941TIP3    H126780   3.563   0.224   1.089
 8941TIP3    H226781   3.669   0.153   1.170
 8942TIP3   OH226782   4.228   6.473   6.437
 8942TIP3    H126783   4.285   6.433   6.370
 8942TIP3    H226784   4.197   6.398   6.489
 8943TIP3   OH226785   1.951   3.371   6.737
 8943TIP3    H126786   2.024   3.335   6.686
 8943TIP3    H226787   1.874   3.353   6.684
 8944TIP3   OH226788   7.174   0.847   6.082
 8944TIP3    H126789   7.080   0.844   6.095
 8944TIP3    H226790   7.211   0.824   6.168
 8945TIP3   OH226791   7.797   3.821   6.258
 8945TIP3    H126792   7.875   3.841   6.310
 8945TIP3    H226793   7.779   3.729   6.276
 8946TIP3   OH226794   6.529   4.119   5.079
 8946TIP3    H126795   6.537   4.024   5.081
 8946TIP3    H226796   6.526   4.142   4.986
 8947TIP3   OH226797   6.317   5.691   5.318
 8947TIP3    H126798   6.315   5.752   5.393
 8947TIP3    H226799   6.264   5.617   5.346
 8948TIP3   OH226800   5.608   0.796   4.655
 8948TIP3    H126801   5.533   0.737   4.655
 8948TIP3    H226802   5.672   0.755   4.713
 8949TIP3   OH226803   5.456   3.696   5.244
 8949TIP3    H126804   5.503   3.625   5.288
 8949TIP3    H226805   5.515   3.725   5.175
 8950TIP3   OH226806   7.084   0.092   4.221
 8950TIP3    H126807   7.032   0.164   4.186
 8950TIP3    H226808   7.065   0.018   4.164
 8951TIP3   OH226809   4.438   6.085   0.762
 8951TIP3    H126810   4.445   6.123   0.850
 8951TIP3    H226811   4.440   5.991   0.776
 8952TIP3   OH226812   1.007   4.259   5.973
 8952TIP3    H126813   0.931   4.308   6.004
 8952TIP3    H226814   0.970   4.184   5.926
 8953TIP3   OH226815   2.868   3.108   0.744
 8953TIP3    H126816   2.813   3.150   0.677
 8953TIP3    H226817   2.941   3.168   0.756
 8954TIP3   OH226818   0.474   7.047   4.861
 8954TIP3    H126819   0.525   7.058   4.941
 8954TIP3    H226820   0.466   7.135   4.825
 8955TIP3   OH226821   6.014   2.405   4.906
 8955TIP3    H126822   5.942   2.425   4.965
 8955TIP3    H226823   6.075   2.477   4.917
 8956TIP3   OH226824   6.923   2.196   1.295
 8956TIP3    H126825   6.858   2.159   1.355
 8956TIP3    H226826   7.007   2.171   1.334
 8957TIP3   OH226827   7.613   3.219   1.682
 8957TIP3    H126828   7.642   3.270   1.606
 8957TIP3    H226829   7.544   3.271   1.721
 8958TIP3   OH226830   1.049   1.048   6.345
 8958TIP3    H126831   1.012   1.114   6.403
 8958TIP3    H226832   1.144   1.061   6.350
 8959TIP3   OH226833   8.078   3.389   5.094
 8959TIP3    H126834   8.095   3.371   5.001
 8959TIP3    H226835   8.092   3.305   5.138
 8960TIP3   OH226836   5.629   7.712   2.136
 8960TIP3    H126837   5.722   7.703   2.157
 8960TIP3    H226838   5.601   7.791   2.183
 8961TIP3   OH226839   0.812   0.937   3.775
 8961TIP3    H126840   0.724   0.971   3.758
 8961TIP3    H226841   0.802   0.884   3.854
 8962TIP3   OH226842   5.108   1.626   4.588
 8962TIP3    H126843   5.080   1.703   4.539
 8962TIP3    H226844   5.161   1.661   4.660
 8963TIP3   OH226845   4.890   4.931   1.740
 8963TIP3    H126846   4.872   4.868   1.811
 8963TIP3    H226847   4.821   4.914   1.675
 8964TIP3   OH226848   2.348   1.345   6.092
 8964TIP3    H126849   2.429   1.389   6.066
 8964TIP3    H226850   2.328   1.287   6.018
 8965TIP3   OH226851   7.820   6.954   0.092
 8965TIP3    H126852   7.862   7.025   0.042
 8965TIP3    H226853   7.775   6.902   0.026
 8966TIP3   OH226854   3.640   1.986   4.200
 8966TIP3    H126855   3.625   1.993   4.294
 8966TIP3    H226856   3.618   1.895   4.179
 8967TIP3   OH226857   2.693   5.676   1.118
 8967TIP3    H126858   2.779   5.659   1.157
 8967TIP3    H226859   2.711   5.684   1.024
 8968TIP3   OH226860   4.556   4.002   2.351
 8968TIP3    H126861   4.565   3.961   2.437
 8968TIP3    H226862   4.626   4.066   2.347
 8969TIP3   OH226863   1.997   1.188   0.202
 8969TIP3    H126864   2.005   1.191   0.297
 8969TIP3    H226865   1.920   1.133   0.186
 8970TIP3   OH226866   5.807   1.947   5.284
 8970TIP3    H126867   5.879   1.986   5.333
 8970TIP3    H226868   5.835   1.950   5.193
 8971TIP3   OH226869   5.625   1.229   2.573
 8971TIP3    H126870   5.714   1.194   2.578
 8971TIP3    H226871   5.623   1.279   2.492
 8972TIP3   OH226872   3.096   4.301   1.416
 8972TIP3    H126873   3.152   4.356   1.361
 8972TIP3    H226874   3.154   4.233   1.450
 8973TIP3   OH226875   7.823   2.201   6.133
 8973TIP3    H126876   7.828   2.134   6.201
 8973TIP3    H226877   7.830   2.284   6.180
 8974TIP3   OH226878   7.406   5.608   0.099
 8974TIP3    H126879   7.468   5.542   0.130
 8974TIP3    H226880   7.349   5.625   0.174
 8975TIP3   OH226881   2.037   0.490   4.378
 8975TIP3    H126882   2.065   0.557   4.316
 8975TIP3    H226883   2.118   0.453   4.412
 8976TIP3   OH226884   0.711   7.384   1.806
 8976TIP3    H126885   0.794   7.336   1.804
 8976TIP3    H226886   0.650   7.324   1.849
 8977TIP3   OH226887   2.891   1.328   1.149
 8977TIP3    H126888   2.874   1.375   1.067
 8977TIP3    H226889   2.940   1.390   1.203
 8978TIP3   OH226890   4.710   4.393   2.291
 8978TIP3    H126891   4.729   4.321   2.351
 8978TIP3    H226892   4.752   4.470   2.331
 8979TIP3   OH226893   6.597   2.127   4.519
 8979TIP3    H126894   6.507   2.160   4.507
 8979TIP3    H226895   6.594   2.037   4.486
 8980TIP3   OH226896   1.403   7.692   2.626
 8980TIP3    H126897   1.313   7.668   2.604
 8980TIP3    H226898   1.426   7.760   2.562
 8981TIP3   OH226899   5.561   1.817   0.573
 8981TIP3    H126900   5.560   1.832   0.479
 8981TIP3    H226901   5.615   1.888   0.608
 8982TIP3   OH226902   4.350   5.333   4.812
 8982TIP3    H126903   4.415   5.300   4.874
 8982TIP3    H226904   4.268   5.330   4.860
 8983TIP3   OH226905   5.087   3.115   2.869
 8983TIP3    H126906   5.135   3.197   2.864
 8983TIP3    H226907   5.000   3.135   2.834
 8984TIP3   OH226908   0.177   2.538   3.166
 8984TIP3    H126909   0.150   2.480   3.094
 8984TIP3    H226910   0.133   2.621   3.146
 8985TIP3   OH226911   7.570   3.026   6.368
 8985TIP3    H126912   7.603   2.952   6.419
 8985TIP3    H226913   7.544   3.091   6.434
 8986TIP3   OH226914   6.739   7.284   4.817
 8986TIP3    H126915   6.723   7.190   4.811
 8986TIP3    H226916   6.696   7.321   4.739
 8987TIP3   OH226917   1.217   5.651   4.688
 8987TIP3    H126918   1.254   5.621   4.605
 8987TIP3    H226919   1.135   5.602   4.697
 8988TIP3   OH226920   3.878   4.886   6.434
 8988TIP3    H126921   3.843   4.832   6.363
 8988TIP3    H226922   3.971   4.863   6.439
 8989TIP3   OH226923   2.164   4.684   4.979
 8989TIP3    H126924   2.168   4.600   5.025
 8989TIP3    H226925   2.198   4.748   5.041
 8990TIP3   OH226926   3.969   2.835   4.905
 8990TIP3    H126927   4.060   2.862   4.893
 8990TIP3    H226928   3.941   2.881   4.984
 8991TIP3   OH226929   6.648   4.716   5.637
 8991TIP3    H126930   6.681   4.757   5.717
 8991TIP3    H226931   6.703   4.639   5.624
 8992TIP3   OH226932   4.927   4.638   3.956
 8992TIP3    H126933   4.846   4.689   3.954
 8992TIP3    H226934   4.934   4.608   4.047
 8993TIP3   OH226935   7.717   0.073   3.372
 8993TIP3    H126936   7.681   0.031   3.293
 8993TIP3    H226937   7.659   0.148   3.387
 8994TIP3   OH226938   0.626   0.284   4.364
 8994TIP3    H126939   0.678   0.353   4.323
 8994TIP3    H226940   0.561   0.260   4.297
 8995TIP3   OH226941   0.259   4.449   2.910
 8995TIP3    H126942   0.166   4.453   2.887
 8995TIP3    H226943   0.302   4.494   2.838
 8996TIP3   OH226944   5.647   4.433   6.514
 8996TIP3    H126945   5.568   4.488   6.507
 8996TIP3    H226946   5.697   4.472   6.585
 8997TIP3   OH226947   8.092   7.007   5.904
 8997TIP3    H126948   8.021   6.943   5.900
 8997TIP3    H226949   8.078   7.053   5.987
 8998TIP3   OH226950   5.176   0.646   1.331
 8998TIP3    H126951   5.122   0.644   1.410
 8998TIP3    H226952   5.114   0.642   1.259
 8999TIP3   OH226953   3.390   0.151   3.105
 8999TIP3    H126954   3.339   0.231   3.098
 8999TIP3    H226955   3.388   0.113   3.017
 9000TIP3   OH226956   3.156   2.135   2.670
 9000TIP3    H126957   3.134   2.066   2.607
 9000TIP3    H226958   3.175   2.088   2.751
 9001TIP3   OH226959   2.968   5.397   1.744
 9001TIP3    H126960   2.923   5.394   1.659
 9001TIP3    H226961   2.938   5.479   1.783
 9002TIP3   OH226962   2.265   4.950   4.024
 9002TIP3    H126963   2.246   5.039   4.053
 9002TIP3    H226964   2.306   4.908   4.100
 9003TIP3   OH226965   6.064   1.039   1.818
 9003TIP3    H126966   6.127   1.014   1.885
 9003TIP3    H226967   6.048   1.132   1.833
 9004TIP3   OH226968   6.145   5.777   6.422
 9004TIP3    H126969   6.103   5.797   6.338
 9004TIP3    H226970   6.132   5.856   6.475
 9005TIP3   OH226971   2.066   7.471   4.151
 9005TIP3    H126972   2.149   7.485   4.196
 9005TIP3    H226973   2.087   7.475   4.058
 9006TIP3   OH226974   6.552   2.420   1.090
 9006TIP3    H126975   6.573   2.512   1.109
 9006TIP3    H226976   6.558   2.414   0.995
 9007TIP3   OH226977   7.790   1.987   2.021
 9007TIP3    H126978   7.791   1.897   1.987
 9007TIP3    H226979   7.876   1.997   2.063
 9008TIP3   OH226980   5.500   6.079   0.323
 9008TIP3    H126981   5.523   5.987   0.314
 9008TIP3    H226982   5.409   6.079   0.353
 9009TIP3   OH226983   8.260   0.912   4.959
 9009TIP3    H126984   8.253   0.934   4.866
 9009TIP3    H226985   8.208   0.832   4.969
 9010TIP3   OH226986   5.080   1.810   5.240
 9010TIP3    H126987   5.025   1.888   5.230
 9010TIP3    H226988   5.158   1.828   5.187
 9011TIP3   OH226989   0.095   6.963   2.246
 9011TIP3    H126990   0.171   6.976   2.190
 9011TIP3    H226991   0.130   6.931   2.329
 9012TIP3   OH226992   5.583   7.602   6.706
 9012TIP3    H126993   5.564   7.514   6.737
 9012TIP3    H226994   5.498   7.638   6.680
 9013TIP3   OH226995   5.377   4.885   1.061
 9013TIP3    H126996   5.387   4.869   1.155
 9013TIP3    H226997   5.389   4.799   1.021
 9014TIP3   OH226998   6.418   4.511   5.167
 9014TIP3    H126999   6.404   4.487   5.075
 9014TIP3    H227000   6.451   4.601   5.163
 9015TIP3   OH227001   4.353   4.466   4.807
 9015TIP3    H127002   4.407   4.537   4.842
 9015TIP3    H227003   4.360   4.475   4.712
 9016TIP3   OH227004   2.029   3.971   1.323
 9016TIP3    H127005   2.095   3.907   1.350
 9016TIP3    H227006   1.963   3.969   1.393
 9017TIP3   OH227007   4.829   2.407   5.618
 9017TIP3    H127008   4.778   2.458   5.556
 9017TIP3    H227009   4.765   2.370   5.678
 9018TIP3   OH227010   7.003   5.178   1.987
 9018TIP3    H127011   7.002   5.240   2.060
 9018TIP3    H227012   6.956   5.224   1.916
 9019TIP3   OH227013   6.557   2.126   4.138
 9019TIP3    H127014   6.594   2.144   4.052
 9019TIP3    H227015   6.621   2.067   4.179
 9020TIP3   OH227016   8.094   3.389   1.852
 9020TIP3    H127017   8.124   3.307   1.891
 9020TIP3    H227018   8.172   3.425   1.811
 9021TIP3   OH227019   6.055   2.631   3.317
 9021TIP3    H127020   5.969   2.667   3.339
 9021TIP3    H227021   6.108   2.645   3.396
 9022TIP3   OH227022   7.534   0.223   5.960
 9022TIP3    H127023   7.455   0.262   5.996
 9022TIP3    H227024   7.503   0.159   5.897
 9023TIP3   OH227025   2.959   1.164   5.994
 9023TIP3    H127026   2.993   1.075   5.999
 9023TIP3    H227027   3.008   1.205   5.922
 9024TIP3   OH227028   2.591   2.226   5.553
 9024TIP3    H127029   2.606   2.274   5.634
 9024TIP3    H227030   2.576   2.136   5.582
 9025TIP3   OH227031   0.322   1.156   2.837
 9025TIP3    H127032   0.228   1.169   2.822
 9025TIP3    H227033   0.364   1.226   2.787
 9026TIP3   OH227034   6.850   0.577   2.301
 9026TIP3    H127035   6.756   0.587   2.314
 9026TIP3    H227036   6.882   0.665   2.285
 9027TIP3   OH227037   0.031   6.131   2.851
 9027TIP3    H127038   0.084   6.082   2.914
 9027TIP3    H227039   0.092   6.155   2.782
 9028TIP3   OH227040   4.430   2.488   3.012
 9028TIP3    H127041   4.419   2.493   2.917
 9028TIP3    H227042   4.344   2.462   3.045
 9029TIP3   OH227043   5.139   4.476   2.368
 9029TIP3    H127044   5.162   4.430   2.449
 9029TIP3    H227045   5.044   4.486   2.372
 9030TIP3   OH227046   4.994   1.805   1.052
 9030TIP3    H127047   5.069   1.757   1.019
 9030TIP3    H227048   5.022   1.897   1.053
 9031TIP3   OH227049   8.003   3.793   3.432
 9031TIP3    H127050   8.063   3.744   3.488
 9031TIP3    H227051   8.054   3.816   3.355
 9032TIP3   OH227052   0.373   2.957   5.674
 9032TIP3    H127053   0.435   2.964   5.747
 9032TIP3    H227054   0.392   3.034   5.620
 9033TIP3   OH227055   5.312   5.370   6.068
 9033TIP3    H127056   5.399   5.401   6.043
 9033TIP3    H227057   5.328   5.286   6.112
 9034TIP3   OH227058   3.515   1.855   5.741
 9034TIP3    H127059   3.590   1.861   5.681
 9034TIP3    H227060   3.549   1.811   5.818
 9035TIP3   OH227061   5.339   5.791   1.443
 9035TIP3    H127062   5.293   5.862   1.488
 9035TIP3    H227063   5.343   5.720   1.507
 9036TIP3   OH227064   8.371   2.720   2.839
 9036TIP3    H127065   8.286   2.726   2.796
 9036TIP3    H227066   8.353   2.738   2.931
 9037TIP3   OH227067   3.750   3.576   1.275
 9037TIP3    H127068   3.825   3.634   1.261
 9037TIP3    H227069   3.777   3.519   1.348
 9038TIP3   OH227070   6.462   1.891   0.081
 9038TIP3    H127071   6.474   1.813   0.136
 9038TIP3    H227072   6.371   1.885   0.051
 9039TIP3   OH227073   6.677   6.899   1.841
 9039TIP3    H127074   6.704   6.957   1.912
 9039TIP3    H227075   6.756   6.848   1.822
 9040TIP3   OH227076   1.430   4.980   5.959
 9040TIP3    H127077   1.403   4.915   5.894
 9040TIP3    H227078   1.521   4.957   5.979
 9041TIP3   OH227079   1.799   3.792   4.198
 9041TIP3    H127080   1.865   3.739   4.154
 9041TIP3    H227081   1.826   3.791   4.290
 9042TIP3   OH227082   4.820   1.734   0.856
 9042TIP3    H127083   4.763   1.673   0.902
 9042TIP3    H227084   4.883   1.763   0.921
 9043TIP3   OH227085   2.133   1.596   5.417
 9043TIP3    H127086   2.102   1.676   5.458
 9043TIP3    H227087   2.181   1.550   5.485
 9044TIP3   OH227088   4.713   5.880   4.028
 9044TIP3    H127089   4.646   5.925   4.080
 9044TIP3    H227090   4.769   5.837   4.093
 9045TIP3   OH227091   3.322   4.289   0.042
 9045TIP3    H127092   3.255   4.350   0.011
 9045TIP3    H227093   3.394   4.346   0.069
 9046TIP3   OH227094   4.925   0.658   4.812
 9046TIP3    H127095   5.017   0.630   4.813
 9046TIP3    H227096   4.921   0.728   4.877
 9047TIP3   OH227097   4.678   1.583   3.808
 9047TIP3    H127098   4.665   1.521   3.880
 9047TIP3    H227099   4.682   1.528   3.730
 9048TIP3   OH227100   1.440   6.921   4.718
 9048TIP3    H127101   1.364   6.973   4.744
 9048TIP3    H227102   1.507   6.985   4.696
 9049TIP3   OH227103   1.735   3.677   6.504
 9049TIP3    H127104   1.722   3.679   6.598
 9049TIP3    H227105   1.708   3.589   6.477
 9050TIP3   OH227106   4.187   2.293   5.524
 9050TIP3    H127107   4.242   2.279   5.447
 9050TIP3    H227108   4.108   2.335   5.491
 9051TIP3   OH227109   6.371   1.827   5.783
 9051TIP3    H127110   6.376   1.737   5.816
 9051TIP3    H227111   6.294   1.864   5.825
 9052TIP3   OH227112   0.083   0.424   4.310
 9052TIP3    H127113   0.091   0.500   4.252
 9052TIP3    H227114   0.056   0.462   4.394
 9053TIP3   OH227115   7.124   6.804   6.265
 9053TIP3    H127116   7.038   6.842   6.254
 9053TIP3    H227117   7.184   6.878   6.262
 9054TIP3   OH227118   3.727   7.282   0.555
 9054TIP3    H127119   3.683   7.324   0.629
 9054TIP3    H227120   3.780   7.352   0.517
 9055TIP3   OH227121   3.665   4.455   4.367
 9055TIP3    H127122   3.747   4.454   4.318
 9055TIP3    H227123   3.690   4.430   4.456
 9056TIP3   OH227124   1.969   3.970   4.733
 9056TIP3    H127125   1.946   3.897   4.791
 9056TIP3    H227126   1.941   4.048   4.781
 9057TIP3   OH227127   1.808   4.414   0.948
 9057TIP3    H127128   1.718   4.433   0.922
 9057TIP3    H227129   1.809   4.428   1.043
 9058TIP3   OH227130   7.451   4.735   2.406
 9058TIP3    H127131   7.418   4.675   2.339
 9058TIP3    H227132   7.386   4.805   2.410
 9059TIP3   OH227133   5.195   3.522   0.090
 9059TIP3    H127134   5.118   3.491   0.042
 9059TIP3    H227135   5.263   3.529   0.023
 9060TIP3   OH227136   4.951   1.835   2.980
 9060TIP3    H127137   5.013   1.850   2.908
 9060TIP3    H227138   4.867   1.823   2.937
 9061TIP3   OH227139   0.088   3.947   1.516
 9061TIP3    H127140   0.033   3.954   1.438
 9061TIP3    H227141   0.125   4.035   1.527
 9062TIP3   OH227142   6.740   3.889   6.303
 9062TIP3    H127143   6.705   3.958   6.359
 9062TIP3    H227144   6.826   3.868   6.340
 9063TIP3   OH227145   2.543   1.952   3.319
 9063TIP3    H127146   2.574   1.998   3.241
 9063TIP3    H227147   2.586   1.997   3.392
 9064TIP3   OH227148   3.582   2.024   1.042
 9064TIP3    H127149   3.666   1.984   1.063
 9064TIP3    H227150   3.526   1.951   1.015
 9065TIP3   OH227151   1.753   4.694   4.713
 9065TIP3    H127152   1.735   4.788   4.720
 9065TIP3    H227153   1.828   4.680   4.771
 9066TIP3   OH227154   6.249   2.011   5.423
 9066TIP3    H127155   6.256   1.915   5.420
 9066TIP3    H227156   6.327   2.042   5.377
 9067TIP3   OH227157   3.475   4.716   4.057
 9067TIP3    H127158   3.459   4.713   4.152
 9067TIP3    H227159   3.546   4.653   4.043
 9068TIP3   OH227160   6.505   5.296   4.725
 9068TIP3    H127161   6.588   5.254   4.746
 9068TIP3    H227162   6.450   5.281   4.801
 9069TIP3   OH227163   0.754   3.417   2.615
 9069TIP3    H127164   0.809   3.478   2.666
 9069TIP3    H227165   0.701   3.372   2.681
 9070TIP3   OH227166   6.010   3.118   4.453
 9070TIP3    H127167   5.929   3.091   4.496
 9070TIP3    H227168   5.982   3.178   4.384
 9071TIP3   OH227169   3.585   7.183   4.916
 9071TIP3    H127170   3.519   7.122   4.884
 9071TIP3    H227171   3.663   7.163   4.865
 9072TIP3   OH227172   5.752   3.375   3.311
 9072TIP3    H127173   5.774   3.386   3.219
 9072TIP3    H227174   5.669   3.326   3.309
 9073TIP3   OH227175   4.678   1.968   1.201
 9073TIP3    H127176   4.618   2.034   1.166
 9073TIP3    H227177   4.719   2.010   1.276
 9074TIP3   OH227178   1.021   7.320   2.926
 9074TIP3    H127179   1.001   7.353   3.014
 9074TIP3    H227180   0.965   7.373   2.868
 9075TIP3   OH227181   1.914   0.529   2.353
 9075TIP3    H127182   1.898   0.553   2.444
 9075TIP3    H227183   1.853   0.457   2.336
 9076TIP3   OH227184   2.293   6.327   2.041
 9076TIP3    H127185   2.344   6.397   2.002
 9076TIP3    H227186   2.337   6.308   2.124
 9077TIP3   OH227187   1.340   4.739   0.318
 9077TIP3    H127188   1.301   4.739   0.406
 9077TIP3    H227189   1.418   4.793   0.327
 9078TIP3   OH227190   3.033   6.578   0.802
 9078TIP3    H127191   2.959   6.552   0.856
 9078TIP3    H227192   3.110   6.547   0.851
 9079TIP3   OH227193   2.425   4.650   6.442
 9079TIP3    H127194   2.351   4.680   6.389
 9079TIP3    H227195   2.458   4.730   6.483
 9080TIP3   OH227196   6.809   5.469   4.869
 9080TIP3    H127197   6.729   5.516   4.847
 9080TIP3    H227198   6.807   5.390   4.815
 9081TIP3   OH227199  -0.095   0.406   4.679
 9081TIP3    H127200  -0.051   0.403   4.763
 9081TIP3    H227201  -0.046   0.471   4.629
 9082TIP3   OH227202   4.344   1.204   4.689
 9082TIP3    H127203   4.259   1.249   4.685
 9082TIP3    H227204   4.400   1.264   4.739
 9083TIP3   OH227205   8.157   7.346   1.993
 9083TIP3    H127206   8.181   7.257   2.019
 9083TIP3    H227207   8.238   7.396   2.000
 9084TIP3   OH227208   6.030   5.776   3.982
 9084TIP3    H127209   6.006   5.867   3.964
 9084TIP3    H227210   6.018   5.767   4.077
 9085TIP3   OH227211   5.308   0.302   4.759
 9085TIP3    H127212   5.281   0.225   4.809
 9085TIP3    H227213   5.391   0.329   4.798
 9086TIP3   OH227214   0.768   5.813   4.672
 9086TIP3    H127215   0.766   5.904   4.704
 9086TIP3    H227216   0.841   5.813   4.609
 9087TIP3   OH227217   8.280   7.549   6.145
 9087TIP3    H127218   8.191   7.582   6.162
 9087TIP3    H227219   8.266   7.471   6.091
 9088TIP3   OH227220   6.246   5.191   6.594
 9088TIP3    H127221   6.279   5.236   6.516
 9088TIP3    H227222   6.255   5.098   6.572
 9089TIP3   OH227223   6.124   0.794   5.007
 9089TIP3    H127224   6.155   0.865   4.952
 9089TIP3    H227225   6.116   0.833   5.094
 9090TIP3   OH227226   5.875   4.935   6.631
 9090TIP3    H127227   5.837   4.953   6.716
 9090TIP3    H227228   5.969   4.928   6.648
 9091TIP3   OH227229   6.482   0.148   5.277
 9091TIP3    H127230   6.493   0.243   5.274
 9091TIP3    H227231   6.456   0.129   5.367
 9092TIP3   OH227232   5.438   0.390   0.900
 9092TIP3    H127233   5.354   0.366   0.938
 9092TIP3    H227234   5.421   0.397   0.806
 9093TIP3   OH227235   4.613   0.869   5.598
 9093TIP3    H127236   4.582   0.922   5.524
 9093TIP3    H227237   4.599   0.779   5.570
 9094TIP3   OH227238   7.755   4.603   3.616
 9094TIP3    H127239   7.697   4.638   3.548
 9094TIP3    H227240   7.819   4.551   3.568
 9095TIP3   OH227241   8.334   6.024   0.415
 9095TIP3    H127242   8.252   6.073   0.411
 9095TIP3    H227243   8.307   5.933   0.428
 9096TIP3   OH227244   4.954   1.505   0.957
 9096TIP3    H127245   4.899   1.527   0.882
 9096TIP3    H227246   4.916   1.553   1.030
 9097TIP3   OH227247   6.645   2.059   1.838
 9097TIP3    H127248   6.739   2.056   1.851
 9097TIP3    H227249   6.624   2.153   1.836
 9098TIP3   OH227250   2.418   0.396   3.848
 9098TIP3    H127251   2.486   0.328   3.846
 9098TIP3    H227252   2.441   0.450   3.923
 9099TIP3   OH227253   4.691   2.136   0.409
 9099TIP3    H127254   4.753   2.128   0.482
 9099TIP3    H227255   4.664   2.228   0.410
 9100TIP3   OH227256   1.985   0.611   4.816
 9100TIP3    H127257   1.940   0.596   4.733
 9100TIP3    H227258   2.049   0.680   4.797
 9101TIP3   OH227259   4.170   6.120   2.351
 9101TIP3    H127260   4.101   6.134   2.287
 9101TIP3    H227261   4.175   6.202   2.400
 9102TIP3   OH227262   7.515   2.547   4.160
 9102TIP3    H127263   7.423   2.574   4.157
 9102TIP3    H227264   7.545   2.553   4.070
 9103TIP3   OH227265   3.676   6.686   1.489
 9103TIP3    H127266   3.685   6.615   1.426
 9103TIP3    H227267   3.700   6.765   1.439
 9104TIP3   OH227268   3.816   0.449   6.712
 9104TIP3    H127269   3.843   0.488   6.629
 9104TIP3    H227270   3.839   0.515   6.778
 9105TIP3   OH227271   7.131   6.809   0.571
 9105TIP3    H127272   7.175   6.751   0.509
 9105TIP3    H227273   7.115   6.754   0.648
 9106TIP3   OH227274   4.622   5.083   3.959
 9106TIP3    H127275   4.663   4.999   3.979
 9106TIP3    H227276   4.662   5.144   4.021
 9107TIP3   OH227277   4.599   2.513   2.483
 9107TIP3    H127278   4.529   2.462   2.442
 9107TIP3    H227279   4.663   2.525   2.412
 9108TIP3   OH227280   7.357   1.314  -0.010
 9108TIP3    H127281   7.297   1.388   0.000
 9108TIP3    H227282   7.348   1.264   0.071
 9109TIP3   OH227283   6.058   2.694   5.230
 9109TIP3    H127284   6.033   2.653   5.148
 9109TIP3    H227285   6.149   2.721   5.216
 9110TIP3   OH227286   6.548   1.620   1.013
 9110TIP3    H127287   6.567   1.557   1.082
 9110TIP3    H227288   6.634   1.651   0.985
 9111TIP3   OH227289   2.271   2.169   2.202
 9111TIP3    H127290   2.266   2.168   2.107
 9111TIP3    H227291   2.182   2.190   2.231
 9112TIP3   OH227292   2.650   4.407   0.248
 9112TIP3    H127293   2.645   4.490   0.199
 9112TIP3    H227294   2.589   4.419   0.321
 9113TIP3   OH227295   6.480   3.858   5.588
 9113TIP3    H127296   6.390   3.828   5.573
 9113TIP3    H227297   6.519   3.857   5.501
 9114TIP3   OH227298   2.597   3.159   6.699
 9114TIP3    H127299   2.536   3.225   6.733
 9114TIP3    H227300   2.594   3.171   6.604
 9115TIP3   OH227301   1.894   4.008   0.221
 9115TIP3    H127302   1.842   4.078   0.261
 9115TIP3    H227303   1.829   3.951   0.180
 9116TIP3   OH227304   5.094   7.592   5.788
 9116TIP3    H127305   5.125   7.667   5.738
 9116TIP3    H227306   5.157   7.582   5.859
 9117TIP3   OH227307   5.135   1.000   6.744
 9117TIP3    H127308   5.050   1.031   6.776
 9117TIP3    H227309   5.119   0.908   6.723
 9118TIP3   OH227310   3.067   6.958   4.013
 9118TIP3    H127311   3.003   6.922   3.951
 9118TIP3    H227312   3.139   6.895   4.011
 9119TIP3   OH227313   6.968   5.331   2.843
 9119TIP3    H127314   7.052   5.330   2.797
 9119TIP3    H227315   6.902   5.326   2.773
 9120TIP3   OH227316   0.343   3.959   6.272
 9120TIP3    H127317   0.371   3.879   6.228
 9120TIP3    H227318   0.268   3.990   6.221
 9121TIP3   OH227319   7.095   1.361   2.713
 9121TIP3    H127320   7.163   1.427   2.724
 9121TIP3    H227321   7.110   1.298   2.783
 9122TIP3   OH227322   3.236   7.709  -0.060
 9122TIP3    H127323   3.228   7.639   0.005
 9122TIP3    H227324   3.210   7.789  -0.013
 9123TIP3   OH227325   3.003   7.841   4.211
 9123TIP3    H127326   3.022   7.781   4.138
 9123TIP3    H227327   2.949   7.789   4.270
 9124TIP3   OH227328   7.027   0.253   2.647
 9124TIP3    H127329   7.042   0.183   2.584
 9124TIP3    H227330   7.111   0.264   2.691
 9125TIP3   OH227331   4.751   5.399   3.939
 9125TIP3    H127332   4.735   5.356   4.023
 9125TIP3    H227333   4.836   5.366   3.911
 9126TIP3   OH227334   4.891   4.126   2.975
 9126TIP3    H127335   4.972   4.139   3.024
 9126TIP3    H227336   4.899   4.182   2.899
 9127TIP3   OH227337   3.094   0.720   1.596
 9127TIP3    H127338   3.124   0.647   1.651
 9127TIP3    H227339   3.147   0.713   1.516
 9128TIP3   OH227340   8.080   5.318   4.246
 9128TIP3    H127341   8.042   5.396   4.287
 9128TIP3    H227342   8.170   5.315   4.279
 9129TIP3   OH227343   0.448   4.920   3.569
 9129TIP3    H127344   0.465   5.014   3.563
 9129TIP3    H227345   0.530   4.882   3.600
 9130TIP3   OH227346   2.625   4.137   5.753
 9130TIP3    H127347   2.550   4.108   5.805
 9130TIP3    H227348   2.627   4.232   5.766
 9131TIP3   OH227349   6.766   1.301   5.875
 9131TIP3    H127350   6.736   1.221   5.918
 9131TIP3    H227351   6.855   1.313   5.906
 9132TIP3   OH227352   3.977   4.607   3.228
 9132TIP3    H127353   3.944   4.677   3.171
 9132TIP3    H227354   4.072   4.611   3.217
 9133TIP3   OH227355   7.025   4.687   3.358
 9133TIP3    H127356   6.930   4.686   3.356
 9133TIP3    H227357   7.047   4.691   3.452
 9134TIP3   OH227358   4.231   4.064   6.084
 9134TIP3    H127359   4.159   4.032   6.029
 9134TIP3    H227360   4.310   4.045   6.033
 9135TIP3   OH227361   0.597   2.555   4.716
 9135TIP3    H127362   0.658   2.511   4.657
 9135TIP3    H227363   0.604   2.648   4.694
 9136TIP3   OH227364   1.644   1.480   3.850
 9136TIP3    H127365   1.622   1.548   3.914
 9136TIP3    H227366   1.713   1.429   3.892
 9137TIP3   OH227367   6.555   6.970   1.584
 9137TIP3    H127368   6.627   6.907   1.590
 9137TIP3    H227369   6.543   6.985   1.491
 9138TIP3   OH227370   3.349   2.236   2.409
 9138TIP3    H127371   3.427   2.276   2.371
 9138TIP3    H227372   3.383   2.170   2.469
 9139TIP3   OH227373   3.522   6.934   4.567
 9139TIP3    H127374   3.513   6.878   4.491
 9139TIP3    H227375   3.536   6.874   4.640
 9140TIP3   OH227376   4.004   1.375   4.158
 9140TIP3    H127377   3.963   1.292   4.183
 9140TIP3    H227378   4.084   1.379   4.211
 9141TIP3   OH227379   6.556   7.642   1.451
 9141TIP3    H127380   6.476   7.599   1.422
 9141TIP3    H227381   6.543   7.658   1.544
 9142TIP3   OH227382   8.090   6.758   4.106
 9142TIP3    H127383   8.015   6.792   4.058
 9142TIP3    H227384   8.160   6.753   4.040
 9143TIP3   OH227385   7.425   4.361   5.251
 9143TIP3    H127386   7.401   4.421   5.322
 9143TIP3    H227387   7.517   4.382   5.233
 9144TIP3   OH227388   3.073   1.227   3.923
 9144TIP3    H127389   3.166   1.242   3.904
 9144TIP3    H227390   3.071   1.139   3.962
 9145TIP3   OH227391   0.513   6.032   4.565
 9145TIP3    H127392   0.607   6.034   4.579
 9145TIP3    H227393   0.498   5.960   4.505
 9146TIP3   OH227394   0.117   3.644   2.030
 9146TIP3    H127395   0.161   3.723   1.999
 9146TIP3    H227396   0.040   3.676   2.078
 9147TIP3   OH227397   3.817   0.867   0.622
 9147TIP3    H127398   3.836   0.777   0.647
 9147TIP3    H227399   3.769   0.903   0.696
 9148TIP3   OH227400   5.670   1.254   4.824
 9148TIP3    H127401   5.648   1.187   4.760
 9148TIP3    H227402   5.589   1.305   4.834
 9149TIP3   OH227403   0.761   2.170   2.846
 9149TIP3    H127404   0.753   2.222   2.927
 9149TIP3    H227405   0.719   2.087   2.867
 9150TIP3   OH227406   1.848   0.209   5.248
 9150TIP3    H127407   1.764   0.243   5.278
 9150TIP3    H227408   1.826   0.140   5.186
 9151TIP3   OH227409   5.198   2.357   0.950
 9151TIP3    H127410   5.186   2.445   0.986
 9151TIP3    H227411   5.148   2.301   1.009
 9152TIP3   OH227412   6.525   5.270   2.039
 9152TIP3    H127413   6.440   5.234   2.013
 9152TIP3    H227414   6.581   5.193   2.048
 9153TIP3   OH227415   3.774   0.898   2.673
 9153TIP3    H127416   3.828   0.959   2.623
 9153TIP3    H227417   3.773   0.818   2.620
 9154TIP3   OH227418   5.071   4.606   3.033
 9154TIP3    H127419   5.040   4.620   2.944
 9154TIP3    H227420   5.104   4.692   3.061
 9155TIP3   OH227421   0.565   0.408   3.040
 9155TIP3    H127422   0.549   0.426   2.947
 9155TIP3    H227423   0.483   0.368   3.071
 9156TIP3   OH227424   7.791   3.396   1.413
 9156TIP3    H127425   7.841   3.372   1.491
 9156TIP3    H227426   7.775   3.313   1.368
 9157TIP3   OH227427   6.856   3.673   2.306
 9157TIP3    H127428   6.895   3.700   2.223
 9157TIP3    H227429   6.774   3.723   2.311
 9158TIP3   OH227430   7.716   7.783   3.271
 9158TIP3    H127431   7.799   7.824   3.297
 9158TIP3    H227432   7.743   7.703   3.226
 9159TIP3   OH227433   7.145   4.403   2.195
 9159TIP3    H127434   7.175   4.442   2.277
 9159TIP3    H227435   7.050   4.416   2.197
 9160TIP3   OH227436   7.429   2.294   3.015
 9160TIP3    H127437   7.494   2.330   2.954
 9160TIP3    H227438   7.480   2.271   3.093
 9161TIP3   OH227439   1.811   1.506   5.666
 9161TIP3    H127440   1.835   1.558   5.589
 9161TIP3    H227441   1.772   1.570   5.726
 9162TIP3   OH227442   0.330   2.261   0.834
 9162TIP3    H127443   0.413   2.288   0.874
 9162TIP3    H227444   0.289   2.342   0.806
 9163TIP3   OH227445   0.346   1.614   0.640
 9163TIP3    H127446   0.372   1.664   0.717
 9163TIP3    H227447   0.302   1.537   0.676
 9164TIP3   OH227448   4.998   2.097   1.891
 9164TIP3    H127449   5.023   2.156   1.820
 9164TIP3    H227450   5.068   2.106   1.955
 9165TIP3   OH227451   0.067   5.470   2.923
 9165TIP3    H127452   0.086   5.438   2.835
 9165TIP3    H227453   0.054   5.564   2.912
 9166TIP3   OH227454   6.757   1.636   4.025
 9166TIP3    H127455   6.679   1.685   4.000
 9166TIP3    H227456   6.723   1.550   4.051
 9167TIP3   OH227457   0.965   2.490   6.373
 9167TIP3    H127458   0.878   2.515   6.404
 9167TIP3    H227459   0.997   2.568   6.326
 9168TIP3   OH227460   7.563   3.637   1.698
 9168TIP3    H127461   7.528   3.563   1.649
 9168TIP3    H227462   7.509   3.643   1.777
 9169TIP3   OH227463   7.923   7.327   3.649
 9169TIP3    H127464   8.016   7.323   3.670
 9169TIP3    H227465   7.915   7.403   3.591
 9170TIP3   OH227466   0.753   7.202   2.268
 9170TIP3    H127467   0.662   7.196   2.296
 9170TIP3    H227468   0.771   7.117   2.228
 9171TIP3   OH227469   7.582   5.857   6.198
 9171TIP3    H127470   7.509   5.878   6.256
 9171TIP3    H227471   7.552   5.780   6.149
 9172TIP3   OH227472   2.995   6.253   3.412
 9172TIP3    H127473   2.997   6.348   3.404
 9172TIP3    H227474   2.983   6.221   3.323
 9173TIP3   OH227475   0.781   1.235   0.168
 9173TIP3    H127476   0.847   1.264   0.105
 9173TIP3    H227477   0.776   1.306   0.232
 9174TIP3   OH227478   2.843   1.732   1.657
 9174TIP3    H127479   2.934   1.751   1.679
 9174TIP3    H227480   2.793   1.755   1.736
 9175TIP3   OH227481   5.982   0.356   6.062
 9175TIP3    H127482   5.947   0.325   6.145
 9175TIP3    H227483   5.991   0.451   6.074
 9176TIP3   OH227484   7.849   3.892   3.834
 9176TIP3    H127485   7.813   3.918   3.749
 9176TIP3    H227486   7.776   3.901   3.895
 9177TIP3   OH227487   3.837   0.393   0.934
 9177TIP3    H127488   3.831   0.458   0.864
 9177TIP3    H227489   3.817   0.310   0.891
 9178TIP3   OH227490   4.153   0.510   2.159
 9178TIP3    H127491   4.248   0.498   2.157
 9178TIP3    H227492   4.132   0.522   2.251
 9179TIP3   OH227493   3.247   0.554   1.754
 9179TIP3    H127494   3.324   0.587   1.801
 9179TIP3    H227495   3.282   0.485   1.697
 9180TIP3   OH227496   4.184   5.839   6.622
 9180TIP3    H127497   4.226   5.920   6.652
 9180TIP3    H227498   4.224   5.821   6.537
 9181TIP3   OH227499   5.497   3.278   6.823
 9181TIP3    H127500   5.457   3.361   6.798
 9181TIP3    H227501   5.465   3.216   6.758
 9182TIP3   OH227502   5.164   6.193   4.797
 9182TIP3    H127503   5.072   6.170   4.784
 9182TIP3    H227504   5.167   6.288   4.787
 9183TIP3   OH227505   1.310   2.026   2.911
 9183TIP3    H127506   1.248   1.958   2.939
 9183TIP3    H227507   1.282   2.049   2.822
 9184TIP3   OH227508   2.342   6.293   5.642
 9184TIP3    H127509   2.287   6.238   5.698
 9184TIP3    H227510   2.324   6.264   5.553
 9185TIP3   OH227511   2.753   4.830   5.704
 9185TIP3    H127512   2.690   4.770   5.666
 9185TIP3    H227513   2.712   4.860   5.785
 9186TIP3   OH227514   1.939   5.135   4.067
 9186TIP3    H127515   2.030   5.118   4.090
 9186TIP3    H227516   1.929   5.230   4.074
 9187TIP3   OH227517   3.644   0.556   1.193
 9187TIP3    H127518   3.593   0.478   1.172
 9187TIP3    H227519   3.735   0.527   1.190
 9188TIP3   OH227520   7.610   4.595   6.139
 9188TIP3    H127521   7.540   4.561   6.194
 9188TIP3    H227522   7.588   4.563   6.051
 9189TIP3   OH227523   6.134   7.548   3.838
 9189TIP3    H127524   6.201   7.536   3.771
 9189TIP3    H227525   6.100   7.636   3.823
 9190TIP3   OH227526   3.210   3.485   1.205
 9190TIP3    H127527   3.142   3.487   1.273
 9190TIP3    H227528   3.243   3.396   1.207
 9191TIP3   OH227529   6.584   1.028   1.705
 9191TIP3    H127530   6.564   0.952   1.759
 9191TIP3    H227531   6.658   1.001   1.651
 9192TIP3   OH227532   1.342   0.360   0.708
 9192TIP3    H127533   1.383   0.277   0.733
 9192TIP3    H227534   1.415   0.422   0.702
 9193TIP3   OH227535   5.423   6.787   2.314
 9193TIP3    H127536   5.438   6.850   2.244
 9193TIP3    H227537   5.355   6.827   2.368
 9194TIP3   OH227538   5.788   6.237   2.866
 9194TIP3    H127539   5.764   6.145   2.878
 9194TIP3    H227540   5.872   6.246   2.912
 9195TIP3   OH227541   2.342   0.772   2.975
 9195TIP3    H127542   2.421   0.733   3.013
 9195TIP3    H227543   2.323   0.718   2.898
 9196TIP3   OH227544   2.529   4.445   4.061
 9196TIP3    H127545   2.587   4.426   3.988
 9196TIP3    H227546   2.463   4.505   4.025
 9197TIP3   OH227547   3.023   7.639   6.358
 9197TIP3    H127548   3.015   7.670   6.449
 9197TIP3    H227549   2.978   7.555   6.357
 9198TIP3   OH227550   6.411   3.769   0.671
 9198TIP3    H127551   6.388   3.708   0.602
 9198TIP3    H227552   6.388   3.855   0.636
 9199TIP3   OH227553   5.525   3.507   4.956
 9199TIP3    H127554   5.482   3.576   4.906
 9199TIP3    H227555   5.454   3.465   5.005
 9200TIP3   OH227556   3.523   2.599   2.546
 9200TIP3    H127557   3.520   2.684   2.504
 9200TIP3    H227558   3.441   2.556   2.520
 9201TIP3   OH227559   7.744   0.933   5.227
 9201TIP3    H127560   7.806   0.860   5.220
 9201TIP3    H227561   7.782   1.002   5.171
 9202TIP3   OH227562   7.761   7.201   0.812
 9202TIP3    H127563   7.790   7.290   0.794
 9202TIP3    H227564   7.764   7.193   0.907
 9203TIP3   OH227565   4.347   1.521   3.720
 9203TIP3    H127566   4.417   1.459   3.702
 9203TIP3    H227567   4.272   1.466   3.745
 9204TIP3   OH227568   7.594   6.229   5.235
 9204TIP3    H127569   7.602   6.230   5.330
 9204TIP3    H227570   7.655   6.161   5.206
 9205TIP3   OH227571   0.562   2.392   3.560
 9205TIP3    H127572   0.483   2.404   3.507
 9205TIP3    H227573   0.537   2.326   3.625
 9206TIP3   OH227574   5.585   2.439   3.973
 9206TIP3    H127575   5.551   2.394   4.050
 9206TIP3    H227576   5.545   2.393   3.899
 9207TIP3   OH227577   0.938   3.672   3.527
 9207TIP3    H127578   0.994   3.711   3.594
 9207TIP3    H227579   0.989   3.598   3.493
 9208TIP3   OH227580   5.170   1.707   0.057
 9208TIP3    H127581   5.248   1.731   0.108
 9208TIP3    H227582   5.198   1.632   0.004
 9209TIP3   OH227583   7.511   6.696   6.184
 9209TIP3    H127584   7.574   6.759   6.150
 9209TIP3    H227585   7.437   6.701   6.124
 9210TIP3   OH227586   3.589   7.405   0.764
 9210TIP3    H127587   3.579   7.496   0.791
 9210TIP3    H227588   3.574   7.354   0.844
 9211TIP3   OH227589   0.726   5.124   0.637
 9211TIP3    H127590   0.734   5.072   0.717
 9211TIP3    H227591   0.814   5.126   0.600
 9212TIP3   OH227592   4.116   7.190   3.490
 9212TIP3    H127593   4.154   7.182   3.577
 9212TIP3    H227594   4.024   7.163   3.501
 9213TIP3   OH227595   6.168   2.991   0.599
 9213TIP3    H127596   6.203   3.074   0.567
 9213TIP3    H227597   6.075   2.994   0.576
 9214TIP3   OH227598   5.973   5.767   0.649
 9214TIP3    H127599   5.985   5.862   0.650
 9214TIP3    H227600   5.989   5.740   0.740
 9215TIP3   OH227601   2.533   1.243   4.784
 9215TIP3    H127602   2.511   1.150   4.782
 9215TIP3    H227603   2.487   1.278   4.860
 9216TIP3   OH227604   4.648   5.767   3.792
 9216TIP3    H127605   4.554   5.762   3.807
 9216TIP3    H227606   4.680   5.823   3.863
 9217TIP3   OH227607   8.239   1.096   4.389
 9217TIP3    H127608   8.312   1.087   4.327
 9217TIP3    H227609   8.280   1.126   4.470
 9218TIP3   OH227610   3.026   7.672   5.106
 9218TIP3    H127611   3.029   7.658   5.011
 9218TIP3    H227612   3.041   7.585   5.144
 9219TIP3   OH227613   7.133   5.357   4.240
 9219TIP3    H127614   7.051   5.398   4.268
 9219TIP3    H227615   7.194   5.376   4.312
 9220TIP3   OH227616   4.280   1.191   6.653
 9220TIP3    H127617   4.317   1.271   6.616
 9220TIP3    H227618   4.287   1.126   6.583
 9221TIP3   OH227619   4.304   0.923   4.802
 9221TIP3    H127620   4.390   0.883   4.820
 9221TIP3    H227621   4.325   1.011   4.771
 9222TIP3   OH227622   4.858   1.094   1.010
 9222TIP3    H127623   4.895   1.043   0.937
 9222TIP3    H227624   4.933   1.116   1.065
 9223TIP3   OH227625   6.214   6.939   5.255
 9223TIP3    H127626   6.296   6.893   5.237
 9223TIP3    H227627   6.235   7.031   5.238
 9224TIP3   OH227628   4.924   3.249   5.542
 9224TIP3    H127629   4.861   3.204   5.485
 9224TIP3    H227630   4.928   3.194   5.620
 9225TIP3   OH227631   5.941   1.805   1.533
 9225TIP3    H127632   5.864   1.791   1.479
 9225TIP3    H227633   5.911   1.788   1.623
 9226TIP3   OH227634   1.151   2.711   1.721
 9226TIP3    H127635   1.244   2.716   1.743
 9226TIP3    H227636   1.125   2.802   1.705
 9227TIP3   OH227637   4.848   2.670   1.137
 9227TIP3    H127638   4.762   2.636   1.163
 9227TIP3    H227639   4.868   2.737   1.203
 9228TIP3   OH227640   1.672   4.571   5.296
 9228TIP3    H127641   1.608   4.627   5.252
 9228TIP3    H227642   1.690   4.501   5.233
 9229TIP3   OH227643   1.961   4.193   0.812
 9229TIP3    H127644   1.907   4.253   0.863
 9229TIP3    H227645   1.901   4.152   0.750
 9230TIP3   OH227646   3.171   3.553   4.179
 9230TIP3    H127647   3.091   3.595   4.211
 9230TIP3    H227648   3.142   3.469   4.144
 9231TIP3   OH227649   4.903   3.837   6.196
 9231TIP3    H127650   4.818   3.835   6.152
 9231TIP3    H227651   4.894   3.776   6.270
 9232TIP3   OH227652   3.616   1.471   6.181
 9232TIP3    H127653   3.606   1.509   6.268
 9232TIP3    H227654   3.614   1.376   6.196
 9233TIP3   OH227655   2.146   3.097   3.735
 9233TIP3    H127656   2.053   3.076   3.743
 9233TIP3    H227657   2.190   3.030   3.787
 9234TIP3   OH227658   2.530   0.728   5.433
 9234TIP3    H127659   2.441   0.695   5.436
 9234TIP3    H227660   2.521   0.823   5.430
 9235TIP3   OH227661   5.819   2.824   4.161
 9235TIP3    H127662   5.767   2.900   4.187
 9235TIP3    H227663   5.763   2.775   4.101
 9236TIP3   OH227664   2.483   7.721   3.378
 9236TIP3    H127665   2.391   7.722   3.354
 9236TIP3    H227666   2.495   7.639   3.425
 9237TIP3   OH227667   2.591   3.657   1.615
 9237TIP3    H127668   2.649   3.699   1.679
 9237TIP3    H227669   2.517   3.626   1.667
 9238TIP3   OH227670   5.438   0.878   5.285
 9238TIP3    H127671   5.402   0.920   5.364
 9238TIP3    H227672   5.437   0.785   5.305
 9239TIP3   OH227673   7.922   5.844   2.381
 9239TIP3    H127674   7.959   5.931   2.370
 9239TIP3    H227675   7.947   5.817   2.470
 9240TIP3   OH227676   1.592   6.998   0.591
 9240TIP3    H127677   1.542   7.068   0.550
 9240TIP3    H227678   1.683   7.028   0.589
 9241TIP3   OH227679   5.043   3.756   3.663
 9241TIP3    H127680   5.121   3.739   3.716
 9241TIP3    H227681   5.000   3.671   3.656
 9242TIP3   OH227682   6.489   1.952   5.261
 9242TIP3    H127683   6.572   1.950   5.213
 9242TIP3    H227684   6.487   1.869   5.308
 9243TIP3   OH227685   5.053   4.926   2.732
 9243TIP3    H127686   5.099   4.953   2.811
 9243TIP3    H227687   5.033   5.008   2.687
 9244TIP3   OH227688   5.339   0.047   4.929
 9244TIP3    H127689   5.323   0.085   5.015
 9244TIP3    H227690   5.410  -0.015   4.943
 9245TIP3   OH227691   0.509   0.806   5.073
 9245TIP3    H127692   0.442   0.766   5.017
 9245TIP3    H227693   0.495   0.765   5.159
 9246TIP3   OH227694   1.785   4.923   5.220
 9246TIP3    H127695   1.705   4.974   5.235
 9246TIP3    H227696   1.856   4.985   5.238
 9247TIP3   OH227697   2.831   4.064   0.852
 9247TIP3    H127698   2.866   3.985   0.893
 9247TIP3    H227699   2.750   4.083   0.900
 9248TIP3   OH227700   3.307   2.914   5.485
 9248TIP3    H127701   3.308   2.820   5.469
 9248TIP3    H227702   3.288   2.953   5.399
 9249TIP3   OH227703   3.462   6.258   0.398
 9249TIP3    H127704   3.465   6.163   0.385
 9249TIP3    H227705   3.489   6.295   0.314
 9250TIP3   OH227706   2.614   1.005   0.320
 9250TIP3    H127707   2.537   1.025   0.372
 9250TIP3    H227708   2.615   0.909   0.314
 9251TIP3   OH227709   7.796   7.139   1.197
 9251TIP3    H127710   7.808   7.168   1.287
 9251TIP3    H227711   7.781   7.219   1.147
 9252TIP3   OH227712   7.217   3.777   0.827
 9252TIP3    H127713   7.274   3.702   0.809
 9252TIP3    H227714   7.154   3.776   0.755
 9253TIP3   OH227715   0.529   2.043   3.585
 9253TIP3    H127716   0.589   1.992   3.530
 9253TIP3    H227717   0.444   2.000   3.574
 9254TIP3   OH227718   3.755   1.135   6.444
 9254TIP3    H127719   3.815   1.196   6.402
 9254TIP3    H227720   3.683   1.189   6.477
 9255TIP3   OH227721   8.028   2.757   4.451
 9255TIP3    H127722   7.981   2.779   4.370
 9255TIP3    H227723   8.017   2.662   4.460
 9256TIP3   OH227724   5.291   7.312   0.076
 9256TIP3    H127725   5.385   7.327   0.069
 9256TIP3    H227726   5.273   7.310   0.170
 9257TIP3   OH227727   1.226   1.297   5.237
 9257TIP3    H127728   1.207   1.256   5.321
 9257TIP3    H227729   1.202   1.389   5.248
 9258TIP3   OH227730   4.657   6.892   2.042
 9258TIP3    H127731   4.718   6.853   1.979
 9258TIP3    H227732   4.584   6.831   2.046
 9259TIP3   OH227733   1.878   3.143   3.789
 9259TIP3    H127734   1.840   3.189   3.864
 9259TIP3    H227735   1.875   3.207   3.718
 9260TIP3   OH227736   4.374   1.727   6.773
 9260TIP3    H127737   4.326   1.781   6.836
 9260TIP3    H227738   4.464   1.726   6.806
 9261TIP3   OH227739   4.058   1.427   0.488
 9261TIP3    H127740   3.974   1.467   0.508
 9261TIP3    H227741   4.122   1.495   0.509
 9262TIP3   OH227742   5.600   2.278   1.874
 9262TIP3    H127743   5.622   2.353   1.819
 9262TIP3    H227744   5.540   2.226   1.820
 9263TIP3   OH227745   7.426   5.458   6.379
 9263TIP3    H127746   7.456   5.390   6.319
 9263TIP3    H227747   7.414   5.412   6.462
 9264TIP3   OH227748   4.788   4.433   6.461
 9264TIP3    H127749   4.840   4.379   6.520
 9264TIP3    H227750   4.736   4.489   6.518
 9265TIP3   OH227751   0.235   0.303   1.949
 9265TIP3    H127752   0.264   0.394   1.956
 9265TIP3    H227753   0.274   0.259   2.024
 9266TIP3   OH227754   5.243   1.688   0.963
 9266TIP3    H127755   5.217   1.599   0.985
 9266TIP3    H227756   5.255   1.688   0.868
 9267TIP3   OH227757   5.912   3.894   3.753
 9267TIP3    H127758   5.874   3.926   3.671
 9267TIP3    H227759   5.987   3.842   3.725
 9268TIP3   OH227760   1.819   0.864   3.056
 9268TIP3    H127761   1.908   0.846   3.026
 9268TIP3    H227762   1.826   0.945   3.106
 9269TIP3   OH227763   7.295   3.823   3.420
 9269TIP3    H127764   7.291   3.841   3.513
 9269TIP3    H227765   7.326   3.733   3.414
 9270TIP3   OH227766   3.473   7.120   0.100
 9270TIP3    H127767   3.470   7.213   0.079
 9270TIP3    H227768   3.434   7.077   0.024
 9271TIP3   OH227769   6.759   4.281   5.160
 9271TIP3    H127770   6.677   4.234   5.145
 9271TIP3    H227771   6.766   4.340   5.085
 9272TIP3   OH227772   4.360   6.149   6.389
 9272TIP3    H127773   4.455   6.142   6.375
 9272TIP3    H227774   4.330   6.212   6.323
 9273TIP3   OH227775   7.166   5.849   4.505
 9273TIP3    H127776   7.218   5.908   4.451
 9273TIP3    H227777   7.149   5.898   4.585
 9274TIP3   OH227778   4.604   1.312   0.142
 9274TIP3    H127779   4.625   1.219   0.130
 9274TIP3    H227780   4.687   1.357   0.126
 9275TIP3   OH227781   0.967   2.817   3.008
 9275TIP3    H127782   1.000   2.811   3.097
 9275TIP3    H227783   1.007   2.897   2.973
 9276TIP3   OH227784   0.278   5.992   3.418
 9276TIP3    H127785   0.311   6.047   3.489
 9276TIP3    H227786   0.322   6.024   3.340
 9277TIP3   OH227787   1.914   1.278   5.784
 9277TIP3    H127788   1.957   1.255   5.701
 9277TIP3    H227789   1.887   1.369   5.773
 9278TIP3   OH227790   0.642   4.798   1.722
 9278TIP3    H127791   0.702   4.841   1.782
 9278TIP3    H227792   0.667   4.829   1.635
 9279TIP3   OH227793   0.855   5.876   5.244
 9279TIP3    H127794   0.941   5.846   5.217
 9279TIP3    H227795   0.800   5.798   5.243
 9280TIP3   OH227796   8.126   1.791   0.677
 9280TIP3    H127797   8.159   1.855   0.614
 9280TIP3    H227798   8.119   1.709   0.627
 9281TIP3   OH227799   2.781   2.560   4.988
 9281TIP3    H127800   2.687   2.559   5.000
 9281TIP3    H227801   2.793   2.548   4.894
 9282TIP3   OH227802   3.101   5.196   0.066
 9282TIP3    H127803   3.109   5.161   0.155
 9282TIP3    H227804   3.092   5.291   0.079
 9283TIP3   OH227805   2.594   5.829   6.253
 9283TIP3    H127806   2.554   5.886   6.187
 9283TIP3    H227807   2.563   5.863   6.337
 9284TIP3   OH227808   2.595   1.528   0.116
 9284TIP3    H127809   2.674   1.479   0.092
 9284TIP3    H227810   2.568   1.571   0.034
 9285TIP3   OH227811   3.817   7.604   3.029
 9285TIP3    H127812   3.899   7.573   3.068
 9285TIP3    H227813   3.773   7.649   3.100
 9286TIP3   OH227814   0.596   7.864   5.385
 9286TIP3    H127815   0.508   7.897   5.367
 9286TIP3    H227816   0.611   7.886   5.478
 9287TIP3   OH227817   8.206   7.088   2.699
 9287TIP3    H127818   8.256   7.163   2.667
 9287TIP3    H227819   8.127   7.087   2.645
 9288TIP3   OH227820   1.095   6.064   6.261
 9288TIP3    H127821   1.031   5.994   6.248
 9288TIP3    H227822   1.103   6.105   6.175
 9289TIP3   OH227823   6.473   6.633   0.970
 9289TIP3    H127824   6.544   6.661   1.028
 9289TIP3    H227825   6.393   6.652   1.019
 9290TIP3   OH227826   3.734   3.071   5.963
 9290TIP3    H127827   3.692   3.152   5.936
 9290TIP3    H227828   3.779   3.093   6.044
 9291TIP3   OH227829   3.479   4.410   2.389
 9291TIP3    H127830   3.556   4.438   2.439
 9291TIP3    H227831   3.433   4.350   2.448
 9292TIP3   OH227832   4.017   7.293   4.022
 9292TIP3    H127833   3.974   7.375   4.045
 9292TIP3    H227834   4.098   7.320   3.979
 9293TIP3   OH227835   3.117   3.862   2.766
 9293TIP3    H127836   3.046   3.908   2.721
 9293TIP3    H227837   3.082   3.775   2.784
 9294TIP3   OH227838   5.699   6.145   5.840
 9294TIP3    H127839   5.677   6.066   5.790
 9294TIP3    H227840   5.622   6.202   5.830
 9295TIP3   OH227841   6.484   7.351   0.766
 9295TIP3    H127842   6.539   7.297   0.823
 9295TIP3    H227843   6.474   7.300   0.686
 9296TIP3   OH227844   3.552   4.488   0.543
 9296TIP3    H127845   3.513   4.452   0.463
 9296TIP3    H227846   3.646   4.472   0.533
 9297TIP3   OH227847   4.162   6.349   3.442
 9297TIP3    H127848   4.105   6.363   3.366
 9297TIP3    H227849   4.134   6.264   3.478
 9298TIP3   OH227850   0.836   0.904   5.594
 9298TIP3    H127851   0.774   0.946   5.535
 9298TIP3    H227852   0.912   0.961   5.594
 9299TIP3   OH227853   2.813   3.301   3.507
 9299TIP3    H127854   2.881   3.358   3.544
 9299TIP3    H227855   2.794   3.339   3.422
 9300TIP3   OH227856   3.472   6.577   5.550
 9300TIP3    H127857   3.530   6.650   5.528
 9300TIP3    H227858   3.463   6.581   5.645
 9301TIP3   OH227859   3.360   1.723   1.263
 9301TIP3    H127860   3.340   1.721   1.357
 9301TIP3    H227861   3.414   1.646   1.248
 9302TIP3   OH227862   2.927   2.079   6.071
 9302TIP3    H127863   2.952   2.142   6.139
 9302TIP3    H227864   3.004   2.072   6.015
 9303TIP3   OH227865   6.352   1.917   0.802
 9303TIP3    H127866   6.370   1.931   0.894
 9303TIP3    H227867   6.422   1.964   0.756
 9304TIP3   OH227868   1.029   0.691   5.454
 9304TIP3    H127869   1.106   0.743   5.432
 9304TIP3    H227870   1.020   0.701   5.549
 9305TIP3   OH227871   0.310   3.545   1.725
 9305TIP3    H127872   0.246   3.578   1.788
 9305TIP3    H227873   0.265   3.549   1.640
 9306TIP3   OH227874   1.676   4.067   2.453
 9306TIP3    H127875   1.748   4.017   2.491
 9306TIP3    H227876   1.714   4.112   2.378
 9307TIP3   OH227877   6.847   1.748   6.501
 9307TIP3    H127878   6.800   1.681   6.549
 9307TIP3    H227879   6.779   1.806   6.467
 9308TIP3   OH227880   4.015   2.538   6.106
 9308TIP3    H127881   4.105   2.570   6.117
 9308TIP3    H227882   3.978   2.592   6.036
 9309TIP3   OH227883   0.090   6.479   2.747
 9309TIP3    H127884   0.176   6.465   2.786
 9309TIP3    H227885   0.103   6.462   2.653
 9310TIP3   OH227886   5.092   6.452   1.708
 9310TIP3    H127887   5.148   6.526   1.685
 9310TIP3    H227888   5.005   6.490   1.719
 9311TIP3   OH227889   3.002   3.684   1.447
 9311TIP3    H127890   3.019   3.598   1.484
 9311TIP3    H227891   2.912   3.679   1.413
 9312TIP3   OH227892   0.089   1.280   2.754
 9312TIP3    H127893   0.109   1.358   2.702
 9312TIP3    H227894  -0.007   1.273   2.749
 9313TIP3   OH227895   1.486   6.538   1.794
 9313TIP3    H127896   1.554   6.583   1.744
 9313TIP3    H227897   1.531   6.502   1.870
 9314TIP3   OH227898   7.682   5.539   4.260
 9314TIP3    H127899   7.639   5.549   4.345
 9314TIP3    H227900   7.650   5.455   4.227
 9315TIP3   OH227901   4.705   1.487   6.592
 9315TIP3    H127902   4.768   1.466   6.661
 9315TIP3    H227903   4.699   1.583   6.593
 9316TIP3   OH227904   5.765   7.337   3.796
 9316TIP3    H127905   5.827   7.309   3.729
 9316TIP3    H227906   5.699   7.267   3.797
 9317TIP3   OH227907   1.878   1.220   2.450
 9317TIP3    H127908   1.883   1.278   2.374
 9317TIP3    H227909   1.928   1.264   2.518
 9318TIP3   OH227910   7.466   2.867   6.740
 9318TIP3    H127911   7.531   2.824   6.795
 9318TIP3    H227912   7.518   2.914   6.674
 9319TIP3   OH227913   0.362   2.914   0.397
 9319TIP3    H127914   0.343   2.956   0.480
 9319TIP3    H227915   0.277   2.899   0.356
 9320TIP3   OH227916   5.156   6.568   0.192
 9320TIP3    H127917   5.155   6.612   0.107
 9320TIP3    H227918   5.074   6.593   0.234
 9321TIP3   OH227919   2.459   2.144   0.012
 9321TIP3    H127920   2.428   2.137   0.103
 9321TIP3    H227921   2.449   2.056  -0.023
 9322TIP3   OH227922   1.219   3.422   1.083
 9322TIP3    H127923   1.126   3.438   1.100
 9322TIP3    H227924   1.264   3.493   1.128
 9323TIP3   OH227925   3.606   4.600   6.623
 9323TIP3    H127926   3.649   4.578   6.705
 9323TIP3    H227927   3.635   4.533   6.561
 9324TIP3   OH227928   1.954   4.579   5.853
 9324TIP3    H127929   1.914   4.537   5.929
 9324TIP3    H227930   1.892   4.565   5.782
 9325TIP3   OH227931   5.858   1.566   3.507
 9325TIP3    H127932   5.799   1.498   3.473
 9325TIP3    H227933   5.855   1.555   3.602
 9326TIP3   OH227934   2.719   6.479   0.447
 9326TIP3    H127935   2.701   6.512   0.536
 9326TIP3    H227936   2.815   6.475   0.442
 9327TIP3   OH227937   4.315   6.054   3.929
 9327TIP3    H127938   4.325   5.965   3.896
 9327TIP3    H227939   4.365   6.055   4.010
 9328TIP3   OH227940   5.472   2.790   4.327
 9328TIP3    H127941   5.474   2.832   4.241
 9328TIP3    H227942   5.391   2.739   4.327
 9329TIP3   OH227943   6.928   3.860   2.010
 9329TIP3    H127944   6.870   3.899   2.076
 9329TIP3    H227945   6.967   3.935   1.966
 9330TIP3   OH227946   3.083   5.607   0.385
 9330TIP3    H127947   3.167   5.612   0.429
 9330TIP3    H227948   3.047   5.521   0.410
 9331TIP3   OH227949   5.261   2.324   5.485
 9331TIP3    H127950   5.345   2.369   5.494
 9331TIP3    H227951   5.285   2.236   5.457
 9332TIP3   OH227952   4.546   6.816   6.533
 9332TIP3    H127953   4.614   6.787   6.594
 9332TIP3    H227954   4.467   6.767   6.560
 9333TIP3   OH227955   0.170   2.886   5.039
 9333TIP3    H127956   0.130   2.921   5.119
 9333TIP3    H227957   0.117   2.922   4.968
 9334TIP3   OH227958   0.700   4.029   4.882
 9334TIP3    H127959   0.683   4.119   4.907
 9334TIP3    H227960   0.792   4.014   4.902
 9335TIP3   OH227961   1.286   3.718   4.488
 9335TIP3    H127962   1.353   3.651   4.495
 9335TIP3    H227963   1.285   3.761   4.574
 9336TIP3   OH227964   2.151   1.268   3.515
 9336TIP3    H127965   2.108   1.183   3.524
 9336TIP3    H227966   2.152   1.304   3.603
 9337TIP3   OH227967   3.142   4.213   4.096
 9337TIP3    H127968   3.100   4.298   4.110
 9337TIP3    H227969   3.084   4.151   4.140
 9338TIP3   OH227970   4.673   7.632   5.926
 9338TIP3    H127971   4.747   7.572   5.919
 9338TIP3    H227972   4.702   7.698   5.989
 9339TIP3   OH227973   3.895   1.328   6.323
 9339TIP3    H127974   3.944   1.401   6.363
 9339TIP3    H227975   3.876   1.358   6.234
 9340TIP3   OH227976   1.247   3.727   6.500
 9340TIP3    H127977   1.248   3.745   6.406
 9340TIP3    H227978   1.316   3.784   6.536
 9341TIP3   OH227979   5.832   5.113   5.209
 9341TIP3    H127980   5.800   5.037   5.257
 9341TIP3    H227981   5.826   5.185   5.271
 9342TIP3   OH227982   0.756   1.295   2.937
 9342TIP3    H127983   0.787   1.212   2.974
 9342TIP3    H227984   0.661   1.292   2.947
 9343TIP3   OH227985   4.295   7.221   2.787
 9343TIP3    H127986   4.247   7.139   2.774
 9343TIP3    H227987   4.302   7.230   2.882
 9344TIP3   OH227988   1.794   1.411   4.836
 9344TIP3    H127989   1.702   1.426   4.814
 9344TIP3    H227990   1.842   1.449   4.763
 9345TIP3   OH227991   4.467   3.454   3.668
 9345TIP3    H127992   4.529   3.405   3.721
 9345TIP3    H227993   4.395   3.393   3.652
 9346TIP3   OH227994   7.582   4.613   1.292
 9346TIP3    H127995   7.520   4.590   1.361
 9346TIP3    H227996   7.666   4.619   1.337
 9347TIP3   OH227997   4.011   2.478   0.883
 9347TIP3    H127998   3.940   2.518   0.833
 9347TIP3    H227999   4.073   2.549   0.898
 9348TIP3   OH228000   5.898   2.165   2.114
 9348TIP3    H128001   5.879   2.089   2.059
 9348TIP3    H228002   5.989   2.152   2.141
 9349TIP3   OH228003   3.731   2.091   4.646
 9349TIP3    H128004   3.754   2.179   4.676
 9349TIP3    H228005   3.737   2.096   4.551
 9350TIP3   OH228006   6.319   4.621   1.378
 9350TIP3    H128007   6.332   4.622   1.283
 9350TIP3    H228008   6.392   4.569   1.412
 9351TIP3   OH228009   7.155   7.356   3.386
 9351TIP3    H128010   7.168   7.271   3.344
 9351TIP3    H228011   7.062   7.358   3.408
 9352TIP3   OH228012   7.740   6.902   3.045
 9352TIP3    H128013   7.786   6.818   3.057
 9352TIP3    H228014   7.794   6.950   2.982
 9353TIP3   OH228015   0.999   1.836   4.761
 9353TIP3    H128016   0.976   1.749   4.794
 9353TIP3    H228017   1.094   1.832   4.749
 9354TIP3   OH228018   0.588   3.648   3.811
 9354TIP3    H128019   0.538   3.643   3.729
 9354TIP3    H228020   0.536   3.599   3.874
 9355TIP3   OH228021   3.262   3.003   5.190
 9355TIP3    H128022   3.273   2.981   5.098
 9355TIP3    H228023   3.171   3.033   5.197
 9356TIP3   OH228024   3.661   3.286   4.875
 9356TIP3    H128025   3.722   3.213   4.863
 9356TIP3    H228026   3.709   3.362   4.841
 9357TIP3   OH228027   1.956   1.090   4.321
 9357TIP3    H128028   2.032   1.054   4.367
 9357TIP3    H228029   1.967   1.185   4.328
 9358TIP3   OH228030   3.802   5.578   4.986
 9358TIP3    H128031   3.856   5.530   5.050
 9358TIP3    H228032   3.849   5.567   4.903
 9359TIP3   OH228033   1.676   7.506   5.736
 9359TIP3    H128034   1.676   7.421   5.780
 9359TIP3    H228035   1.664   7.485   5.644
 9360TIP3   OH228036   1.784   4.348   6.655
 9360TIP3    H128037   1.773   4.302   6.572
 9360TIP3    H228038   1.858   4.407   6.640
 9361TIP3   OH228039   2.014   7.794   5.534
 9361TIP3    H128040   2.102   7.822   5.510
 9361TIP3    H228041   1.994   7.723   5.472
 9362TIP3   OH228042   5.408   1.800   1.175
 9362TIP3    H128043   5.353   1.792   1.097
 9362TIP3    H228044   5.444   1.712   1.188
 9363TIP3   OH228045   7.652   1.730   0.765
 9363TIP3    H128046   7.661   1.686   0.850
 9363TIP3    H228047   7.721   1.796   0.766
 9364TIP3   OH228048   2.606   1.179   0.746
 9364TIP3    H128049   2.561   1.246   0.797
 9364TIP3    H228050   2.656   1.229   0.681
 9365TIP3   OH228051   4.523   0.576   0.514
 9365TIP3    H128052   4.486   0.565   0.426
 9365TIP3    H228053   4.606   0.528   0.511
 9366TIP3   OH228054   0.754   7.260   3.107
 9366TIP3    H128055   0.811   7.247   3.183
 9366TIP3    H228056   0.765   7.352   3.084
 9367TIP3   OH228057   4.695   4.987   6.606
 9367TIP3    H128058   4.760   5.037   6.556
 9367TIP3    H228059   4.744   4.956   6.683
 9368TIP3   OH228060   6.376   5.755   3.227
 9368TIP3    H128061   6.469   5.748   3.248
 9368TIP3    H228062   6.364   5.696   3.152
 9369TIP3   OH228063   7.609   0.056   2.781
 9369TIP3    H128064   7.529   0.010   2.806
 9369TIP3    H228065   7.611   0.049   2.685
 9370TIP3   OH228066   5.583   1.429   4.060
 9370TIP3    H128067   5.565   1.518   4.030
 9370TIP3    H228068   5.508   1.407   4.116
 9371TIP3   OH228069   3.124   7.490   3.070
 9371TIP3    H128070   3.099   7.582   3.072
 9371TIP3    H228071   3.041   7.443   3.055
 9372TIP3   OH228072   5.301   1.731   2.434
 9372TIP3    H128073   5.364   1.780   2.382
 9372TIP3    H228074   5.259   1.797   2.490
 9373TIP3   OH228075   1.159   2.727   2.299
 9373TIP3    H128076   1.077   2.759   2.338
 9373TIP3    H228077   1.136   2.707   2.209
 9374TIP3   OH228078   3.797   2.595   0.735
 9374TIP3    H128079   3.740   2.604   0.811
 9374TIP3    H228080   3.783   2.676   0.686
 9375TIP3   OH228081   3.329   6.963   6.064
 9375TIP3    H128082   3.240   6.993   6.079
 9375TIP3    H228083   3.330   6.871   6.092
 9376TIP3   OH228084   1.568   7.447   2.784
 9376TIP3    H128085   1.627   7.507   2.738
 9376TIP3    H228086   1.482   7.488   2.778
 9377TIP3   OH228087   1.733   0.434   1.024
 9377TIP3    H128088   1.779   0.393   1.097
 9377TIP3    H228089   1.722   0.364   0.959
 9378TIP3   OH228090   0.971   1.479   3.081
 9378TIP3    H128091   0.946   1.444   3.167
 9378TIP3    H228092   0.901   1.449   3.022
 9379TIP3   OH228093   8.283   4.861   1.510
 9379TIP3    H128094   8.324   4.856   1.596
 9379TIP3    H228095   8.306   4.779   1.466
 9380TIP3   OH228096   2.683   1.980   5.859
 9380TIP3    H128097   2.748   1.909   5.859
 9380TIP3    H228098   2.603   1.939   5.826
 9381TIP3   OH228099   1.412   3.897   4.317
 9381TIP3    H128100   1.372   3.822   4.362
 9381TIP3    H228101   1.340   3.959   4.308
 9382TIP3   OH228102   1.141   3.187   5.175
 9382TIP3    H128103   1.115   3.105   5.134
 9382TIP3    H228104   1.085   3.253   5.135
 9383TIP3   OH228105   3.332   0.026   6.168
 9383TIP3    H128106   3.371   0.086   6.231
 9383TIP3    H228107   3.303  -0.049   6.220
 9384TIP3   OH228108   8.319   2.381   1.340
 9384TIP3    H128109   8.233   2.383   1.299
 9384TIP3    H228110   8.302   2.356   1.431
 9385TIP3   OH228111   4.215   6.376   2.505
 9385TIP3    H128112   4.200   6.453   2.450
 9385TIP3    H228113   4.272   6.407   2.575
 9386TIP3   OH228114   5.223   2.799   1.545
 9386TIP3    H128115   5.303   2.755   1.516
 9386TIP3    H228116   5.250   2.850   1.621
 9387TIP3   OH228117   6.175   1.978   3.302
 9387TIP3    H128118   6.097   1.963   3.356
 9387TIP3    H228119   6.249   1.960   3.361
 9388TIP3   OH228120   3.996   1.049   2.531
 9388TIP3    H128121   4.021   1.078   2.619
 9388TIP3    H228122   4.069   0.994   2.503
 9389TIP3   OH228123   5.870   2.883   5.762
 9389TIP3    H128124   5.918   2.802   5.747
 9389TIP3    H228125   5.872   2.927   5.677
 9390TIP3   OH228126   4.937   7.672   3.521
 9390TIP3    H128127   4.867   7.683   3.586
 9390TIP3    H228128   4.955   7.761   3.491
 9391TIP3   OH228129   2.797   2.954   0.079
 9391TIP3    H128130   2.786   3.042   0.117
 9391TIP3    H228131   2.815   2.970  -0.013
 9392TIP3   OH228132   3.207   0.278   3.338
 9392TIP3    H128133   3.122   0.263   3.298
 9392TIP3    H228134   3.256   0.329   3.273
 9393TIP3   OH228135   5.512   2.745   1.984
 9393TIP3    H128136   5.577   2.675   1.991
 9393TIP3    H228137   5.459   2.736   2.063
 9394TIP3   OH228138   2.496   0.604   4.942
 9394TIP3    H128139   2.481   0.522   4.988
 9394TIP3    H228140   2.534   0.578   4.858
 9395TIP3   OH228141   6.751   0.323   2.361
 9395TIP3    H128142   6.673   0.378   2.364
 9395TIP3    H228143   6.823   0.381   2.383
 9396TIP3   OH228144   0.221   4.496   4.532
 9396TIP3    H128145   0.189   4.511   4.443
 9396TIP3    H228146   0.306   4.539   4.535
 9397TIP3   OH228147   6.631   5.522   3.917
 9397TIP3    H128148   6.605   5.486   4.002
 9397TIP3    H228149   6.548   5.540   3.873
 9398TIP3   OH228150   1.637   4.716   1.270
 9398TIP3    H128151   1.645   4.675   1.184
 9398TIP3    H228152   1.723   4.703   1.311
 9399TIP3   OH228153   0.219   5.027   4.489
 9399TIP3    H128154   0.178   4.945   4.460
 9399TIP3    H228155   0.240   5.011   4.581
 9400TIP3   OH228156   5.392   4.416   5.548
 9400TIP3    H128157   5.478   4.439   5.512
 9400TIP3    H228158   5.335   4.413   5.471
 9401TIP3   OH228159   3.551   4.614   1.508
 9401TIP3    H128160   3.471   4.664   1.523
 9401TIP3    H228161   3.602   4.626   1.588
 9402TIP3   OH228162   2.153   1.085   5.311
 9402TIP3    H128163   2.083   1.141   5.275
 9402TIP3    H228164   2.221   1.085   5.243
 9403TIP3   OH228165   5.167   5.923   2.139
 9403TIP3    H128166   5.108   5.991   2.106
 9403TIP3    H228167   5.109   5.858   2.179
 9404TIP3   OH228168   5.143   7.305   4.848
 9404TIP3    H128169   5.216   7.322   4.789
 9404TIP3    H228170   5.183   7.260   4.923
 9405TIP3   OH228171   1.439   2.927   1.744
 9405TIP3    H128172   1.431   3.015   1.782
 9405TIP3    H228173   1.483   2.942   1.660
 9406TIP3   OH228174   4.143   3.225   1.449
 9406TIP3    H128175   4.163   3.318   1.449
 9406TIP3    H228176   4.184   3.192   1.369
 9407TIP3   OH228177   7.697   0.091   3.894
 9407TIP3    H128178   7.712   0.150   3.820
 9407TIP3    H228179   7.608   0.058   3.882
 9408TIP3   OH228180   0.334   1.718   4.101
 9408TIP3    H128181   0.242   1.713   4.073
 9408TIP3    H228182   0.372   1.635   4.070
 9409TIP3   OH228183   7.951   2.738   3.396
 9409TIP3    H128184   7.917   2.709   3.481
 9409TIP3    H228185   7.900   2.690   3.332
 9410TIP3   OH228186   4.186   4.036   0.896
 9410TIP3    H128187   4.277   4.058   0.874
 9410TIP3    H228188   4.174   3.948   0.860
 9411TIP3   OH228189   2.700   2.121   1.081
 9411TIP3    H128190   2.737   2.093   1.165
 9411TIP3    H228191   2.639   2.051   1.057
 9412TIP3   OH228192   1.628   5.301   2.115
 9412TIP3    H128193   1.566   5.244   2.160
 9412TIP3    H228194   1.630   5.268   2.025
 9413TIP3   OH228195   5.026   6.036   1.280
 9413TIP3    H128196   5.118   6.026   1.305
 9413TIP3    H228197   5.006   5.958   1.229
 9414TIP3   OH228198   0.854   4.441   6.608
 9414TIP3    H128199   0.858   4.439   6.703
 9414TIP3    H228200   0.868   4.349   6.582
 9415TIP3   OH228201   5.152   2.307   0.673
 9415TIP3    H128202   5.147   2.347   0.760
 9415TIP3    H228203   5.151   2.213   0.690
 9416TIP3   OH228204   6.266   1.079   3.831
 9416TIP3    H128205   6.288   1.034   3.749
 9416TIP3    H228206   6.171   1.086   3.830
 9417TIP3   OH228207   0.121   0.632   4.537
 9417TIP3    H128208   0.049   0.666   4.483
 9417TIP3    H228209   0.193   0.694   4.522
 9418TIP3   OH228210   2.402   3.383   0.783
 9418TIP3    H128211   2.393   3.346   0.696
 9418TIP3    H228212   2.465   3.455   0.773
 9419TIP3   OH228213   1.522   5.986   5.551
 9419TIP3    H128214   1.502   6.028   5.468
 9419TIP3    H228215   1.598   5.930   5.531
 9420TIP3   OH228216   6.241   3.285   6.586
 9420TIP3    H128217   6.192   3.204   6.598
 9420TIP3    H228218   6.259   3.315   6.675
 9421TIP3   OH228219   0.580   6.015   0.280
 9421TIP3    H128220   0.554   6.104   0.304
 9421TIP3    H228221   0.518   5.959   0.325
 9422TIP3   OH228222   0.889   5.199   2.232
 9422TIP3    H128223   0.805   5.170   2.196
 9422TIP3    H228224   0.870   5.223   2.322
 9423TIP3   OH228225   4.053   3.077   3.297
 9423TIP3    H128226   3.998   3.025   3.238
 9423TIP3    H228227   4.033   3.168   3.274
 9424TIP3   OH228228   0.440   5.183   3.552
 9424TIP3    H128229   0.522   5.230   3.567
 9424TIP3    H228230   0.396   5.234   3.483
 9425TIP3   OH228231   6.986   6.504   5.513
 9425TIP3    H128232   7.074   6.469   5.527
 9425TIP3    H228233   6.930   6.450   5.569
 9426TIP3   OH228234   2.377   1.621   2.566
 9426TIP3    H128235   2.323   1.667   2.631
 9426TIP3    H228236   2.461   1.608   2.610
 9427TIP3   OH228237   6.491   2.751   3.902
 9427TIP3    H128238   6.441   2.679   3.941
 9427TIP3    H228239   6.518   2.804   3.977
 9428TIP3   OH228240   3.589   2.621   2.051
 9428TIP3    H128241   3.577   2.710   2.085
 9428TIP3    H228242   3.514   2.572   2.084
 9429TIP3   OH228243   5.105   3.756   0.528
 9429TIP3    H128244   5.046   3.680   0.530
 9429TIP3    H228245   5.063   3.817   0.468
 9430TIP3   OH228246   5.653   1.192   6.441
 9430TIP3    H128247   5.672   1.099   6.455
 9430TIP3    H228248   5.725   1.222   6.385
 9431TIP3   OH228249   2.609   7.786   0.960
 9431TIP3    H128250   2.518   7.806   0.983
 9431TIP3    H228251   2.628   7.843   0.885
 9432TIP3   OH228252   1.177   0.758   3.222
 9432TIP3    H128253   1.196   0.842   3.181
 9432TIP3    H228254   1.081   0.751   3.218
 9433TIP3   OH228255   5.019   0.695   3.010
 9433TIP3    H128256   4.941   0.662   2.965
 9433TIP3    H228257   5.068   0.742   2.942
 9434TIP3   OH228258   2.354   5.179   4.327
 9434TIP3    H128259   2.441   5.212   4.349
 9434TIP3    H228260   2.355   5.088   4.359
 9435TIP3   OH228261   4.556   4.742   3.290
 9435TIP3    H128262   4.622   4.683   3.254
 9435TIP3    H228263   4.606   4.817   3.323
 9436TIP3   OH228264   5.191   0.973   6.006
 9436TIP3    H128265   5.220   0.885   6.028
 9436TIP3    H228266   5.107   0.983   6.051
 9437TIP3   OH228267   3.168   1.341   5.903
 9437TIP3    H128268   3.147   1.396   5.827
 9437TIP3    H228269   3.232   1.392   5.953
 9438TIP3   OH228270   5.728   4.363   1.201
 9438TIP3    H128271   5.645   4.352   1.154
 9438TIP3    H228272   5.710   4.429   1.267
 9439TIP3   OH228273   0.296   4.982   1.935
 9439TIP3    H128274   0.348   5.060   1.953
 9439TIP3    H228275   0.222   4.988   1.995
 9440TIP3   OH228276   1.820   4.240   0.012
 9440TIP3    H128277   1.906   4.196   0.011
 9440TIP3    H228278   1.782   4.216   0.096
 9441TIP3   OH228279   1.893   2.829   2.764
 9441TIP3    H128280   1.986   2.834   2.785
 9441TIP3    H228281   1.854   2.782   2.838
 9442TIP3   OH228282   3.850   5.237   3.107
 9442TIP3    H128283   3.805   5.158   3.136
 9442TIP3    H228284   3.837   5.300   3.178
 9443TIP3   OH228285   7.913   3.940   0.181
 9443TIP3    H128286   7.997   3.935   0.225
 9443TIP3    H228287   7.881   3.850   0.178
 9444TIP3   OH228288   1.491   4.401   2.168
 9444TIP3    H128289   1.451   4.318   2.192
 9444TIP3    H228290   1.462   4.417   2.078
 9445TIP3   OH228291   5.333   2.898   1.832
 9445TIP3    H128292   5.308   2.970   1.890
 9445TIP3    H228293   5.372   2.832   1.890
 9446TIP3   OH228294   1.765   2.734   1.964
 9446TIP3    H128295   1.803   2.776   2.042
 9446TIP3    H228296   1.746   2.645   1.993
 9447TIP3   OH228297   5.505   6.110   1.550
 9447TIP3    H128298   5.410   6.121   1.542
 9447TIP3    H228299   5.517   6.044   1.617
 9448TIP3   OH228300   5.594   2.936   6.260
 9448TIP3    H128301   5.512   2.979   6.285
 9448TIP3    H228302   5.661   3.002   6.278
 9449TIP3   OH228303   5.884   7.341   4.344
 9449TIP3    H128304   5.944   7.267   4.350
 9449TIP3    H228305   5.797   7.302   4.347
 9450TIP3   OH228306   5.206   5.891   5.350
 9450TIP3    H128307   5.183   5.799   5.356
 9450TIP3    H228308   5.123   5.938   5.359
 9451TIP3   OH228309   2.307   4.821   3.766
 9451TIP3    H128310   2.221   4.811   3.724
 9451TIP3    H228311   2.292   4.884   3.837
 9452TIP3   OH228312   3.534   0.278   6.028
 9452TIP3    H128313   3.627   0.281   6.051
 9452TIP3    H228314   3.533   0.277   5.932
 9453TIP3   OH228315   1.819   1.946   3.796
 9453TIP3    H128316   1.794   1.865   3.839
 9453TIP3    H228317   1.754   1.958   3.727
 9454TIP3   OH228318   5.609   2.904   2.442
 9454TIP3    H128319   5.543   2.962   2.403
 9454TIP3    H228320   5.666   2.880   2.370
 9455TIP3   OH228321   6.249   0.641   1.805
 9455TIP3    H128322   6.267   0.719   1.753
 9455TIP3    H228323   6.160   0.653   1.838
 9456TIP3   OH228324   2.737   3.214   1.933
 9456TIP3    H128325   2.711   3.296   1.891
 9456TIP3    H228326   2.810   3.238   1.990
 9457TIP3   OH228327   5.148   0.228   3.220
 9457TIP3    H128328   5.244   0.225   3.212
 9457TIP3    H228329   5.128   0.321   3.222
 9458TIP3   OH228330   3.049   0.480   0.087
 9458TIP3    H128331   3.122   0.420   0.070
 9458TIP3    H228332   2.999   0.439   0.157
 9459TIP3   OH228333   2.130   2.051   2.532
 9459TIP3    H128334   2.179   2.111   2.588
 9459TIP3    H228335   2.108   2.103   2.455
 9460TIP3   OH228336   3.450   0.384   1.100
 9460TIP3    H128337   3.395   0.371   1.023
 9460TIP3    H228338   3.391   0.373   1.174
 9461TIP3   OH228339   3.222   4.066   5.689
 9461TIP3    H128340   3.271   3.984   5.701
 9461TIP3    H228341   3.169   4.051   5.611
 9462TIP3   OH228342   1.176   6.071   1.615
 9462TIP3    H128343   1.220   6.098   1.695
 9462TIP3    H228344   1.152   5.979   1.630
 9463TIP3   OH228345   5.070   1.653   3.140
 9463TIP3    H128346   5.049   1.735   3.095
 9463TIP3    H228347   5.154   1.625   3.101
 9464TIP3   OH228348   5.678   0.793   0.372
 9464TIP3    H128349   5.756   0.823   0.325
 9464TIP3    H228350   5.698   0.809   0.464
 9465TIP3   OH228351   3.431   2.240   1.292
 9465TIP3    H128352   3.520   2.224   1.325
 9465TIP3    H228353   3.375   2.186   1.349
 9466TIP3   OH228354   0.210   2.075   6.246
 9466TIP3    H128355   0.144   2.131   6.286
 9466TIP3    H228356   0.287   2.131   6.239
 9467TIP3   OH228357   6.641   3.690   5.723
 9467TIP3    H128358   6.612   3.738   5.646
 9467TIP3    H228359   6.561   3.649   5.757
 9468TIP3   OH228360   7.578   1.233   5.526
 9468TIP3    H128361   7.664   1.265   5.498
 9468TIP3    H228362   7.586   1.138   5.526
 9469TIP3   OH228363   0.253   3.151   6.626
 9469TIP3    H128364   0.280   3.242   6.641
 9469TIP3    H228365   0.217   3.123   6.710
 9470TIP3   OH228366   1.556   3.238   6.229
 9470TIP3    H128367   1.486   3.236   6.295
 9470TIP3    H228368   1.627   3.285   6.273
 9471TIP3   OH228369   7.940   7.466   5.125
 9471TIP3    H128370   7.979   7.497   5.206
 9471TIP3    H228371   7.974   7.377   5.115
 9472TIP3   OH228372   2.147   5.758   1.081
 9472TIP3    H128373   2.057   5.737   1.108
 9472TIP3    H228374   2.167   5.840   1.125
 9473TIP3   OH228375   6.437   4.727   3.885
 9473TIP3    H128376   6.505   4.711   3.820
 9473TIP3    H228377   6.470   4.687   3.965
 9474TIP3   OH228378   0.736   2.111   1.628
 9474TIP3    H128379   0.781   2.064   1.558
 9474TIP3    H228380   0.751   2.203   1.609
 9475TIP3   OH228381   2.334   5.256   3.491
 9475TIP3    H128382   2.263   5.303   3.536
 9475TIP3    H228383   2.291   5.210   3.419
 9476TIP3   OH228384   6.915   2.362   5.999
 9476TIP3    H128385   6.840   2.384   5.944
 9476TIP3    H228386   6.908   2.422   6.073
 9477TIP3   OH228387   5.334   7.564   1.643
 9477TIP3    H128388   5.382   7.634   1.600
 9477TIP3    H228389   5.244   7.597   1.649
 9478TIP3   OH228390   0.450   0.449   5.027
 9478TIP3    H128391   0.508   0.488   5.093
 9478TIP3    H228392   0.501   0.377   4.991
 9479TIP3   OH228393   6.421   1.530   5.375
 9479TIP3    H128394   6.479   1.572   5.312
 9479TIP3    H228395   6.480   1.494   5.441
 9480TIP3   OH228396   5.699   3.583   2.730
 9480TIP3    H128397   5.651   3.656   2.769
 9480TIP3    H228398   5.731   3.618   2.647
 9481TIP3   OH228399   5.898   0.433   1.168
 9481TIP3    H128400   5.966   0.406   1.229
 9481TIP3    H228401   5.892   0.528   1.180
 9482TIP3   OH228402   0.084   7.287   5.997
 9482TIP3    H128403   0.151   7.223   6.021
 9482TIP3    H228404   0.026   7.291   6.073
 9483TIP3   OH228405   7.785   0.325   2.458
 9483TIP3    H128406   7.846   0.289   2.523
 9483TIP3    H228407   7.830   0.314   2.375
 9484TIP3   OH228408   4.877   1.548   1.842
 9484TIP3    H128409   4.799   1.541   1.897
 9484TIP3    H228410   4.949   1.553   1.904
 9485TIP3   OH228411   4.595   1.780   0.636
 9485TIP3    H128412   4.668   1.759   0.578
 9485TIP3    H228413   4.612   1.727   0.715
 9486TIP3   OH228414   1.609   6.546   2.754
 9486TIP3    H128415   1.684   6.590   2.793
 9486TIP3    H228416   1.534   6.599   2.780
 9487TIP3   OH228417   6.514   7.253   6.267
 9487TIP3    H128418   6.554   7.253   6.180
 9487TIP3    H228419   6.580   7.291   6.324
 9488TIP3   OH228420   5.793   1.805   4.932
 9488TIP3    H128421   5.835   1.741   4.875
 9488TIP3    H228422   5.859   1.873   4.943
 9489TIP3   OH228423   0.751   1.274   6.213
 9489TIP3    H128424   0.813   1.243   6.147
 9489TIP3    H228425   0.805   1.317   6.279
 9490TIP3   OH228426   4.306   5.794   4.836
 9490TIP3    H128427   4.226   5.745   4.857
 9490TIP3    H228428   4.301   5.811   4.742
 9491TIP3   OH228429   0.354   4.949   5.289
 9491TIP3    H128430   0.398   4.864   5.285
 9491TIP3    H228431   0.400   5.003   5.224
 9492TIP3   OH228432   6.426   6.629   1.324
 9492TIP3    H128433   6.406   6.535   1.326
 9492TIP3    H228434   6.516   6.634   1.294
 9493TIP3   OH228435   6.939   3.151   5.507
 9493TIP3    H128436   6.903   3.168   5.594
 9493TIP3    H228437   7.017   3.098   5.523
 9494TIP3   OH228438   2.977   4.906   5.875
 9494TIP3    H128439   2.956   4.913   5.968
 9494TIP3    H228440   2.892   4.893   5.832
 9495TIP3   OH228441   1.295   1.520   2.691
 9495TIP3    H128442   1.371   1.462   2.696
 9495TIP3    H228443   1.269   1.532   2.782
 9496TIP3   OH228444   4.864   0.425   2.964
 9496TIP3    H128445   4.769   0.427   2.962
 9496TIP3    H228446   4.890   0.395   2.877
 9497TIP3   OH228447   6.380   6.384   5.413
 9497TIP3    H128448   6.430   6.308   5.385
 9497TIP3    H228449   6.431   6.421   5.486
 9498TIP3   OH228450   5.865   7.293   5.248
 9498TIP3    H128451   5.885   7.201   5.264
 9498TIP3    H228452   5.947   7.339   5.261
 9499TIP3   OH228453   4.284   4.238   6.305
 9499TIP3    H128454   4.378   4.226   6.322
 9499TIP3    H228455   4.262   4.167   6.245
 9500TIP3   OH228456   2.813   0.281   0.276
 9500TIP3    H128457   2.858   0.312   0.354
 9500TIP3    H228458   2.720   0.282   0.300
 9501TIP3   OH228459   1.767   4.803   0.096
 9501TIP3    H128460   1.807   4.859   0.029
 9501TIP3    H228461   1.779   4.714   0.062
 9502TIP3   OH228462   2.237   4.939   5.993
 9502TIP3    H128463   2.206   4.893   5.915
 9502TIP3    H228464   2.290   4.874   6.039
 9503TIP3   OH228465   6.473   3.248   0.294
 9503TIP3    H128466   6.453   3.203   0.211
 9503TIP3    H228467   6.550   3.203   0.327
 9504TIP3   OH228468   4.690   3.583   1.716
 9504TIP3    H128469   4.766   3.628   1.754
 9504TIP3    H228470   4.655   3.531   1.788
 9505TIP3   OH228471   1.625   4.902   1.723
 9505TIP3    H128472   1.579   4.980   1.753
 9505TIP3    H228473   1.710   4.934   1.693
 9506TIP3   OH228474   4.881   7.229   1.133
 9506TIP3    H128475   4.952   7.187   1.181
 9506TIP3    H228476   4.904   7.218   1.041
 9507TIP3   OH228477   6.996   3.405   5.534
 9507TIP3    H128478   6.975   3.313   5.516
 9507TIP3    H228479   6.942   3.428   5.610
 9508TIP3   OH228480   6.608   1.439   4.604
 9508TIP3    H128481   6.624   1.532   4.620
 9508TIP3    H228482   6.550   1.438   4.527
 9509TIP3   OH228483   0.633   1.613   6.286
 9509TIP3    H128484   0.688   1.584   6.213
 9509TIP3    H228485   0.660   1.558   6.360
 9510TIP3   OH228486   1.635   0.354   6.024
 9510TIP3    H128487   1.595   0.271   6.050
 9510TIP3    H228488   1.618   0.362   5.930
 9511TIP3   OH228489   4.971   7.006   2.202
 9511TIP3    H128490   5.015   6.928   2.236
 9511TIP3    H228491   4.994   7.008   2.109
 9512TIP3   OH228492   4.730   0.669   5.136
 9512TIP3    H128493   4.717   0.762   5.120
 9512TIP3    H228494   4.811   0.664   5.186
 9513TIP3   OH228495   6.637   7.511   5.793
 9513TIP3    H128496   6.602   7.590   5.834
 9513TIP3    H228497   6.600   7.512   5.704
 9514TIP3   OH228498   1.873   5.261   1.208
 9514TIP3    H128499   1.869   5.171   1.240
 9514TIP3    H228500   1.840   5.314   1.281
 9515TIP3   OH228501   8.117   0.287   5.217
 9515TIP3    H128502   8.065   0.225   5.269
 9515TIP3    H228503   8.206   0.278   5.251
 9516TIP3   OH228504   4.578   0.414   4.274
 9516TIP3    H128505   4.634   0.336   4.276
 9516TIP3    H228506   4.566   0.432   4.181
 9517TIP3   OH228507   0.916   4.181   6.535
 9517TIP3    H128508   0.909   4.111   6.600
 9517TIP3    H228509   1.008   4.179   6.507
 9518TIP3   OH228510   7.268   1.891   3.092
 9518TIP3    H128511   7.268   1.923   3.182
 9518TIP3    H228512   7.256   1.970   3.038
 9519TIP3   OH228513   2.367   1.879   1.450
 9519TIP3    H128514   2.387   1.793   1.487
 9519TIP3    H228515   2.289   1.907   1.497
 9520TIP3   OH228516   0.342   6.998   4.538
 9520TIP3    H128517   0.260   7.021   4.582
 9520TIP3    H228518   0.385   7.081   4.523
 9521TIP3   OH228519   1.578   3.299   1.356
 9521TIP3    H128520   1.664   3.267   1.330
 9521TIP3    H228521   1.591   3.391   1.378
 9522TIP3   OH228522   1.308   3.792   5.930
 9522TIP3    H128523   1.270   3.845   5.860
 9522TIP3    H228524   1.358   3.725   5.884
 9523TIP3   OH228525   1.220   5.927   2.915
 9523TIP3    H128526   1.227   5.996   2.848
 9523TIP3    H228527   1.293   5.868   2.895
 9524TIP3   OH228528   0.494   5.033   1.701
 9524TIP3    H128529   0.401   5.056   1.698
 9524TIP3    H228530   0.495   4.942   1.730
 9525TIP3   OH228531   2.254   2.692   0.976
 9525TIP3    H128532   2.332   2.652   1.014
 9525TIP3    H228533   2.226   2.755   1.043
 9526TIP3   OH228534   4.666   5.434   5.591
 9526TIP3    H128535   4.577   5.449   5.559
 9526TIP3    H228536   4.692   5.518   5.630
 9527TIP3   OH228537   2.762   6.059   2.879
 9527TIP3    H128538   2.790   6.141   2.919
 9527TIP3    H228539   2.688   6.031   2.933
 9528TIP3   OH228540   6.759   2.000   3.377
 9528TIP3    H128541   6.794   1.911   3.371
 9528TIP3    H228542   6.835   2.057   3.362
 9529TIP3   OH228543   5.356   3.156   6.004
 9529TIP3    H128544   5.300   3.164   5.927
 9529TIP3    H228545   5.300   3.182   6.077
 9530TIP3   OH228546   1.088   7.103   6.581
 9530TIP3    H128547   1.178   7.085   6.609
 9530TIP3    H228548   1.067   7.188   6.618
 9531TIP3   OH228549   7.648   1.501   5.935
 9531TIP3    H128550   7.611   1.562   5.999
 9531TIP3    H228551   7.574   1.477   5.880
 9532TIP3   OH228552   2.478   7.094   1.153
 9532TIP3    H128553   2.566   7.101   1.191
 9532TIP3    H228554   2.427   7.049   1.220
 9533TIP3   OH228555   2.643   2.825   1.373
 9533TIP3    H128556   2.694   2.892   1.329
 9533TIP3    H228557   2.685   2.743   1.348
 9534TIP3   OH228558   6.881   4.543   4.977
 9534TIP3    H128559   6.786   4.546   4.965
 9534TIP3    H228560   6.911   4.632   4.960
 9535TIP3   OH228561   7.307   4.733   5.609
 9535TIP3    H128562   7.374   4.703   5.671
 9535TIP3    H228563   7.289   4.823   5.635
 9536TIP3   OH228564   4.051   4.141   0.021
 9536TIP3    H128565   4.032   4.217  -0.034
 9536TIP3    H228566   3.975   4.134   0.079
 9537TIP3   OH228567   7.587   3.306   5.119
 9537TIP3    H128568   7.587   3.400   5.103
 9537TIP3    H228569   7.512   3.273   5.069
 9538TIP3   OH228570   7.042   0.413   0.383
 9538TIP3    H128571   7.098   0.441   0.455
 9538TIP3    H228572   6.993   0.492   0.358
 9539TIP3   OH228573   7.332   5.108   2.581
 9539TIP3    H128574   7.264   5.054   2.623
 9539TIP3    H228575   7.408   5.050   2.576
 9540TIP3   OH228576   6.677   2.340   4.978
 9540TIP3    H128577   6.755   2.288   4.998
 9540TIP3    H228578   6.612   2.310   5.042
 9541TIP3   OH228579   4.269   0.149   6.160
 9541TIP3    H128580   4.234   0.103   6.237
 9541TIP3    H228581   4.273   0.241   6.187
 9542TIP3   OH228582   4.754   1.577   0.208
 9542TIP3    H128583   4.745   1.651   0.268
 9542TIP3    H228584   4.832   1.531   0.238
 9543TIP3   OH228585   5.597   1.236   5.443
 9543TIP3    H128586   5.513   1.254   5.485
 9543TIP3    H228587   5.574   1.199   5.358
 9544TIP3   OH228588   4.707   6.743   1.062
 9544TIP3    H128589   4.678   6.658   1.028
 9544TIP3    H228590   4.655   6.755   1.142
 9545TIP3   OH228591   0.273   2.720   6.344
 9545TIP3    H128592   0.251   2.659   6.414
 9545TIP3    H228593   0.225   2.800   6.366
 9546TIP3   OH228594   2.486   1.220   5.825
 9546TIP3    H128595   2.550   1.226   5.897
 9546TIP3    H228596   2.508   1.294   5.768
 9547TIP3   OH228597   1.407   1.709   6.787
 9547TIP3    H128598   1.401   1.630   6.734
 9547TIP3    H228599   1.490   1.749   6.761
 9548TIP3   OH228600   3.373   2.915   6.003
 9548TIP3    H128601   3.416   2.840   5.962
 9548TIP3    H228602   3.439   2.953   6.060
 9549TIP3   OH228603   6.242   5.550   4.182
 9549TIP3    H128604   6.272   5.605   4.110
 9549TIP3    H228605   6.284   5.589   4.260
 9550TIP3   OH228606   1.045   1.361   5.014
 9550TIP3    H128607   1.007   1.291   4.962
 9550TIP3    H228608   1.107   1.317   5.072
 9551TIP3   OH228609   2.706   6.252   0.830
 9551TIP3    H128610   2.685   6.174   0.779
 9551TIP3    H228611   2.752   6.219   0.907
 9552TIP3   OH228612   7.986   0.202   4.942
 9552TIP3    H128613   8.009   0.239   5.027
 9552TIP3    H228614   8.032   0.257   4.879
 9553TIP3   OH228615   2.419   3.312   1.709
 9553TIP3    H128616   2.369   3.377   1.659
 9553TIP3    H228617   2.465   3.364   1.775
 9554TIP3   OH228618   3.038   1.375   4.972
 9554TIP3    H128619   3.059   1.336   4.887
 9554TIP3    H228620   2.985   1.310   5.017
 9555TIP3   OH228621   5.974   2.478   0.814
 9555TIP3    H128622   5.909   2.539   0.850
 9555TIP3    H228623   6.048   2.485   0.874
 9556TIP3   OH228624   5.256   7.629   4.792
 9556TIP3    H128625   5.285   7.540   4.774
 9556TIP3    H228626   5.218   7.659   4.709
 9557TIP3   OH228627   0.169   5.746   3.973
 9557TIP3    H128628   0.094   5.777   3.923
 9557TIP3    H228629   0.209   5.678   3.918
 9558TIP3   OH228630   1.373   7.412   3.925
 9558TIP3    H128631   1.381   7.425   4.019
 9558TIP3    H228632   1.455   7.371   3.899
 9559TIP3   OH228633   8.116   3.465   2.232
 9559TIP3    H128634   8.039   3.429   2.188
 9559TIP3    H228635   8.102   3.560   2.232
 9560TIP3   OH228636   0.542   6.259   2.302
 9560TIP3    H128637   0.517   6.218   2.385
 9560TIP3    H228638   0.628   6.223   2.282
 9561TIP3   OH228639   4.626   5.632   0.268
 9561TIP3    H128640   4.624   5.540   0.242
 9561TIP3    H228641   4.537   5.664   0.249
 9562TIP3   OH228642   6.624   4.757   4.657
 9562TIP3    H128643   6.690   4.812   4.614
 9562TIP3    H228644   6.621   4.790   4.747
 9563TIP3   OH228645   5.809   5.534   1.780
 9563TIP3    H128646   5.734   5.483   1.748
 9563TIP3    H228647   5.814   5.513   1.873
 9564TIP3   OH228648   4.147   7.794   1.679
 9564TIP3    H128649   4.118   7.703   1.676
 9564TIP3    H228650   4.167   7.815   1.587
 9565TIP3   OH228651   5.257   3.631   3.795
 9565TIP3    H128652   5.304   3.639   3.878
 9565TIP3    H228653   5.297   3.697   3.738
 9566TIP3   OH228654   3.548   5.017   2.810
 9566TIP3    H128655   3.471   5.036   2.756
 9566TIP3    H228656   3.559   4.922   2.803
 9567TIP3   OH228657   6.414   4.622   3.149
 9567TIP3    H128658   6.352   4.674   3.200
 9567TIP3    H228659   6.500   4.656   3.174
 9568TIP3   OH228660   1.538   0.478   4.016
 9568TIP3    H128661   1.591   0.554   3.989
 9568TIP3    H228662   1.486   0.456   3.939
 9569TIP3   OH228663   7.928   0.727   3.832
 9569TIP3    H128664   7.948   0.714   3.739
 9569TIP3    H228665   7.833   0.743   3.834
 9570TIP3   OH228666   0.277   0.318   3.456
 9570TIP3    H128667   0.289   0.407   3.422
 9570TIP3    H228668   0.209   0.279   3.401
 9571TIP3   OH228669   6.988   1.477   5.055
 9571TIP3    H128670   6.916   1.520   5.102
 9571TIP3    H228671   6.953   1.391   5.031
 9572TIP3   OH228672   5.051   5.471   2.638
 9572TIP3    H128673   4.972   5.486   2.586
 9572TIP3    H228674   5.046   5.378   2.661
 9573TIP3   OH228675   7.087   0.592   4.417
 9573TIP3    H128676   7.062   0.667   4.363
 9573TIP3    H228677   7.090   0.519   4.355
 9574TIP3   OH228678   7.356   0.331   1.175
 9574TIP3    H128679   7.408   0.312   1.097
 9574TIP3    H228680   7.267   0.306   1.151
 9575TIP3   OH228681   2.244   5.468   0.777
 9575TIP3    H128682   2.295   5.540   0.739
 9575TIP3    H228683   2.244   5.400   0.710
 9576TIP3   OH228684   6.004   5.142   0.493
 9576TIP3    H128685   6.098   5.149   0.508
 9576TIP3    H228686   5.994   5.148   0.398
 9577TIP3   OH228687   6.063   3.684   1.275
 9577TIP3    H128688   6.064   3.734   1.358
 9577TIP3    H228689   6.154   3.685   1.246
 9578TIP3   OH228690   2.596   4.330   6.176
 9578TIP3    H128691   2.662   4.261   6.170
 9578TIP3    H228692   2.557   4.318   6.263
 9579TIP3   OH228693   6.208   2.525   0.211
 9579TIP3    H128694   6.138   2.461   0.221
 9579TIP3    H228695   6.212   2.571   0.295
 9580TIP3   OH228696   5.326   1.086   1.436
 9580TIP3    H128697   5.288   1.171   1.458
 9580TIP3    H228698   5.276   1.022   1.487
 9581TIP3   OH228699   2.700   7.592   3.691
 9581TIP3    H128700   2.763   7.662   3.669
 9581TIP3    H228701   2.616   7.626   3.660
 9582TIP3   OH228702   3.794   5.657   2.647
 9582TIP3    H128703   3.780   5.695   2.560
 9582TIP3    H228704   3.753   5.570   2.641
 9583TIP3   OH228705   5.568   3.719   2.281
 9583TIP3    H128706   5.617   3.637   2.292
 9583TIP3    H228707   5.603   3.776   2.349
 9584TIP3   OH228708   3.141   3.037   1.516
 9584TIP3    H128709   3.156   3.118   1.565
 9584TIP3    H228710   3.045   3.032   1.508
 9585TIP3   OH228711   7.312   7.727   1.963
 9585TIP3    H128712   7.280   7.805   2.008
 9585TIP3    H228713   7.334   7.757   1.875
 9586TIP3   OH228714   4.756   4.616   5.301
 9586TIP3    H128715   4.760   4.569   5.218
 9586TIP3    H228716   4.663   4.615   5.325
 9587TIP3   OH228717   7.095   6.748   3.020
 9587TIP3    H128718   7.039   6.726   2.946
 9587TIP3    H228719   7.143   6.825   2.992
 9588TIP3   OH228720   0.381   4.846   4.305
 9588TIP3    H128721   0.286   4.838   4.301
 9588TIP3    H228722   0.401   4.925   4.255
 9589TIP3   OH228723   0.627   2.425   2.258
 9589TIP3    H128724   0.653   2.361   2.325
 9589TIP3    H228725   0.632   2.510   2.302
 9590TIP3   OH228726   4.402   2.360   5.302
 9590TIP3    H128727   4.342   2.423   5.262
 9590TIP3    H228728   4.461   2.334   5.231
 9591TIP3   OH228729   0.555   5.080   2.558
 9591TIP3    H128730   0.569   5.114   2.470
 9591TIP3    H228731   0.643   5.076   2.596
 9592TIP3   OH228732   8.194   5.355   6.194
 9592TIP3    H128733   8.172   5.416   6.124
 9592TIP3    H228734   8.118   5.356   6.252
 9593TIP3   OH228735   5.436   5.875   6.440
 9593TIP3    H128736   5.489   5.954   6.429
 9593TIP3    H228737   5.450   5.850   6.531
 9594TIP3   OH228738   0.280   1.872   4.475
 9594TIP3    H128739   0.375   1.866   4.465
 9594TIP3    H228740   0.267   1.889   4.569
 9595TIP3   OH228741   1.793   3.319   6.043
 9595TIP3    H128742   1.861   3.346   6.104
 9595TIP3    H228743   1.840   3.286   5.966
 9596TIP3   OH228744   3.043   3.889   4.085
 9596TIP3    H128745   3.137   3.895   4.070
 9596TIP3    H228746   3.024   3.795   4.078
 9597TIP3   OH228747   1.207   0.181   5.357
 9597TIP3    H128748   1.261   0.126   5.413
 9597TIP3    H228749   1.224   0.270   5.386
 9598TIP3   OH228750   4.672   1.405   5.433
 9598TIP3    H128751   4.674   1.392   5.528
 9598TIP3    H228752   4.719   1.488   5.420
 9599TIP3   OH228753   4.463   4.702   4.110
 9599TIP3    H128754   4.440   4.729   4.021
 9599TIP3    H228755   4.384   4.720   4.161
 9600TIP3   OH228756   1.006   3.499   6.192
 9600TIP3    H128757   1.016   3.530   6.101
 9600TIP3    H228758   0.968   3.574   6.238
 9601TIP3   OH228759   1.040   4.861   5.073
 9601TIP3    H128760   1.089   4.930   5.029
 9601TIP3    H228761   1.056   4.783   5.020
 9602TIP3   OH228762   5.382   5.498   3.186
 9602TIP3    H128763   5.295   5.457   3.189
 9602TIP3    H228764   5.378   5.555   3.109
 9603TIP3   OH228765   6.193   5.519   1.447
 9603TIP3    H128766   6.150   5.603   1.464
 9603TIP3    H228767   6.199   5.514   1.352
 9604TIP3   OH228768   2.825   4.427   2.147
 9604TIP3    H128769   2.889   4.446   2.078
 9604TIP3    H228770   2.748   4.478   2.123
 9605TIP3   OH228771   3.892   7.508   3.726
 9605TIP3    H128772   3.831   7.460   3.670
 9605TIP3    H228773   3.855   7.596   3.731
 9606TIP3   OH228774   3.627   3.325   0.832
 9606TIP3    H128775   3.550   3.307   0.887
 9606TIP3    H228776   3.682   3.381   0.887
 9607TIP3   OH228777   5.917   1.137   3.598
 9607TIP3    H128778   5.849   1.194   3.635
 9607TIP3    H228779   5.953   1.091   3.674
 9608TIP3   OH228780   7.804   0.998   6.181
 9608TIP3    H128781   7.841   1.033   6.263
 9608TIP3    H228782   7.850   1.046   6.112
 9609TIP3   OH228783   6.690   6.928   4.934
 9609TIP3    H128784   6.708   6.947   4.842
 9609TIP3    H228785   6.771   6.891   4.967
 9610TIP3   OH228786   0.985   0.951   0.746
 9610TIP3    H128787   0.896   0.946   0.713
 9610TIP3    H228788   0.985   1.028   0.803
 9611TIP3   OH228789   8.169   2.294   2.847
 9611TIP3    H128790   8.189   2.214   2.799
 9611TIP3    H228791   8.103   2.338   2.793
 9612TIP3   OH228792   7.808   2.003   5.085
 9612TIP3    H128793   7.849   1.922   5.116
 9612TIP3    H228794   7.729   2.012   5.138
 9613TIP3   OH228795   5.100   7.076   1.212
 9613TIP3    H128796   5.050   6.994   1.214
 9613TIP3    H228797   5.107   7.102   1.303
 9614TIP3   OH228798   2.414   3.384   0.038
 9614TIP3    H128799   2.390   3.418   0.124
 9614TIP3    H228800   2.468   3.307   0.056
 9615TIP3   OH228801   7.162   2.145   5.528
 9615TIP3    H128802   7.141   2.052   5.521
 9615TIP3    H228803   7.208   2.165   5.446
 9616TIP3   OH228804   5.817   7.556   0.401
 9616TIP3    H128805   5.814   7.652   0.399
 9616TIP3    H228806   5.727   7.529   0.383
 9617TIP3   OH228807   7.961   0.158   3.768
 9617TIP3    H128808   8.018   0.098   3.721
 9617TIP3    H228809   7.969   0.133   3.860
 9618TIP3   OH228810   8.111   4.151   4.220
 9618TIP3    H128811   8.105   4.125   4.128
 9618TIP3    H228812   8.047   4.221   4.229
 9619TIP3   OH228813   2.890  -0.021   6.648
 9619TIP3    H128814   2.870   0.072   6.662
 9619TIP3    H228815   2.946  -0.044   6.722
 9620TIP3   OH228816   0.088   5.021   5.241
 9620TIP3    H128817   0.083   4.999   5.148
 9620TIP3    H228818   0.179   5.003   5.265
 9621TIP3   OH228819   3.366   7.034   5.791
 9621TIP3    H128820   3.297   6.991   5.739
 9621TIP3    H228821   3.369   6.983   5.872
 9622TIP3   OH228822   7.110   6.143   5.742
 9622TIP3    H128823   7.182   6.205   5.756
 9622TIP3    H228824   7.116   6.083   5.817
 9623TIP3   OH228825   3.812   2.527   3.892
 9623TIP3    H128826   3.779   2.546   3.980
 9623TIP3    H228827   3.780   2.599   3.838
 9624TIP3   OH228828   1.793   7.603   1.211
 9624TIP3    H128829   1.784   7.516   1.173
 9624TIP3    H228830   1.833   7.588   1.297
 9625TIP3   OH228831   7.865   5.117   3.636
 9625TIP3    H128832   7.833   5.028   3.644
 9625TIP3    H228833   7.828   5.149   3.553
 9626TIP3   OH228834   5.239   2.643   5.316
 9626TIP3    H128835   5.183   2.568   5.333
 9626TIP3    H228836   5.195   2.689   5.244
 9627TIP3   OH228837   0.046   0.904   1.764
 9627TIP3    H128838   0.050   0.809   1.767
 9627TIP3    H228839   0.022   0.924   1.673
 9628TIP3   OH228840   7.198   3.310   0.052
 9628TIP3    H128841   7.289   3.335   0.069
 9628TIP3    H228842   7.162   3.291   0.139
 9629TIP3   OH228843   5.833   2.075   1.841
 9629TIP3    H128844   5.743   2.107   1.851
 9629TIP3    H228845   5.873   2.135   1.778
 9630TIP3   OH228846   5.159   3.964   4.411
 9630TIP3    H128847   5.211   3.971   4.491
 9630TIP3    H228848   5.136   3.871   4.405
 9631TIP3   OH228849   4.804   0.472   0.486
 9631TIP3    H128850   4.854   0.419   0.547
 9631TIP3    H228851   4.857   0.474   0.406
 9632TIP3   OH228852   2.677   6.819   3.188
 9632TIP3    H128853   2.654   6.787   3.275
 9632TIP3    H228854   2.594   6.845   3.149
 9633TIP3   OH228855   2.875   7.102   4.192
 9633TIP3    H128856   2.938   7.033   4.173
 9633TIP3    H228857   2.830   7.118   4.109
 9634TIP3   OH228858   2.582   1.431   2.889
 9634TIP3    H128859   2.631   1.476   2.959
 9634TIP3    H228860   2.585   1.493   2.816
 9635TIP3   OH228861   0.889   1.526   0.153
 9635TIP3    H128862   0.970   1.479   0.133
 9635TIP3    H228863   0.854   1.482   0.231
 9636TIP3   OH228864   3.478   3.180   5.875
 9636TIP3    H128865   3.386   3.186   5.852
 9636TIP3    H228866   3.504   3.092   5.848
 9637TIP3   OH228867   6.460   7.166   1.776
 9637TIP3    H128868   6.504   7.243   1.741
 9637TIP3    H228869   6.502   7.092   1.731
 9638TIP3   OH228870   2.982   6.257   0.308
 9638TIP3    H128871   3.001   6.321   0.376
 9638TIP3    H228872   2.975   6.174   0.354
 9639TIP3   OH228873   0.627   4.856   0.263
 9639TIP3    H128874   0.663   4.767   0.268
 9639TIP3    H228875   0.657   4.888   0.178
 9640TIP3   OH228876   7.965   7.222   5.003
 9640TIP3    H128877   7.882   7.188   5.036
 9640TIP3    H228878   7.954   7.224   4.908
 9641TIP3   OH228879   1.692   4.840   3.427
 9641TIP3    H128880   1.696   4.792   3.510
 9641TIP3    H228881   1.620   4.902   3.440
 9642TIP3   OH228882   4.744   4.089   1.796
 9642TIP3    H128883   4.820   4.035   1.816
 9642TIP3    H228884   4.747   4.100   1.701
 9643TIP3   OH228885   0.527   1.654   4.301
 9643TIP3    H128886   0.560   1.744   4.301
 9643TIP3    H228887   0.461   1.653   4.232
 9644TIP3   OH228888   3.545   7.224   1.414
 9644TIP3    H128889   3.485   7.168   1.364
 9644TIP3    H228890   3.618   7.239   1.354
 9645TIP3   OH228891   5.522   4.501   4.561
 9645TIP3    H128892   5.617   4.490   4.565
 9645TIP3    H228893   5.509   4.596   4.569
 9646TIP3   OH228894   5.649   2.069   0.656
 9646TIP3    H128895   5.566   2.117   0.651
 9646TIP3    H228896   5.710   2.131   0.696
 9647TIP3   OH228897   2.317   7.452   4.254
 9647TIP3    H128898   2.346   7.367   4.221
 9647TIP3    H228899   2.399   7.501   4.267
 9648TIP3   OH228900   4.025   1.908   6.410
 9648TIP3    H128901   4.075   1.989   6.417
 9648TIP3    H228902   4.010   1.897   6.316
 9649TIP3   OH228903   3.621   6.883   5.691
 9649TIP3    H128904   3.584   6.971   5.696
 9649TIP3    H228905   3.629   6.866   5.597
 9650TIP3   OH228906   7.293   3.641   3.103
 9650TIP3    H128907   7.318   3.700   3.032
 9650TIP3    H228908   7.272   3.558   3.060
 9651TIP3   OH228909   6.651   0.287   3.612
 9651TIP3    H128910   6.617   0.377   3.614
 9651TIP3    H228911   6.667   0.270   3.519
 9652TIP3   OH228912   0.530   1.075   3.004
 9652TIP3    H128913   0.465   1.111   2.944
 9652TIP3    H228914   0.484   1.066   3.088
 9653TIP3   OH228915   5.587   6.092   5.140
 9653TIP3    H128916   5.598   6.182   5.170
 9653TIP3    H228917   5.498   6.089   5.105
 9654TIP3   OH228918   3.849   1.948   3.481
 9654TIP3    H128919   3.778   1.977   3.539
 9654TIP3    H228920   3.804   1.920   3.402
 9655TIP3   OH228921   7.217   6.649   4.479
 9655TIP3    H128922   7.141   6.697   4.512
 9655TIP3    H228923   7.290   6.709   4.492
 9656TIP3   OH228924   8.153   1.860   2.991
 9656TIP3    H128925   8.096   1.837   3.064
 9656TIP3    H228926   8.165   1.777   2.944
 9657TIP3   OH228927   2.665   4.143   4.136
 9657TIP3    H128928   2.699   4.175   4.219
 9657TIP3    H228929   2.742   4.137   4.079
 9658TIP3   OH228930   7.153   0.716   0.300
 9658TIP3    H128931   7.234   0.745   0.342
 9658TIP3    H228932   7.181   0.658   0.230
 9659TIP3   OH228933   3.796   4.495   0.032
 9659TIP3    H128934   3.867   4.533  -0.019
 9659TIP3    H228935   3.824   4.404   0.048
 9660TIP3   OH228936   7.111   1.829   4.064
 9660TIP3    H128937   7.150   1.870   4.141
 9660TIP3    H228938   7.069   1.750   4.097
 9661TIP3   OH228939   4.767   1.509   5.033
 9661TIP3    H128940   4.783   1.442   4.966
 9661TIP3    H228941   4.672   1.514   5.040
 9662TIP3   OH228942   1.401   3.956   0.807
 9662TIP3    H128943   1.434   3.959   0.896
 9662TIP3    H228944   1.306   3.965   0.816
 9663TIP3   OH228945   0.680   7.092   4.498
 9663TIP3    H128946   0.722   7.144   4.566
 9663TIP3    H228947   0.722   7.006   4.504
 9664TIP3   OH228948   4.298   5.126   3.713
 9664TIP3    H128949   4.346   5.049   3.686
 9664TIP3    H228950   4.325   5.141   3.804
 9665TIP3   OH228951   3.710   3.577   0.977
 9665TIP3    H128952   3.764   3.655   0.965
 9665TIP3    H228953   3.735   3.543   1.063
 9666TIP3   OH228954   3.264   1.811   1.563
 9666TIP3    H128955   3.191   1.824   1.623
 9666TIP3    H228956   3.295   1.722   1.580
 9667TIP3   OH228957   2.747   5.492   3.044
 9667TIP3    H128958   2.740   5.584   3.017
 9667TIP3    H228959   2.721   5.443   2.966
 9668TIP3   OH228960   1.180   4.648   2.035
 9668TIP3    H128961   1.155   4.662   2.126
 9668TIP3    H228962   1.252   4.708   2.021
 9669TIP3   OH228963   3.737   3.218   2.806
 9669TIP3    H128964   3.822   3.179   2.790
 9669TIP3    H228965   3.743   3.254   2.895
 9670TIP3   OH228966   5.490   3.146   5.254
 9670TIP3    H128967   5.530   3.152   5.167
 9670TIP3    H228968   5.561   3.120   5.312
 9671TIP3   OH228969   7.884   6.775   3.918
 9671TIP3    H128970   7.803   6.731   3.941
 9671TIP3    H228971   7.918   6.725   3.844
 9672TIP3   OH228972   5.338   5.189   2.238
 9672TIP3    H128973   5.388   5.199   2.319
 9672TIP3    H228974   5.249   5.170   2.268
 9673TIP3   OH228975   3.168   1.815   6.799
 9673TIP3    H128976   3.145   1.832   6.891
 9673TIP3    H228977   3.256   1.853   6.789
 9674TIP3   OH228978   4.880   1.824   1.569
 9674TIP3    H128979   4.963   1.816   1.616
 9674TIP3    H228980   4.864   1.737   1.532
 9675TIP3   OH228981   3.603   0.093   5.235
 9675TIP3    H128982   3.534   0.034   5.264
 9675TIP3    H228983   3.585   0.106   5.142
 9676TIP3   OH228984   4.014   6.069   5.207
 9676TIP3    H128985   3.989   6.021   5.128
 9676TIP3    H228986   3.972   6.021   5.278
 9677TIP3   OH228987   2.471   4.950   5.522
 9677TIP3    H128988   2.536   4.910   5.465
 9677TIP3    H228989   2.516   5.026   5.559
 9678TIP3   OH228990   0.039   2.731   3.945
 9678TIP3    H128991   0.132   2.713   3.944
 9678TIP3    H228992  -0.001   2.659   3.897
 9679TIP3   OH228993   7.292   2.972   4.371
 9679TIP3    H128994   7.319   3.049   4.421
 9679TIP3    H228995   7.236   2.923   4.432
 9680TIP3   OH228996   4.707   0.822   4.429
 9680TIP3    H128997   4.764   0.784   4.362
 9680TIP3    H228998   4.654   0.886   4.381
 9681TIP3   OH228999   6.590   7.363   4.395
 9681TIP3    H129000   6.541   7.281   4.389
 9681TIP3    H229001   6.555   7.416   4.324
 9682TIP3   OH229002   3.117   6.363   1.762
 9682TIP3    H129003   3.068   6.444   1.755
 9682TIP3    H229004   3.055   6.299   1.797
 9683TIP3   OH229005   4.410   2.000   1.414
 9683TIP3    H129006   4.503   2.008   1.435
 9683TIP3    H229007   4.407   1.938   1.340
 9684TIP3   OH229008   0.478   1.075   2.277
 9684TIP3    H129009   0.395   1.082   2.230
 9684TIP3    H229010   0.461   1.012   2.347
 9685TIP3   OH229011   4.310   5.232   0.384
 9685TIP3    H129012   4.266   5.281   0.454
 9685TIP3    H229013   4.403   5.245   0.400
 9686TIP3   OH229014   5.249   4.899   2.118
 9686TIP3    H129015   5.322   4.884   2.179
 9686TIP3    H229016   5.173   4.862   2.162
 9687TIP3   OH229017   6.969   3.012   5.804
 9687TIP3    H129018   7.005   2.955   5.737
 9687TIP3    H229019   6.874   3.003   5.795
 9688TIP3   OH229020   1.720   1.077   5.700
 9688TIP3    H129021   1.805   1.113   5.723
 9688TIP3    H229022   1.657   1.143   5.731
 9689TIP3   OH229023   0.511   0.991   4.681
 9689TIP3    H129024   0.592   0.951   4.712
 9689TIP3    H229025   0.532   1.024   4.593
 9690TIP3   OH229026   3.213   3.256   1.680
 9690TIP3    H129027   3.307   3.274   1.679
 9690TIP3    H229028   3.192   3.240   1.772
 9691TIP3   OH229029   2.861   4.389   1.570
 9691TIP3    H129030   2.915   4.333   1.514
 9691TIP3    H229031   2.913   4.401   1.649
 9692TIP3   OH229032   7.254   4.054   0.782
 9692TIP3    H129033   7.232   4.120   0.847
 9692TIP3    H229034   7.229   3.971   0.822
 9693TIP3   OH229035   4.629   4.314   2.037
 9693TIP3    H129036   4.558   4.377   2.031
 9693TIP3    H229037   4.667   4.328   2.123
 9694TIP3   OH229038   5.094   5.860   2.859
 9694TIP3    H129039   5.184   5.881   2.885
 9694TIP3    H229040   5.062   5.940   2.817
 9695TIP3   OH229041   3.837   2.159   5.538
 9695TIP3    H129042   3.811   2.217   5.609
 9695TIP3    H229043   3.900   2.211   5.487
 9696TIP3   OH229044   0.341   5.149   5.627
 9696TIP3    H129045   0.387   5.068   5.606
 9696TIP3    H229046   0.249   5.130   5.611
 9697TIP3   OH229047   4.679   4.126   3.971
 9697TIP3    H129048   4.743   4.184   4.012
 9697TIP3    H229049   4.674   4.156   3.880
 9698TIP3   OH229050   2.652   0.071   2.964
 9698TIP3    H129051   2.620   0.161   2.953
 9698TIP3    H229052   2.695   0.071   3.049
 9699TIP3   OH229053   4.037   5.823   6.137
 9699TIP3    H129054   3.970   5.871   6.184
 9699TIP3    H229055   3.989   5.757   6.088
 9700TIP3   OH229056   0.993   7.433   6.358
 9700TIP3    H129057   0.961   7.451   6.270
 9700TIP3    H229058   1.045   7.353   6.348
 9701TIP3   OH229059   0.225   5.685   2.755
 9701TIP3    H129060   0.254   5.606   2.711
 9701TIP3    H229061   0.181   5.736   2.687
 9702TIP3   OH229062   8.154   3.838   3.169
 9702TIP3    H129063   8.102   3.765   3.134
 9702TIP3    H229064   8.206   3.867   3.094
 9703TIP3   OH229065   4.987   4.239   6.319
 9703TIP3    H129066   4.989   4.334   6.326
 9703TIP3    H229067   5.064   4.209   6.368
 9704TIP3   OH229068   6.124   0.190   5.475
 9704TIP3    H129069   6.160   0.262   5.424
 9704TIP3    H229070   6.037   0.221   5.502
 9705TIP3   OH229071   1.255   0.355   5.650
 9705TIP3    H129072   1.251   0.259   5.650
 9705TIP3    H229073   1.298   0.376   5.733
 9706TIP3   OH229074   2.411   7.551   1.084
 9706TIP3    H129075   2.465   7.519   1.156
 9706TIP3    H229076   2.453   7.516   1.005
 9707TIP3   OH229077   5.613   5.712   2.753
 9707TIP3    H129078   5.662   5.631   2.740
 9707TIP3    H229079   5.602   5.748   2.665
 9708TIP3   OH229080   6.852   0.904   4.731
 9708TIP3    H129081   6.937   0.874   4.763
 9708TIP3    H229082   6.802   0.824   4.716
 9709TIP3   OH229083   6.535   7.836   2.873
 9709TIP3    H129084   6.542   7.893   2.949
 9709TIP3    H229085   6.616   7.784   2.874
 9710TIP3   OH229086   2.199   6.156   6.058
 9710TIP3    H129087   2.104   6.162   6.062
 9710TIP3    H229088   2.230   6.245   6.076
 9711TIP3   OH229089   5.181   3.906   0.746
 9711TIP3    H129090   5.184   3.852   0.667
 9711TIP3    H229091   5.266   3.948   0.750
 9712TIP3   OH229092   8.047   5.419   4.665
 9712TIP3    H129093   8.142   5.432   4.655
 9712TIP3    H229094   8.019   5.494   4.718
 9713TIP3   OH229095   4.604   0.102   6.196
 9713TIP3    H129096   4.667   0.137   6.258
 9713TIP3    H229097   4.530   0.074   6.249
 9714TIP3   OH229098   6.482   2.412   0.563
 9714TIP3    H129099   6.388   2.416   0.544
 9714TIP3    H229100   6.524   2.405   0.478
 9715TIP3   OH229101   6.461   3.510   0.126
 9715TIP3    H129102   6.527   3.452   0.165
 9715TIP3    H229103   6.503   3.544   0.047
 9716TIP3   OH229104   6.890   1.136   1.774
 9716TIP3    H129105   6.810   1.175   1.809
 9716TIP3    H229106   6.906   1.183   1.692
 9717TIP3   OH229107   4.814   6.883   0.616
 9717TIP3    H129108   4.830   6.792   0.640
 9717TIP3    H229109   4.896   6.928   0.638
 9718TIP3   OH229110   8.078   7.184   6.126
 9718TIP3    H129111   8.012   7.151   6.187
 9718TIP3    H229112   8.158   7.189   6.177
 9719TIP3   OH229113   4.658   6.015   5.433
 9719TIP3    H129114   4.667   6.108   5.412
 9719TIP3    H229115   4.599   5.981   5.366
 9720TIP3   OH229116   3.738   7.752   3.762
 9720TIP3    H129117   3.777   7.809   3.828
 9720TIP3    H229118   3.734   7.806   3.683
 9721TIP3   OH229119   5.516   4.404   2.689
 9721TIP3    H129120   5.611   4.417   2.695
 9721TIP3    H229121   5.480   4.493   2.680
 9722TIP3   OH229122   3.077   2.276   1.839
 9722TIP3    H129123   3.091   2.306   1.750
 9722TIP3    H229124   3.080   2.356   1.892
 9723TIP3   OH229125   5.133   3.012   0.981
 9723TIP3    H129126   5.098   2.980   0.897
 9723TIP3    H229127   5.066   3.072   1.013
 9724TIP3   OH229128   2.088   3.654   6.701
 9724TIP3    H129129   2.078   3.711   6.778
 9724TIP3    H229130   2.046   3.572   6.726
 9725TIP3   OH229131   4.985   7.099   2.573
 9725TIP3    H129132   4.897   7.130   2.551
 9725TIP3    H229133   5.041   7.177   2.563
 9726TIP3   OH229134   6.209   6.460   1.062
 9726TIP3    H129135   6.151   6.386   1.045
 9726TIP3    H229136   6.227   6.455   1.156
 9727TIP3   OH229137   8.103   1.309   4.764
 9727TIP3    H129138   8.175   1.306   4.700
 9727TIP3    H229139   8.024   1.311   4.711
 9728TIP3   OH229140   4.756   5.267   3.362
 9728TIP3    H129141   4.765   5.333   3.293
 9728TIP3    H229142   4.738   5.186   3.314
 9729TIP3   OH229143   7.383   4.035   3.295
 9729TIP3    H129144   7.375   3.952   3.342
 9729TIP3    H229145   7.293   4.059   3.274
 9730TIP3   OH229146   8.286   0.468   4.977
 9730TIP3    H129147   8.259   0.382   5.010
 9730TIP3    H229148   8.355   0.496   5.037
 9731TIP3   OH229149   3.338   6.306   2.787
 9731TIP3    H129150   3.363   6.262   2.869
 9731TIP3    H229151   3.250   6.272   2.768
 9732TIP3   OH229152   2.680   2.770   4.064
 9732TIP3    H129153   2.592   2.809   4.060
 9732TIP3    H229154   2.737   2.843   4.089
 9733TIP3   OH229155   7.316   1.709   2.073
 9733TIP3    H129156   7.274   1.624   2.067
 9733TIP3    H229157   7.373   1.713   1.996
 9734TIP3   OH229158   6.112   4.032   4.457
 9734TIP3    H129159   6.180   4.030   4.389
 9734TIP3    H229160   6.032   4.004   4.412
 9735TIP3   OH229161   3.446   2.166   5.822
 9735TIP3    H129162   3.419   2.257   5.806
 9735TIP3    H229163   3.417   2.119   5.744
 9736TIP3   OH229164   2.913   5.602   5.605
 9736TIP3    H129165   2.958   5.583   5.687
 9736TIP3    H229166   2.873   5.688   5.618
 9737TIP3   OH229167   2.092   0.203   5.873
 9737TIP3    H129168   2.150   0.224   5.800
 9737TIP3    H229169   2.087   0.285   5.923
 9738TIP3   OH229170   6.549   0.860   5.468
 9738TIP3    H129171   6.538   0.955   5.473
 9738TIP3    H229172   6.619   0.847   5.404
 9739TIP3   OH229173   4.944   1.453   4.254
 9739TIP3    H129174   5.028   1.458   4.300
 9739TIP3    H229175   4.959   1.389   4.185
 9740TIP3   OH229176   0.569   0.205   3.912
 9740TIP3    H129177   0.489   0.236   3.869
 9740TIP3    H229178   0.570   0.249   3.997
 9741TIP3   OH229179   4.358   5.449   3.472
 9741TIP3    H129180   4.339   5.483   3.560
 9741TIP3    H229181   4.439   5.494   3.446
 9742TIP3   OH229182   3.552   4.964   6.251
 9742TIP3    H129183   3.623   4.912   6.213
 9742TIP3    H229184   3.498   4.989   6.176
 9743TIP3   OH229185   0.623   1.967   4.737
 9743TIP3    H129186   0.622   1.990   4.830
 9743TIP3    H229187   0.666   2.041   4.694
 9744TIP3   OH229188   6.181   2.850   5.844
 9744TIP3    H129189   6.267   2.842   5.803
 9744TIP3    H229190   6.131   2.776   5.810
 9745TIP3   OH229191   6.472   3.865   1.451
 9745TIP3    H129192   6.414   3.875   1.527
 9745TIP3    H229193   6.441   3.932   1.389
 9746TIP3   OH229194   0.663   1.983   1.036
 9746TIP3    H129195   0.582   1.975   1.088
 9746TIP3    H229196   0.727   1.932   1.086
 9747TIP3   OH229197   1.577   5.569   2.774
 9747TIP3    H129198   1.656   5.543   2.821
 9747TIP3    H229199   1.583   5.524   2.690
 9748TIP3   OH229200   5.807   2.102   3.986
 9748TIP3    H129201   5.794   2.152   3.905
 9748TIP3    H229202   5.733   2.042   3.989
 9749TIP3   OH229203   0.300   5.906   5.641
 9749TIP3    H129204   0.340   5.905   5.553
 9749TIP3    H229205   0.341   5.981   5.684
 9750TIP3   OH229206   7.153   3.703   0.170
 9750TIP3    H129207   7.096   3.771   0.133
 9750TIP3    H229208   7.093   3.647   0.220
 9751TIP3   OH229209   0.929   1.686   5.858
 9751TIP3    H129210   1.000   1.622   5.859
 9751TIP3    H229211   0.973   1.771   5.852
 9752TIP3   OH229212   2.779   3.023   4.064
 9752TIP3    H129213   2.710   3.058   4.008
 9752TIP3    H229214   2.771   3.072   4.146
 9753TIP3   OH229215   7.024   4.809   1.245
 9753TIP3    H129216   7.095   4.849   1.196
 9753TIP3    H229217   7.051   4.817   1.337
 9754TIP3   OH229218   7.977   0.006   1.680
 9754TIP3    H129219   7.962  -0.009   1.773
 9754TIP3    H229220   8.072   0.003   1.670
 9755TIP3   OH229221   5.933   4.593   3.102
 9755TIP3    H129222   5.851   4.589   3.052
 9755TIP3    H229223   5.987   4.657   3.056
 9756TIP3   OH229224   6.047   0.533   4.591
 9756TIP3    H129225   6.041   0.544   4.686
 9756TIP3    H229226   6.042   0.438   4.578
 9757TIP3   OH229227   2.004   3.135   0.589
 9757TIP3    H129228   2.096   3.150   0.569
 9757TIP3    H229229   1.959   3.151   0.506
 9758TIP3   OH229230   3.416   7.383   0.110
 9758TIP3    H129231   3.344   7.427   0.154
 9758TIP3    H229232   3.488   7.386   0.173
 9759TIP3   OH229233   3.448   2.641   5.033
 9759TIP3    H129234   3.409   2.556   5.054
 9759TIP3    H229235   3.513   2.620   4.965
 9760TIP3   OH229236   4.851   4.771   1.148
 9760TIP3    H129237   4.865   4.741   1.238
 9760TIP3    H229238   4.919   4.837   1.134
 9761TIP3   OH229239   7.722   1.386   3.670
 9761TIP3    H129240   7.748   1.444   3.597
 9761TIP3    H229241   7.629   1.372   3.657
 9762TIP3   OH229242   1.935   0.597   3.458
 9762TIP3    H129243   1.857   0.647   3.437
 9762TIP3    H229244   1.943   0.604   3.553
 9763TIP3   OH229245   7.275   5.489   2.061
 9763TIP3    H129246   7.282   5.584   2.063
 9763TIP3    H229247   7.182   5.472   2.077
 9764TIP3   OH229248   7.937   7.138   0.569
 9764TIP3    H129249   7.889   7.189   0.633
 9764TIP3    H229250   8.025   7.130   0.605
 9765TIP3   OH229251   4.783   1.595   1.453
 9765TIP3    H129252   4.838   1.618   1.377
 9765TIP3    H229253   4.693   1.604   1.420
 9766TIP3   OH229254   3.807   0.332   3.145
 9766TIP3    H129255   3.742   0.400   3.133
 9766TIP3    H229256   3.772   0.256   3.097
 9767TIP3   OH229257   1.271   4.927   2.503
 9767TIP3    H129258   1.358   4.911   2.466
 9767TIP3    H229259   1.257   4.853   2.562
 9768TIP3   OH229260   4.765   3.108   5.375
 9768TIP3    H129261   4.778   3.036   5.314
 9768TIP3    H229262   4.679   3.143   5.353
 9769TIP3   OH229263   5.719   2.516   6.503
 9769TIP3    H129264   5.724   2.596   6.555
 9769TIP3    H229265   5.788   2.459   6.539
 9770TIP3   OH229266   7.158   3.720   1.910
 9770TIP3    H129267   7.114   3.800   1.882
 9770TIP3    H229268   7.105   3.649   1.875
 9771TIP3   OH229269   3.648   1.479   3.977
 9771TIP3    H129270   3.712   1.410   3.995
 9771TIP3    H229271   3.647   1.487   3.882
 9772TIP3   OH229272   1.878   5.621   4.514
 9772TIP3    H129273   1.920   5.706   4.499
 9772TIP3    H229274   1.930   5.582   4.584
 9773TIP3   OH229275   4.117   5.199   3.140
 9773TIP3    H129276   4.022   5.200   3.135
 9773TIP3    H229277   4.146   5.267   3.079
 9774TIP3   OH229278   1.778   3.737   3.544
 9774TIP3    H129279   1.849   3.732   3.608
 9774TIP3    H229280   1.721   3.664   3.566
 9775TIP3   OH229281   3.251   0.487   3.802
 9775TIP3    H129282   3.294   0.521   3.723
 9775TIP3    H229283   3.264   0.392   3.796
 9776TIP3   OH229284   3.372   6.326   4.557
 9776TIP3    H129285   3.276   6.334   4.551
 9776TIP3    H229286   3.390   6.234   4.537
 9777TIP3   OH229287   1.030   7.521   4.328
 9777TIP3    H129288   1.049   7.615   4.334
 9777TIP3    H229289   1.114   7.479   4.349
 9778TIP3   OH229290   3.864   4.387   4.189
 9778TIP3    H129291   3.919   4.348   4.257
 9778TIP3    H229292   3.891   4.343   4.108
 9779TIP3   OH229293   8.186   5.384   2.440
 9779TIP3    H129294   8.151   5.400   2.353
 9779TIP3    H229295   8.202   5.471   2.476
 9780TIP3   OH229296   1.182   5.080   5.031
 9780TIP3    H129297   1.166   5.138   5.106
 9780TIP3    H229298   1.224   5.136   4.966
 9781TIP3   OH229299   7.828   6.508   1.133
 9781TIP3    H129300   7.774   6.528   1.056
 9781TIP3    H229301   7.918   6.521   1.104
 9782TIP3   OH229302   5.932   4.789   2.064
 9782TIP3    H129303   5.854   4.844   2.072
 9782TIP3    H229304   5.970   4.813   1.980
 9783TIP3   OH229305   5.933   3.627   5.733
 9783TIP3    H129306   5.975   3.546   5.703
 9783TIP3    H229307   5.892   3.603   5.816
 9784TIP3   OH229308   6.223   7.096   0.080
 9784TIP3    H129309   6.181   7.075  -0.004
 9784TIP3    H229310   6.288   7.027   0.091
 9785TIP3   OH229311   5.725   1.707   1.357
 9785TIP3    H129312   5.726   1.796   1.320
 9785TIP3    H229313   5.642   1.670   1.329
 9786TIP3   OH229314   5.349   4.346   1.611
 9786TIP3    H129315   5.345   4.441   1.600
 9786TIP3    H229316   5.307   4.311   1.532
 9787TIP3   OH229317   4.471   2.426   6.751
 9787TIP3    H129318   4.393   2.371   6.745
 9787TIP3    H229319   4.495   2.444   6.660
 9788TIP3   OH229320   0.579   1.097   0.942
 9788TIP3    H129321   0.492   1.084   0.904
 9788TIP3    H229322   0.572   1.062   1.031
 9789TIP3   OH229323   2.619   1.548   2.640
 9789TIP3    H129324   2.670   1.479   2.598
 9789TIP3    H229325   2.667   1.629   2.619
 9790TIP3   OH229326   5.699   5.548   2.362
 9790TIP3    H129327   5.718   5.459   2.332
 9790TIP3    H229328   5.652   5.588   2.289
 9791TIP3   OH229329   0.790   6.539   3.360
 9791TIP3    H129330   0.732   6.482   3.309
 9791TIP3    H229331   0.739   6.562   3.438
 9792TIP3   OH229332   1.422   5.595   3.793
 9792TIP3    H129333   1.359   5.630   3.730
 9792TIP3    H229334   1.406   5.645   3.873
 9793TIP3   OH229335   0.237   3.385   2.076
 9793TIP3    H129336   0.189   3.465   2.054
 9793TIP3    H229337   0.169   3.320   2.093
 9794TIP3   OH229338   7.313   0.890   0.542
 9794TIP3    H129339   7.395   0.876   0.589
 9794TIP3    H229340   7.299   0.984   0.544
 9795TIP3   OH229341   3.007   4.437   4.104
 9795TIP3    H129342   2.915   4.456   4.123
 9795TIP3    H229343   3.044   4.521   4.079
 9796TIP3   OH229344   0.409   6.856   5.167
 9796TIP3    H129345   0.481   6.910   5.201
 9796TIP3    H229346   0.366   6.911   5.102
 9797TIP3   OH229347   3.067   1.284   5.581
 9797TIP3    H129348   2.980   1.285   5.621
 9797TIP3    H229349   3.108   1.205   5.616
 9798TIP3   OH229350   0.163   4.894   0.680
 9798TIP3    H129351   0.191   4.910   0.589
 9798TIP3    H229352   0.219   4.822   0.709
 9799TIP3   OH229353   4.638   2.503   3.948
 9799TIP3    H129354   4.665   2.522   4.038
 9799TIP3    H229355   4.564   2.562   3.932
 9800TIP3   OH229356   0.233   1.010   5.995
 9800TIP3    H129357   0.265   1.096   5.966
 9800TIP3    H229358   0.215   0.963   5.914
 9801TIP3   OH229359   7.979   5.849   3.271
 9801TIP3    H129360   7.894   5.820   3.240
 9801TIP3    H229361   8.041   5.821   3.203
 9802TIP3   OH229362   7.814   6.231   5.845
 9802TIP3    H129363   7.723   6.252   5.863
 9802TIP3    H229364   7.823   6.138   5.866
 9803TIP3   OH229365   6.955   7.591   1.445
 9803TIP3    H129366   6.875   7.554   1.407
 9803TIP3    H229367   7.025   7.534   1.414
 9804TIP3   OH229368   3.497   7.776   0.069
 9804TIP3    H129369   3.467   7.726   0.145
 9804TIP3    H229370   3.418   7.789   0.017
 9805TIP3   OH229371   5.624   3.489   0.619
 9805TIP3    H129372   5.651   3.398   0.623
 9805TIP3    H229373   5.528   3.485   0.610
 9806TIP3   OH229374   3.427   2.716   3.883
 9806TIP3    H129375   3.396   2.796   3.840
 9806TIP3    H229376   3.420   2.648   3.816
 9807TIP3   OH229377   2.569   0.930   5.019
 9807TIP3    H129378   2.479   0.900   5.032
 9807TIP3    H229379   2.576   1.008   5.075
 9808TIP3   OH229380   3.166   4.632   0.415
 9808TIP3    H129381   3.147   4.539   0.420
 9808TIP3    H229382   3.080   4.674   0.420
 9809TIP3   OH229383   2.672   7.113   2.015
 9809TIP3    H129384   2.700   7.148   2.099
 9809TIP3    H229385   2.577   7.126   2.014
 9810TIP3   OH229386   6.257   4.835   5.692
 9810TIP3    H129387   6.309   4.846   5.612
 9810TIP3    H229388   6.267   4.919   5.738
 9811TIP3   OH229389   5.416   0.927   6.694
 9811TIP3    H129390   5.471   0.996   6.731
 9811TIP3    H229391   5.327   0.951   6.717
 9812TIP3   OH229392   4.929   1.246   6.673
 9812TIP3    H129393   4.970   1.205   6.597
 9812TIP3    H229394   4.841   1.210   6.676
 9813TIP3   OH229395   0.417   1.806   5.232
 9813TIP3    H129396   0.386   1.855   5.308
 9813TIP3    H229397   0.495   1.759   5.264
 9814TIP3   OH229398   0.640   3.123   1.222
 9814TIP3    H129399   0.733   3.137   1.205
 9814TIP3    H229400   0.638   3.060   1.294
 9815TIP3   OH229401   3.271   6.190   2.485
 9815TIP3    H129402   3.325   6.113   2.468
 9815TIP3    H229403   3.331   6.252   2.526
 9816TIP3   OH229404   1.568   7.788   0.386
 9816TIP3    H129405   1.646   7.840   0.372
 9816TIP3    H229406   1.525   7.784   0.301
 9817TIP3   OH229407   7.133   1.471   2.331
 9817TIP3    H129408   7.221   1.434   2.326
 9817TIP3    H229409   7.142   1.545   2.391
 9818TIP3   OH229410   5.490   0.597   4.936
 9818TIP3    H129411   5.569   0.646   4.960
 9818TIP3    H229412   5.494   0.517   4.989
 9819TIP3   OH229413   4.721   4.496   5.057
 9819TIP3    H129414   4.661   4.533   4.992
 9819TIP3    H229415   4.767   4.426   5.009
 9820TIP3   OH229416   8.117   7.752   0.150
 9820TIP3    H129417   8.113   7.807   0.071
 9820TIP3    H229418   8.138   7.664   0.116
 9821TIP3   OH229419   3.334   4.298   1.116
 9821TIP3    H129420   3.369   4.284   1.204
 9821TIP3    H229421   3.374   4.230   1.062
 9822TIP3   OH229422   0.761   3.567   4.551
 9822TIP3    H129423   0.761   3.630   4.623
 9822TIP3    H229424   0.705   3.606   4.484
 9823TIP3   OH229425   6.267   0.177   4.013
 9823TIP3    H129426   6.325   0.189   4.088
 9823TIP3    H229427   6.180   0.164   4.051
 9824TIP3   OH229428   4.520   3.495   5.704
 9824TIP3    H129429   4.552   3.584   5.692
 9824TIP3    H229430   4.506   3.487   5.798
 9825TIP3   OH229431   2.493   7.371   4.737
 9825TIP3    H129432   2.425   7.309   4.763
 9825TIP3    H229433   2.509   7.424   4.815
 9826TIP3   OH229434   1.613   2.561   3.153
 9826TIP3    H129435   1.567   2.547   3.235
 9826TIP3    H229436   1.549   2.542   3.085
 9827TIP3   OH229437   2.695   3.045   5.204
 9827TIP3    H129438   2.715   3.115   5.141
 9827TIP3    H229439   2.777   3.031   5.252
 9828TIP3   OH229440   1.593   7.775   5.578
 9828TIP3    H129441   1.600   7.768   5.673
 9828TIP3    H229442   1.643   7.854   5.557
 9829TIP3   OH229443   1.380   3.740   0.181
 9829TIP3    H129444   1.339   3.694   0.254
 9829TIP3    H229445   1.305   3.770   0.128
 9830TIP3   OH229446   7.175   7.510   2.474
 9830TIP3    H129447   7.216   7.542   2.394
 9830TIP3    H229448   7.223   7.552   2.545
 9831TIP3   OH229449   4.228   4.943   5.953
 9831TIP3    H129450   4.141   4.906   5.967
 9831TIP3    H229451   4.274   4.927   6.035
 9832TIP3   OH229452   4.570   0.180   3.754
 9832TIP3    H129453   4.655   0.144   3.728
 9832TIP3    H229454   4.514   0.165   3.678
 9833TIP3   OH229455   5.852   3.900   5.712
 9833TIP3    H129456   5.763   3.919   5.681
 9833TIP3    H229457   5.860   3.805   5.706
 9834TIP3   OH229458   5.713   4.507   3.545
 9834TIP3    H129459   5.757   4.548   3.619
 9834TIP3    H229460   5.706   4.414   3.570
 9835TIP3   OH229461   7.705   2.441   0.645
 9835TIP3    H129462   7.628   2.475   0.689
 9835TIP3    H229463   7.677   2.356   0.610
 9836TIP3   OH229464   4.753   4.616   0.882
 9836TIP3    H129465   4.724   4.594   0.970
 9836TIP3    H229466   4.673   4.629   0.832
 9837TIP3   OH229467   6.960   2.693   5.777
 9837TIP3    H129468   7.054   2.692   5.798
 9837TIP3    H229469   6.936   2.600   5.770
 9838TIP3   OH229470   5.674   2.124   2.392
 9838TIP3    H129471   5.654   2.168   2.310
 9838TIP3    H229472   5.755   2.077   2.376
 9839TIP3   OH229473   7.576   7.220   6.592
 9839TIP3    H129474   7.662   7.243   6.557
 9839TIP3    H229475   7.550   7.140   6.546
 9840TIP3   OH229476   6.535   1.744   3.884
 9840TIP3    H129477   6.570   1.738   3.795
 9840TIP3    H229478   6.449   1.784   3.873
 9841TIP3   OH229479   1.662   5.199   3.934
 9841TIP3    H129480   1.639   5.245   4.015
 9841TIP3    H229481   1.756   5.183   3.941
 9842TIP3   OH229482   5.861   5.959   0.970
 9842TIP3    H129483   5.878   6.033   0.912
 9842TIP3    H229484   5.947   5.922   0.989
 9843TIP3   OH229485   3.002   3.697   1.968
 9843TIP3    H129486   3.063   3.653   1.908
 9843TIP3    H229487   3.019   3.656   2.053
 9844TIP3   OH229488   3.730   1.515   5.592
 9844TIP3    H129489   3.656   1.520   5.532
 9844TIP3    H229490   3.800   1.562   5.547
 9845TIP3   OH229491   1.792   1.704   2.757
 9845TIP3    H129492   1.733   1.770   2.722
 9845TIP3    H229493   1.862   1.698   2.693
 9846TIP3   OH229494   7.750   0.162   4.146
 9846TIP3    H129495   7.720   0.123   4.064
 9846TIP3    H229496   7.742   0.256   4.132
 9847TIP3   OH229497   1.147   4.190   5.610
 9847TIP3    H129498   1.224   4.213   5.559
 9847TIP3    H229499   1.090   4.145   5.548
 9848TIP3   OH229500   2.146   7.635   5.780
 9848TIP3    H129501   2.064   7.594   5.752
 9848TIP3    H229502   2.125   7.727   5.790
 9849TIP3   OH229503   7.405   6.555   3.327
 9849TIP3    H129504   7.488   6.589   3.295
 9849TIP3    H229505   7.418   6.545   3.421
 9850TIP3   OH229506   8.264   2.272   4.790
 9850TIP3    H129507   8.334   2.269   4.725
 9850TIP3    H229508   8.310   2.270   4.874
 9851TIP3   OH229509   1.069   3.446   3.431
 9851TIP3    H129510   1.141   3.492   3.386
 9851TIP3    H229511   1.042   3.378   3.369
 9852TIP3   OH229512   3.523   4.500   0.050
 9852TIP3    H129513   3.617   4.507   0.036
 9852TIP3    H229514   3.513   4.502   0.145
 9853TIP3   OH229515   2.730   6.022   1.366
 9853TIP3    H129516   2.825   6.032   1.378
 9853TIP3    H229517   2.693   6.103   1.400
 9854TIP3   OH229518   4.867   4.584   4.221
 9854TIP3    H129519   4.800   4.648   4.244
 9854TIP3    H229520   4.865   4.520   4.293
 9855TIP3   OH229521   2.069   2.071   4.610
 9855TIP3    H129522   2.003   2.024   4.559
 9855TIP3    H229523   2.079   2.155   4.564
 9856TIP3   OH229524   3.862   3.152   1.549
 9856TIP3    H129525   3.874   3.096   1.626
 9856TIP3    H229526   3.949   3.158   1.510
 9857TIP3   OH229527   8.311   4.607   6.313
 9857TIP3    H129528   8.350   4.612   6.225
 9857TIP3    H229529   8.222   4.639   6.302
 9858TIP3   OH229530   3.652   7.014   3.195
 9858TIP3    H129531   3.610   7.066   3.263
 9858TIP3    H229532   3.721   6.966   3.241
 9859TIP3   OH229533   0.750   7.103   1.244
 9859TIP3    H129534   0.656   7.120   1.237
 9859TIP3    H229535   0.763   7.076   1.335
 9860TIP3   OH229536   2.557   7.618   1.936
 9860TIP3    H129537   2.641   7.580   1.962
 9860TIP3    H229538   2.536   7.679   2.006
 9861TIP3   OH229539   2.463   1.546   0.360
 9861TIP3    H129540   2.432   1.456   0.359
 9861TIP3    H229541   2.490   1.563   0.270
 9862TIP3   OH229542   4.433   3.426   6.433
 9862TIP3    H129543   4.466   3.515   6.418
 9862TIP3    H229544   4.482   3.394   6.509
 9863TIP3   OH229545   1.733   6.030   0.621
 9863TIP3    H129546   1.749   6.123   0.604
 9863TIP3    H229547   1.666   6.006   0.557
 9864TIP3   OH229548   2.297   5.745   4.027
 9864TIP3    H129549   2.248   5.711   3.952
 9864TIP3    H229550   2.365   5.800   3.989
 9865TIP3   OH229551   0.526   6.090   0.841
 9865TIP3    H129552   0.523   6.010   0.893
 9865TIP3    H229553   0.619   6.101   0.820
 9866TIP3   OH229554   8.043   7.488   3.154
 9866TIP3    H129555   8.099   7.540   3.212
 9866TIP3    H229556   7.982   7.552   3.117
 9867TIP3   OH229557   7.769   7.147   5.877
 9867TIP3    H129558   7.696   7.209   5.870
 9867TIP3    H229559   7.769   7.120   5.968
 9868TIP3   OH229560   4.144   4.802   1.677
 9868TIP3    H129561   4.138   4.895   1.696
 9868TIP3    H229562   4.150   4.760   1.763
 9869TIP3   OH229563   5.200   1.451   4.390
 9869TIP3    H129564   5.274   1.494   4.347
 9869TIP3    H229565   5.177   1.509   4.462
 9870TIP3   OH229566   2.107   2.346   0.214
 9870TIP3    H129567   2.102   2.260   0.256
 9870TIP3    H229568   2.025   2.390   0.237
 9871TIP3   OH229569   1.816   2.758   1.680
 9871TIP3    H129570   1.800   2.715   1.763
 9871TIP3    H229571   1.773   2.703   1.615
 9872TIP3   OH229572   4.369   5.112   2.782
 9872TIP3    H129573   4.315   5.126   2.860
 9872TIP3    H229574   4.409   5.198   2.765
 9873TIP3   OH229575   3.766   3.691   1.928
 9873TIP3    H129576   3.725   3.765   1.973
 9873TIP3    H229577   3.769   3.622   1.995
 9874TIP3   OH229578   0.669   0.951   0.697
 9874TIP3    H129579   0.597   1.001   0.659
 9874TIP3    H229580   0.668   0.974   0.790
 9875TIP3   OH229581   2.290   3.376   4.552
 9875TIP3    H129582   2.200   3.346   4.567
 9875TIP3    H229583   2.312   3.427   4.629
 9876TIP3   OH229584   0.108   3.593   2.551
 9876TIP3    H129585   0.132   3.589   2.458
 9876TIP3    H229586   0.015   3.570   2.553
 9877TIP3   OH229587   1.092   7.835   5.813
 9877TIP3    H129588   1.063   7.744   5.824
 9877TIP3    H229589   1.186   7.833   5.828
 9878TIP3   OH229590   7.974   6.499   4.348
 9878TIP3    H129591   7.896   6.505   4.293
 9878TIP3    H229592   7.987   6.406   4.363
 9879TIP3   OH229593   4.237   4.807   5.672
 9879TIP3    H129594   4.251   4.726   5.722
 9879TIP3    H229595   4.325   4.842   5.658
 9880TIP3   OH229596   4.087   5.627   4.833
 9880TIP3    H129597   4.028   5.672   4.773
 9880TIP3    H229598   4.059   5.535   4.830
 9881TIP3   OH229599   1.676   4.752   3.162
 9881TIP3    H129600   1.653   4.779   3.251
 9881TIP3    H229601   1.772   4.755   3.160
 9882TIP3   OH229602   3.464   0.824   6.163
 9882TIP3    H129603   3.485   0.827   6.256
 9882TIP3    H229604   3.431   0.736   6.148
 9883TIP3   OH229605   6.714   2.105   1.427
 9883TIP3    H129606   6.649   2.156   1.379
 9883TIP3    H229607   6.663   2.058   1.494
 9884TIP3   OH229608   4.376   0.952   0.270
 9884TIP3    H129609   4.465   0.931   0.299
 9884TIP3    H229610   4.389   1.009   0.194
 9885TIP3   OH229611   1.366   1.819   6.005
 9885TIP3    H129612   1.397   1.883   5.942
 9885TIP3    H229613   1.352   1.739   5.954
 9886TIP3   OH229614   1.228   5.324   3.762
 9886TIP3    H129615   1.270   5.243   3.733
 9886TIP3    H229616   1.281   5.393   3.723
 9887TIP3   OH229617   7.761   7.195   3.000
 9887TIP3    H129618   7.806   7.223   3.080
 9887TIP3    H229619   7.668   7.198   3.023
 9888TIP3   OH229620   1.855   0.813   4.050
 9888TIP3    H129621   1.842   0.905   4.071
 9888TIP3    H229622   1.826   0.804   3.959
 9889TIP3   OH229623   8.109   0.282   6.204
 9889TIP3    H129624   8.178   0.341   6.235
 9889TIP3    H229625   8.136   0.196   6.236
 9890TIP3   OH229626   3.547   2.066   5.480
 9890TIP3    H129627   3.615   2.015   5.522
 9890TIP3    H229628   3.554   2.045   5.387
 9891TIP3   OH229629   5.597   5.856   2.367
 9891TIP3    H129630   5.537   5.907   2.312
 9891TIP3    H229631   5.632   5.790   2.307
 9892TIP3   OH229632   3.705   7.493   4.496
 9892TIP3    H129633   3.701   7.576   4.447
 9892TIP3    H229634   3.749   7.515   4.578
 9893TIP3   OH229635   3.255   4.290   0.453
 9893TIP3    H129636   3.323   4.262   0.513
 9893TIP3    H229637   3.174   4.287   0.505
 9894TIP3   OH229638   6.139   3.980   2.897
 9894TIP3    H129639   6.226   4.015   2.915
 9894TIP3    H229640   6.080   4.053   2.917
 9895TIP3   OH229641   0.938   6.156   0.435
 9895TIP3    H129642   1.022   6.200   0.421
 9895TIP3    H229643   0.883   6.223   0.475
 9896TIP3   OH229644   8.277   7.008   6.440
 9896TIP3    H129645   8.248   6.916   6.438
 9896TIP3    H229646   8.356   7.009   6.387
 9897TIP3   OH229647   4.690   5.660   2.989
 9897TIP3    H129648   4.717   5.751   2.977
 9897TIP3    H229649   4.609   5.665   3.040
 9898TIP3   OH229650   0.290   5.561   6.179
 9898TIP3    H129651   0.229   5.589   6.246
 9898TIP3    H229652   0.277   5.622   6.106
 9899TIP3   OH229653   2.326   3.458   2.733
 9899TIP3    H129654   2.382   3.381   2.741
 9899TIP3    H229655   2.295   3.475   2.822
 9900TIP3   OH229656   1.595   7.019   4.113
 9900TIP3    H129657   1.651   6.994   4.187
 9900TIP3    H229658   1.514   6.969   4.126
 9901TIP3   OH229659   3.747   5.560   3.108
 9901TIP3    H129660   3.802   5.626   3.066
 9901TIP3    H229661   3.800   5.526   3.179
 9902TIP3   OH229662   4.500   1.683   0.291
 9902TIP3    H129663   4.504   1.635   0.209
 9902TIP3    H229664   4.546   1.765   0.273
 9903TIP3   OH229665   0.360   2.230   3.722
 9903TIP3    H129666   0.286   2.262   3.670
 9903TIP3    H229667   0.379   2.143   3.686
 9904TIP3   OH229668   1.058   5.168   4.102
 9904TIP3    H129669   1.064   5.121   4.018
 9904TIP3    H229670   1.132   5.135   4.153
 9905TIP3   OH229671   3.554   6.413   6.657
 9905TIP3    H129672   3.614   6.369   6.717
 9905TIP3    H229673   3.584   6.388   6.570
 9906TIP3   OH229674   4.537   2.194   5.479
 9906TIP3    H129675   4.556   2.104   5.453
 9906TIP3    H229676   4.475   2.226   5.414
 9907TIP3   OH229677   2.933   1.909   2.791
 9907TIP3    H129678   2.975   1.829   2.759
 9907TIP3    H229679   2.998   1.950   2.846
 9908TIP3   OH229680   7.856   0.155   1.957
 9908TIP3    H129681   7.852   0.075   1.904
 9908TIP3    H229682   7.816   0.222   1.902
 9909TIP3   OH229683   1.775   7.457   0.782
 9909TIP3    H129684   1.749   7.460   0.690
 9909TIP3    H229685   1.827   7.377   0.789
 9910TIP3   OH229686   6.426   3.473   1.763
 9910TIP3    H129687   6.405   3.495   1.672
 9910TIP3    H229688   6.430   3.377   1.764
 9911TIP3   OH229689   2.527   0.752   1.766
 9911TIP3    H129690   2.575   0.706   1.698
 9911TIP3    H229691   2.524   0.691   1.839
 9912TIP3   OH229692   8.103   7.203   1.217
 9912TIP3    H129693   8.091   7.242   1.131
 9912TIP3    H229694   8.022   7.155   1.234
 9913TIP3   OH229695   4.130   4.315   6.031
 9913TIP3    H129696   4.048   4.305   5.983
 9913TIP3    H229697   4.159   4.225   6.049
 9914TIP3   OH229698   3.297   2.930   4.644
 9914TIP3    H129699   3.220   2.982   4.620
 9914TIP3    H229700   3.345   2.985   4.705
 9915TIP3   OH229701   7.344   0.498   4.538
 9915TIP3    H129702   7.268   0.528   4.488
 9915TIP3    H229703   7.371   0.417   4.495
 9916TIP3   OH229704   0.127   4.965   4.963
 9916TIP3    H129705   0.136   5.036   4.899
 9916TIP3    H229706   0.182   4.895   4.929
 9917TIP3   OH229707   0.326   5.645   2.317
 9917TIP3    H129708   0.379   5.597   2.254
 9917TIP3    H229709   0.304   5.582   2.385
 9918TIP3   OH229710   1.137   2.430   1.373
 9918TIP3    H129711   1.224   2.391   1.382
 9918TIP3    H229712   1.117   2.423   1.280
 9919TIP3   OH229713   5.705   1.301   6.737
 9919TIP3    H129714   5.797   1.294   6.763
 9919TIP3    H229715   5.705   1.281   6.643
 9920TIP3   OH229716   4.069   5.690   2.660
 9920TIP3    H129717   3.976   5.672   2.671
 9920TIP3    H229718   4.071   5.776   2.616
 9921TIP3   OH229719   7.089   7.596   1.754
 9921TIP3    H129720   7.048   7.643   1.681
 9921TIP3    H229721   7.173   7.639   1.766
 9922TIP3   OH229722   1.055   0.562   2.003
 9922TIP3    H129723   1.005   0.516   2.070
 9922TIP3    H229724   1.093   0.637   2.049
 9923TIP3   OH229725   2.154   6.393   2.325
 9923TIP3    H129726   2.093   6.413   2.254
 9923TIP3    H229727   2.215   6.466   2.326
 9924TIP3   OH229728   2.231   4.206   6.051
 9924TIP3    H129729   2.156   4.205   5.992
 9924TIP3    H229730   2.232   4.296   6.086
 9925TIP3   OH229731   2.553   0.013   6.641
 9925TIP3    H129732   2.548   0.107   6.623
 9925TIP3    H229733   2.607   0.006   6.720
 9926TIP3   OH229734   1.016   3.962   3.982
 9926TIP3    H129735   0.960   4.037   4.004
 9926TIP3    H229736   0.957   3.897   3.946
 9927TIP3   OH229737   1.262   4.614   6.667
 9927TIP3    H129738   1.201   4.553   6.707
 9927TIP3    H229739   1.347   4.589   6.703
 9928TIP3   OH229740   2.112   1.197   5.965
 9928TIP3    H129741   2.031   1.214   5.917
 9928TIP3    H229742   2.174   1.168   5.898
 9929TIP3   OH229743   2.037   4.623   1.884
 9929TIP3    H129744   1.987   4.685   1.938
 9929TIP3    H229745   2.017   4.649   1.794
 9930TIP3   OH229746   4.927   3.507   0.469
 9930TIP3    H129747   4.835   3.531   0.456
 9930TIP3    H229748   4.927   3.411   0.470
 9931TIP3   OH229749   3.039   2.106   4.336
 9931TIP3    H129750   3.021   2.139   4.248
 9931TIP3    H229751   3.015   2.013   4.332
 9932TIP3   OH229752   3.621   1.184   1.761
 9932TIP3    H129753   3.573   1.107   1.731
 9932TIP3    H229754   3.555   1.238   1.804
 9933TIP3   OH229755   6.268   7.529   3.386
 9933TIP3    H129756   6.186   7.494   3.422
 9933TIP3    H229757   6.241   7.582   3.311
 9934TIP3   OH229758   2.798   0.448   1.839
 9934TIP3    H129759   2.707   0.452   1.868
 9934TIP3    H229760   2.838   0.527   1.876
 9935TIP3   OH229761   1.473   5.092   2.794
 9935TIP3    H129762   1.400   5.138   2.752
 9935TIP3    H229763   1.439   5.067   2.880
 9936TIP3   OH229764   7.954   6.281   6.465
 9936TIP3    H129765   8.044   6.278   6.498
 9936TIP3    H229766   7.931   6.189   6.452
 9937TIP3   OH229767   0.970   5.517   4.656
 9937TIP3    H129768   0.898   5.459   4.627
 9937TIP3    H229769   0.952   5.533   4.748
 9938TIP3   OH229770   8.251   2.537   3.788
 9938TIP3    H129771   8.276   2.448   3.813
 9938TIP3    H229772   8.159   2.529   3.762
 9939TIP3   OH229773   5.417   0.739   1.992
 9939TIP3    H129774   5.399   0.739   2.086
 9939TIP3    H229775   5.346   0.686   1.954
 9940TIP3   OH229776   4.080   1.255   2.362
 9940TIP3    H129777   4.049   1.214   2.281
 9940TIP3    H229778   4.029   1.212   2.431
 9941TIP3   OH229779   2.827   2.175   1.916
 9941TIP3    H129780   2.807   2.084   1.890
 9941TIP3    H229781   2.918   2.188   1.889
 9942TIP3   OH229782   3.885   2.073   5.993
 9942TIP3    H129783   3.931   2.103   5.915
 9942TIP3    H229784   3.892   2.147   6.054
 9943TIP3   OH229785   5.743   1.780   5.499
 9943TIP3    H129786   5.747   1.806   5.407
 9943TIP3    H229787   5.655   1.806   5.527
 9944TIP3   OH229788   1.744   7.734   4.493
 9944TIP3    H129789   1.724   7.811   4.545
 9944TIP3    H229790   1.734   7.762   4.402
 9945TIP3   OH229791   2.233   1.668   3.627
 9945TIP3    H129792   2.221   1.662   3.533
 9945TIP3    H229793   2.145   1.681   3.662
 9946TIP3   OH229794   2.576   1.152   3.191
 9946TIP3    H129795   2.667   1.157   3.163
 9946TIP3    H229796   2.531   1.110   3.117
 9947TIP3   OH229797   3.644   0.516   0.595
 9947TIP3    H129798   3.704   0.540   0.666
 9947TIP3    H229799   3.569   0.477   0.639
 9948TIP3   OH229800   7.005   6.913   0.891
 9948TIP3    H129801   7.074   6.928   0.955
 9948TIP3    H229802   7.035   6.957   0.812
 9949TIP3   OH229803   0.876   2.790   4.003
 9949TIP3    H129804   0.926   2.723   3.957
 9949TIP3    H229805   0.786   2.780   3.970
 9950TIP3   OH229806   6.638   1.876   3.644
 9950TIP3    H129807   6.656   1.928   3.565
 9950TIP3    H229808   6.724   1.853   3.678
 9951TIP3   OH229809   0.822   5.629   1.781
 9951TIP3    H129810   0.784   5.712   1.750
 9951TIP3    H229811   0.894   5.612   1.720
 9952TIP3   OH229812   2.810   1.300   5.735
 9952TIP3    H129813   2.814   1.352   5.816
 9952TIP3    H229814   2.782   1.362   5.668
 9953TIP3   OH229815   1.844   3.752   0.496
 9953TIP3    H129816   1.932   3.742   0.461
 9953TIP3    H229817   1.793   3.788   0.423
 9954TIP3   OH229818   7.150   5.355   6.331
 9954TIP3    H129819   7.245   5.349   6.320
 9954TIP3    H229820   7.137   5.356   6.426
 9955TIP3   OH229821   7.232   3.736   1.117
 9955TIP3    H129822   7.163   3.708   1.178
 9955TIP3    H229823   7.186   3.750   1.034
 9956TIP3   OH229824   3.096   4.206   4.438
 9956TIP3    H129825   3.164   4.257   4.394
 9956TIP3    H229826   3.103   4.233   4.530
 9957TIP3   OH229827   7.327   2.174   0.733
 9957TIP3    H129828   7.330   2.171   0.828
 9957TIP3    H229829   7.263   2.242   0.713
 9958TIP3   OH229830   5.186   4.617   4.282
 9958TIP3    H129831   5.252   4.554   4.252
 9958TIP3    H229832   5.103   4.585   4.246
 9959TIP3   OH229833   1.988   1.154   5.567
 9959TIP3    H129834   1.992   1.150   5.471
 9959TIP3    H229835   2.048   1.085   5.596
 9960TIP3   OH229836   7.213   2.283   4.759
 9960TIP3    H129837   7.281   2.222   4.731
 9960TIP3    H229838   7.220   2.357   4.698
 9961TIP3   OH229839   2.617   0.551   4.661
 9961TIP3    H129840   2.680   0.624   4.657
 9961TIP3    H229841   2.671   0.473   4.654
 9962TIP3   OH229842   4.992   7.596   1.279
 9962TIP3    H129843   4.922   7.550   1.232
 9962TIP3    H229844   5.037   7.528   1.328
 9963TIP3   OH229845   4.720   6.992   3.945
 9963TIP3    H129846   4.663   7.039   3.885
 9963TIP3    H229847   4.669   6.916   3.973
 9964TIP3   OH229848   3.581   4.913   0.108
 9964TIP3    H129849   3.532   4.974   0.052
 9964TIP3    H229850   3.657   4.889   0.055
 9965TIP3   OH229851   4.661   6.921   6.301
 9965TIP3    H129852   4.625   6.916   6.390
 9965TIP3    H229853   4.697   6.833   6.285
 9966TIP3   OH229854   7.282   4.890   0.636
 9966TIP3    H129855   7.266   4.983   0.621
 9966TIP3    H229856   7.301   4.885   0.730
 9967TIP3   OH229857   5.149   7.129   5.298
 9967TIP3    H129858   5.211   7.099   5.231
 9967TIP3    H229859   5.155   7.225   5.294
 9968TIP3   OH229860   2.461   1.797   3.634
 9968TIP3    H129861   2.371   1.766   3.630
 9968TIP3    H229862   2.476   1.817   3.726
 9969TIP3   OH229863   2.829   2.213   1.480
 9969TIP3    H129864   2.760   2.152   1.504
 9969TIP3    H229865   2.882   2.166   1.415
 9970TIP3   OH229866   0.589   2.307   0.018
 9970TIP3    H129867   0.657   2.252  -0.021
 9970TIP3    H229868   0.635   2.356   0.086
 9971TIP3   OH229869   7.278   5.420   5.088
 9971TIP3    H129870   7.242   5.389   5.171
 9971TIP3    H229871   7.204   5.464   5.045
 9972TIP3   OH229872   0.805   6.257   5.851
 9972TIP3    H129873   0.887   6.228   5.891
 9972TIP3    H229874   0.767   6.317   5.915
 9973TIP3   OH229875   1.735   4.973   0.967
 9973TIP3    H129876   1.669   4.974   1.036
 9973TIP3    H229877   1.742   5.064   0.939
 9974TIP3   OH229878   6.203   2.390   4.210
 9974TIP3    H129879   6.267   2.328   4.246
 9974TIP3    H229880   6.152   2.339   4.148
 9975TIP3   OH229881   2.942   2.967   1.763
 9975TIP3    H129882   2.899   2.976   1.678
 9975TIP3    H229883   2.918   3.046   1.811
 9976TIP3   OH229884   6.118   3.586   0.788
 9976TIP3    H129885   6.036   3.620   0.826
 9976TIP3    H229886   6.089   3.520   0.725
 9977TIP3   OH229887   7.203   6.372   6.683
 9977TIP3    H129888   7.259   6.447   6.704
 9977TIP3    H229889   7.173   6.340   6.768
 9978TIP3   OH229890   2.116   6.641   5.533
 9978TIP3    H129891   2.070   6.558   5.524
 9978TIP3    H229892   2.198   6.629   5.484
 9979TIP3   OH229893   1.188   4.010   4.216
 9979TIP3    H129894   1.120   3.994   4.151
 9979TIP3    H229895   1.187   4.105   4.228
 9980TIP3   OH229896   8.100   1.141   1.291
 9980TIP3    H129897   8.073   1.194   1.366
 9980TIP3    H229898   8.035   1.071   1.286
 9981TIP3   OH229899   4.001   1.200   4.937
 9981TIP3    H129900   4.000   1.112   4.898
 9981TIP3    H229901   3.973   1.258   4.866
 9982TIP3   OH229902   0.827   0.114   3.785
 9982TIP3    H129903   0.837   0.103   3.691
 9982TIP3    H229904   0.736   0.141   3.797
 9983TIP3   OH229905   3.382   3.895   6.528
 9983TIP3    H129906   3.369   3.830   6.458
 9983TIP3    H229907   3.311   3.958   6.516
 9984TIP3   OH229908   6.492   5.406   4.471
 9984TIP3    H129909   6.517   5.340   4.535
 9984TIP3    H229910   6.549   5.391   4.397
 9985TIP3   OH229911   0.749   5.763   3.500
 9985TIP3    H129912   0.730   5.725   3.415
 9985TIP3    H229913   0.701   5.846   3.501
 9986TIP3   OH229914   7.733   7.050   2.463
 9986TIP3    H129915   7.758   7.067   2.554
 9986TIP3    H229916   7.754   7.130   2.417
 9987TIP3   OH229917   0.618   6.227   6.346
 9987TIP3    H129918   0.709   6.228   6.317
 9987TIP3    H229919   0.602   6.137   6.372
 9988TIP3   OH229920   1.663   1.461   2.857
 9988TIP3    H129921   1.696   1.544   2.823
 9988TIP3    H229922   1.618   1.484   2.938
 9989TIP3   OH229923   2.397   5.730   5.693
 9989TIP3    H129924   2.488   5.701   5.704
 9989TIP3    H229925   2.376   5.776   5.774
 9990TIP3   OH229926   1.980   4.674   3.519
 9990TIP3    H129927   1.983   4.616   3.443
 9990TIP3    H229928   2.029   4.752   3.492
 9991TIP3   OH229929   3.065   0.246   4.256
 9991TIP3    H129930   3.122   0.293   4.317
 9991TIP3    H229931   2.979   0.285   4.270
 9992TIP3   OH229932   2.931   4.064   0.187
 9992TIP3    H129933   2.871   3.996   0.218
 9992TIP3    H229934   3.018   4.031   0.210
 9993TIP3   OH229935   0.495   2.472   5.563
 9993TIP3    H129936   0.415   2.422   5.582
 9993TIP3    H229937   0.463   2.552   5.521
 9994TIP3   OH229938   7.477   1.591   0.582
 9994TIP3    H129939   7.406   1.540   0.622
 9994TIP3    H229940   7.528   1.624   0.655
 9995TIP3   OH229941   7.874   2.326   1.508
 9995TIP3    H129942   7.853   2.408   1.465
 9995TIP3    H229943   7.866   2.260   1.440
 9996TIP3   OH229944   7.451   2.624   5.772
 9996TIP3    H129945   7.488   2.579   5.696
 9996TIP3    H229946   7.514   2.693   5.792
 9997TIP3   OH229947   5.869   7.652   3.352
 9997TIP3    H129948   5.785   7.615   3.380
 9997TIP3    H229949   5.882   7.618   3.264
 9998TIP3   OH229950   5.401   0.168   3.147
 9998TIP3    H129951   5.382   0.121   3.065
 9998TIP3    H229952   5.491   0.197   3.138
 9999TIP3   OH229953   6.601   3.769   4.169
 9999TIP3    H129954   6.587   3.826   4.244
 9999TIP3    H229955   6.565   3.818   4.095
10000TIP3   OH229956   2.606   2.013   2.583
10000TIP3    H129957   2.522   2.017   2.538
10000TIP3    H229958   2.644   2.100   2.572
10001TIP3   OH229959   1.013   6.518   2.459
10001TIP3    H129960   1.057   6.475   2.386
10001TIP3    H229961   0.920   6.507   2.440
10002TIP3   OH229962   4.369   3.515   5.194
10002TIP3    H129963   4.283   3.532   5.233
10002TIP3    H229964   4.419   3.472   5.263
10003TIP3   OH229965   1.094   5.255   0.557
10003TIP3    H129966   1.169   5.222   0.608
10003TIP3    H229967   1.113   5.229   0.467
10004TIP3   OH229968   4.721   4.401   3.390
10004TIP3    H129969   4.773   4.474   3.423
10004TIP3    H229970   4.723   4.411   3.294
10005TIP3   OH229971   5.353   3.680   4.475
10005TIP3    H129972   5.325   3.668   4.565
10005TIP3    H229973   5.273   3.705   4.428
10006TIP3   OH229974   4.566   0.609   2.533
10006TIP3    H129975   4.550   0.703   2.539
10006TIP3    H229976   4.480   0.571   2.516
10007TIP3   OH229977   2.722   1.385   6.665
10007TIP3    H129978   2.694   1.297   6.693
10007TIP3    H229979   2.798   1.369   6.609
10008TIP3   OH229980   0.381   4.732   1.293
10008TIP3    H129981   0.459   4.679   1.312
10008TIP3    H229982   0.339   4.742   1.379
10009TIP3   OH229983   3.947   1.129   1.249
10009TIP3    H129984   3.978   1.039   1.241
10009TIP3    H229985   3.999   1.178   1.185
10010TIP3   OH229986   0.735   0.284   3.198
10010TIP3    H129987   0.722   0.192   3.176
10010TIP3    H229988   0.665   0.330   3.153
10011TIP3   OH229989   6.607   2.939   0.027
10011TIP3    H129990   6.674   2.966   0.090
10011TIP3    H229991   6.654   2.933  -0.056
10012TIP3   OH229992   4.244   3.685   5.400
10012TIP3    H129993   4.278   3.773   5.389
10012TIP3    H229994   4.319   3.633   5.429
10013TIP3   OH229995   3.170   0.833   3.052
10013TIP3    H129996   3.088   0.883   3.049
10013TIP3    H229997   3.163   0.769   2.982
10014TIP3   OH229998   6.656   1.710   5.345
10014TIP3    H129999   6.745   1.674   5.353
10014TIP3    H230000   6.653   1.780   5.410
10015TIP3   OH230001   7.944   6.361   4.699
10015TIP3    H130002   7.951   6.436   4.758
10015TIP3    H230003   8.028   6.360   4.652
10016TIP3   OH230004   2.757   7.444   5.258
10016TIP3    H130005   2.713   7.517   5.303
10016TIP3    H230006   2.847   7.447   5.290
10017TIP3   OH230007   2.904   4.718   5.492
10017TIP3    H130008   2.866   4.775   5.559
10017TIP3    H230009   2.863   4.633   5.505
10018TIP3   OH230010   2.311   4.594   2.654
10018TIP3    H130011   2.319   4.689   2.665
10018TIP3    H230012   2.356   4.576   2.571
10019TIP3   OH230013   0.985   2.817   5.317
10019TIP3    H130014   1.060   2.862   5.356
10019TIP3    H230015   0.986   2.730   5.356
10020TIP3   OH230016   7.061   7.717   0.158
10020TIP3    H130017   7.102   7.650   0.102
10020TIP3    H230018   7.072   7.799   0.108
10021TIP3   OH230019   8.188   6.308   4.605
10021TIP3    H130020   8.255   6.243   4.625
10021TIP3    H230021   8.237   6.385   4.577
10022TIP3   OH230022   5.789   2.748   3.326
10022TIP3    H130023   5.838   2.830   3.334
10022TIP3    H230024   5.741   2.756   3.244
10023TIP3   OH230025   2.836   1.227   3.532
10023TIP3    H130026   2.818   1.309   3.487
10023TIP3    H230027   2.751   1.201   3.568
10024TIP3   OH230028   2.703   1.287   5.351
10024TIP3    H130029   2.644   1.302   5.425
10024TIP3    H230030   2.691   1.363   5.294
10025TIP3   OH230031   6.179   7.534   2.172
10025TIP3    H130032   6.200   7.440   2.167
10025TIP3    H230033   6.172   7.552   2.265
10026TIP3   OH230034   2.993   6.435   0.518
10026TIP3    H130035   3.041   6.517   0.504
10026TIP3    H230036   3.007   6.415   0.611
10027TIP3   OH230037   5.566   0.930   2.869
10027TIP3    H130038   5.634   0.978   2.917
10027TIP3    H230039   5.511   0.998   2.831
10028TIP3   OH230040   7.338   1.215   2.201
10028TIP3    H130041   7.281   1.203   2.277
10028TIP3    H230042   7.398   1.285   2.226
10029TIP3   OH230043   7.030   7.272   0.880
10029TIP3    H130044   7.114   7.284   0.926
10029TIP3    H230045   7.055   7.249   0.790
10030TIP3   OH230046   0.359   2.967   6.106
10030TIP3    H130047   0.410   2.980   6.026
10030TIP3    H230048   0.425   2.957   6.175
10031TIP3   OH230049   6.225   4.183   6.179
10031TIP3    H130050   6.216   4.088   6.174
10031TIP3    H230051   6.186   4.206   6.264
10032TIP3   OH230052   0.776   6.872   0.507
10032TIP3    H130053   0.691   6.836   0.533
10032TIP3    H230054   0.838   6.837   0.571
10033TIP3   OH230055   7.590   7.790   5.724
10033TIP3    H130056   7.646   7.724   5.765
10033TIP3    H230057   7.562   7.846   5.796
10034TIP3   OH230058   0.709   4.242   5.774
10034TIP3    H130059   0.735   4.299   5.847
10034TIP3    H230060   0.630   4.283   5.739
10035TIP3   OH230061   2.240   3.081   2.791
10035TIP3    H130062   2.257   3.010   2.730
10035TIP3    H230063   2.228   3.038   2.876
10036TIP3   OH230064   4.255   0.040   4.780
10036TIP3    H130065   4.259   0.068   4.689
10036TIP3    H230066   4.205   0.108   4.824
10037TIP3   OH230067   1.131   0.502   2.665
10037TIP3    H130068   1.114   0.517   2.758
10037TIP3    H230069   1.199   0.567   2.643
10038TIP3   OH230070   3.644   3.512   6.251
10038TIP3    H130071   3.637   3.496   6.157
10038TIP3    H230072   3.671   3.427   6.287
10039TIP3   OH230073   6.046   1.586   4.152
10039TIP3    H130074   6.030   1.573   4.245
10039TIP3    H230075   5.982   1.652   4.126
10040TIP3   OH230076   5.896   3.768   2.529
10040TIP3    H130077   5.952   3.827   2.479
10040TIP3    H230078   5.956   3.722   2.588
10041TIP3   OH230079   5.247   2.626   4.993
10041TIP3    H130080   5.287   2.609   4.908
10041TIP3    H230081   5.321   2.635   5.053
10042TIP3   OH230082   7.848   0.586   2.517
10042TIP3    H130083   7.836   0.497   2.484
10042TIP3    H230084   7.832   0.579   2.611
10043TIP3   OH230085   6.852   0.517   6.162
10043TIP3    H130086   6.826   0.535   6.071
10043TIP3    H230087   6.874   0.603   6.198
10044TIP3   OH230088   6.549   1.383   5.086
10044TIP3    H130089   6.455   1.399   5.089
10044TIP3    H230090   6.564   1.346   4.999
10045TIP3   OH230091   4.553   5.382   6.304
10045TIP3    H130092   4.601   5.307   6.267
10045TIP3    H230093   4.594   5.459   6.263
10046TIP3   OH230094   0.751   0.577   3.646
10046TIP3    H130095   0.670   0.579   3.698
10046TIP3    H230096   0.749   0.492   3.603
10047TIP3   OH230097   2.075   0.925   1.642
10047TIP3    H130098   2.037   0.867   1.709
10047TIP3    H230099   2.162   0.889   1.626
10048TIP3   OH230100   3.831   0.884   4.683
10048TIP3    H130101   3.911   0.855   4.641
10048TIP3    H230102   3.845   0.868   4.776
10049TIP3   OH230103   4.909   0.902   4.602
10049TIP3    H130104   4.837   0.855   4.560
10049TIP3    H230105   4.927   0.975   4.544
10050TIP3   OH230106   4.162   3.813   1.921
10050TIP3    H130107   4.097   3.836   1.855
10050TIP3    H230108   4.111   3.772   1.991
10051TIP3   OH230109   6.726   6.549   6.672
10051TIP3    H130110   6.674   6.561   6.592
10051TIP3    H230111   6.788   6.480   6.650
10052TIP3   OH230112   2.165   7.160   1.864
10052TIP3    H130113   2.107   7.217   1.915
10052TIP3    H230114   2.106   7.102   1.816
10053TIP3   OH230115   5.645   6.573   6.549
10053TIP3    H130116   5.659   6.513   6.475
10053TIP3    H230117   5.578   6.530   6.602
10054TIP3   OH230118   4.714   6.113   4.984
10054TIP3    H130119   4.725   6.128   5.078
10054TIP3    H230120   4.625   6.079   4.975
10055TIP3   OH230121   1.032   1.546   1.880
10055TIP3    H130122   1.014   1.467   1.929
10055TIP3    H230123   1.063   1.515   1.794
10056TIP3   OH230124   0.547  -0.039   1.078
10056TIP3    H130125   0.540  -0.102   1.007
10056TIP3    H230126   0.621   0.017   1.054
10057TIP3   OH230127   2.225   0.375   4.614
10057TIP3    H130128   2.236   0.465   4.645
10057TIP3    H230129   2.257   0.321   4.686
10058TIP3   OH230130   7.986   3.835   5.717
10058TIP3    H130131   7.966   3.755   5.766
10058TIP3    H230132   8.063   3.871   5.763
10059TIP3   OH230133   5.065   7.659   1.551
10059TIP3    H130134   5.013   7.679   1.473
10059TIP3    H230135   5.110   7.741   1.572
10060TIP3   OH230136   5.825   4.616   0.758
10060TIP3    H130137   5.876   4.660   0.690
10060TIP3    H230138   5.876   4.537   0.778
10061TIP3   OH230139   7.709   3.962   5.549
10061TIP3    H130140   7.654   3.920   5.615
10061TIP3    H230141   7.792   3.978   5.594
10062TIP3   OH230142   1.170   4.175   1.048
10062TIP3    H130143   1.222   4.232   0.992
10062TIP3    H230144   1.151   4.099   0.993
10063TIP3   OH230145   6.768   6.476   6.236
10063TIP3    H130146   6.858   6.481   6.206
10063TIP3    H230147   6.726   6.555   6.202
10064TIP3   OH230148   5.635   7.110   5.838
10064TIP3    H130149   5.730   7.094   5.834
10064TIP3    H230150   5.601   7.068   5.759
10065TIP3   OH230151   1.627   4.352   2.907
10065TIP3    H130152   1.558   4.413   2.932
10065TIP3    H230153   1.669   4.328   2.989
10066TIP3   OH230154   6.121   4.478   3.536
10066TIP3    H130155   6.109   4.453   3.627
10066TIP3    H230156   6.197   4.535   3.536
10067TIP3   OH230157   2.022   6.536   0.549
10067TIP3    H130158   2.042   6.487   0.469
10067TIP3    H230159   2.106   6.545   0.594
10068TIP3   OH230160   1.764   1.507   5.103
10068TIP3    H130161   1.788   1.464   5.021
10068TIP3    H230162   1.671   1.528   5.093
10069TIP3   OH230163   1.649   0.906   5.506
10069TIP3    H130164   1.725   0.870   5.461
10069TIP3    H230165   1.686   0.960   5.576
10070TIP3   OH230166   6.392   0.525   0.687
10070TIP3    H130167   6.453   0.589   0.723
10070TIP3    H230168   6.414   0.520   0.594
10071TIP3   OH230169   3.643   6.822   2.420
10071TIP3    H130170   3.595   6.832   2.503
10071TIP3    H230171   3.618   6.735   2.389
10072TIP3   OH230172   0.865   5.452   2.117
10072TIP3    H130173   0.943   5.506   2.129
10072TIP3    H230174   0.886   5.369   2.159
10073TIP3   OH230175   3.542   7.582   6.434
10073TIP3    H130176   3.456   7.546   6.455
10073TIP3    H230177   3.545   7.666   6.480
10074TIP3   OH230178   1.888   1.609   4.052
10074TIP3    H130179   1.794   1.614   4.069
10074TIP3    H230180   1.926   1.676   4.108
10075TIP3   OH230181   7.428   2.243   0.081
10075TIP3    H130182   7.413   2.283  -0.005
10075TIP3    H230183   7.440   2.318   0.140
10076TIP3   OH230184   6.515   0.061   5.002
10076TIP3    H130185   6.491   0.076   5.094
10076TIP3    H230186   6.434   0.073   4.953
10077TIP3   OH230187   3.840   6.362   3.096
10077TIP3    H130188   3.930   6.359   3.127
10077TIP3    H230189   3.847   6.366   3.001
10078TIP3   OH230190   0.929   4.238   3.238
10078TIP3    H130191   0.925   4.238   3.142
10078TIP3    H230192   0.842   4.210   3.266
10079TIP3   OH230193   1.970   4.484   3.271
10079TIP3    H130194   1.898   4.427   3.244
10079TIP3    H230195   2.047   4.447   3.227
10080TIP3   OH230196   3.183   5.016   6.280
10080TIP3    H130197   3.266   4.971   6.296
10080TIP3    H230198   3.151   4.978   6.197
10081TIP3   OH230199   6.320   7.494   4.801
10081TIP3    H130200   6.239   7.451   4.828
10081TIP3    H230201   6.291   7.571   4.753
10082TIP3   OH230202   4.661   4.096   0.961
10082TIP3    H130203   4.748   4.063   0.939
10082TIP3    H230204   4.612   4.090   0.879
10083TIP3   OH230205   6.020   0.461   3.195
10083TIP3    H130206   6.059   0.507   3.269
10083TIP3    H230207   6.070   0.490   3.119
10084TIP3   OH230208   2.339   6.720  -0.019
10084TIP3    H130209   2.322   6.633  -0.056
10084TIP3    H230210   2.367   6.702   0.071
10085TIP3   OH230211   2.775   3.807   0.211
10085TIP3    H130212   2.692   3.824   0.167
10085TIP3    H230213   2.811   3.730   0.166
10086TIP3   OH230214   8.226   4.170   0.773
10086TIP3    H130215   8.156   4.225   0.807
10086TIP3    H230216   8.257   4.216   0.695
10087TIP3   OH230217   6.049   6.197   5.001
10087TIP3    H130218   6.143   6.184   5.007
10087TIP3    H230219   6.011   6.130   5.057
10088TIP3   OH230220   8.156   0.156   4.628
10088TIP3    H130221   8.204   0.096   4.686
10088TIP3    H230222   8.199   0.241   4.640
10089TIP3   OH230223   1.354   5.812   2.203
10089TIP3    H130224   1.352   5.774   2.291
10089TIP3    H230225   1.262   5.831   2.183
10090TIP3   OH230226   6.210   4.884   5.092
10090TIP3    H130227   6.205   4.910   5.184
10090TIP3    H230228   6.177   4.959   5.044
10091TIP3   OH230229   2.863   1.650   1.379
10091TIP3    H130230   2.914   1.570   1.374
10091TIP3    H230231   2.845   1.661   1.473
10092TIP3   OH230232   8.114   5.218   3.520
10092TIP3    H130233   8.023   5.196   3.541
10092TIP3    H230234   8.108   5.299   3.470
10093TIP3   OH230235   1.307   1.232   3.454
10093TIP3    H130236   1.363   1.292   3.404
10093TIP3    H230237   1.358   1.209   3.531
10094TIP3   OH230238   0.024   2.084   3.853
10094TIP3    H130239  -0.059   2.086   3.805
10094TIP3    H230240   0.091   2.080   3.784
10095TIP3   OH230241   4.003   1.145   2.128
10095TIP3    H130242   3.914   1.141   2.092
10095TIP3    H230243   4.057   1.101   2.063
10096TIP3   OH230244   3.828   7.493   6.526
10096TIP3    H130245   3.745   7.530   6.553
10096TIP3    H230246   3.859   7.552   6.457
10097TIP3   OH230247   2.119   0.499   5.545
10097TIP3    H130248   2.182   0.450   5.596
10097TIP3    H230249   2.034   0.459   5.565
10098TIP3   OH230250   1.727   0.182   1.720
10098TIP3    H130251   1.768   0.257   1.676
10098TIP3    H230252   1.674   0.140   1.652
10099TIP3   OH230253   1.012   7.789   2.287
10099TIP3    H130254   0.963   7.730   2.229
10099TIP3    H230255   0.975   7.775   2.373
10100TIP3   OH230256   1.208   5.202   2.425
10100TIP3    H130257   1.125   5.208   2.379
10100TIP3    H230258   1.221   5.108   2.440
10101TIP3   OH230259   2.560   1.034   1.742
10101TIP3    H130260   2.642   1.018   1.696
10101TIP3    H230261   2.524   0.947   1.757
10102TIP3   OH230262   6.478   0.013   4.592
10102TIP3    H130263   6.542   0.070   4.634
10102TIP3    H230264   6.395   0.059   4.602
10103TIP3   OH230265   5.784   6.475   2.374
10103TIP3    H130266   5.863   6.446   2.328
10103TIP3    H230267   5.712   6.436   2.324
10104TIP3   OH230268   1.099   7.419   4.616
10104TIP3    H130269   1.117   7.510   4.590
10104TIP3    H230270   1.004   7.411   4.613
10105TIP3   OH230271   3.609   6.567   6.014
10105TIP3    H130272   3.574   6.554   6.102
10105TIP3    H230273   3.687   6.512   6.010
10106TIP3   OH230274   2.261   5.245   0.145
10106TIP3    H130275   2.247   5.173   0.207
10106TIP3    H230276   2.180   5.296   0.149
10107TIP3   OH230277   2.994   7.274   1.383
10107TIP3    H130278   3.003   7.367   1.363
10107TIP3    H230279   3.075   7.251   1.428
10108TIP3   OH230280   3.220   3.717   6.358
10108TIP3    H130281   3.261   3.649   6.412
10108TIP3    H230282   3.191   3.670   6.279
10109TIP3   OH230283   8.192   0.775   3.886
10109TIP3    H130284   8.211   0.715   3.815
10109TIP3    H230285   8.100   0.761   3.907
10110TIP3   OH230286   2.296   7.688   5.287
10110TIP3    H130287   2.283   7.783   5.284
10110TIP3    H230288   2.319   7.670   5.378
10111TIP3   OH230289   4.435   4.882   3.618
10111TIP3    H130290   4.383   4.814   3.576
10111TIP3    H230291   4.506   4.899   3.557
10112TIP3   OH230292   7.056   4.802   0.517
10112TIP3    H130293   7.048   4.894   0.491
10112TIP3    H230294   7.138   4.799   0.566
10113TIP3   OH230295   7.567   0.143   4.798
10113TIP3    H130296   7.634   0.075   4.797
10113TIP3    H230297   7.578   0.187   4.882
10114TIP3   OH230298   3.253   3.724   1.101
10114TIP3    H130299   3.243   3.646   1.156
10114TIP3    H230300   3.206   3.792   1.149
10115TIP3   OH230301   5.686   6.780   3.347
10115TIP3    H130302   5.700   6.696   3.304
10115TIP3    H230303   5.694   6.761   3.441
10116TIP3   OH230304   7.848   5.111   6.734
10116TIP3    H130305   7.869   5.044   6.669
10116TIP3    H230306   7.931   5.153   6.753
10117TIP3   OH230307   5.543   2.297   6.526
10117TIP3    H130308   5.604   2.371   6.531
10117TIP3    H230309   5.480   2.323   6.458
10118TIP3   OH230310   7.539   3.197   4.748
10118TIP3    H130311   7.544   3.107   4.715
10118TIP3    H230312   7.511   3.187   4.839
10119TIP3   OH230313   3.854   6.708   2.785
10119TIP3    H130314   3.786   6.776   2.789
10119TIP3    H230315   3.917   6.734   2.853
10120TIP3   OH230316   7.142   5.060   3.800
10120TIP3    H130317   7.162   5.154   3.792
10120TIP3    H230318   7.113   5.035   3.712
10121TIP3   OH230319   0.666   1.946   5.007
10121TIP3    H130320   0.682   1.898   5.088
10121TIP3    H230321   0.638   2.033   5.036
10122TIP3   OH230322   8.033   0.498   1.374
10122TIP3    H130323   8.002   0.578   1.414
10122TIP3    H230324   7.992   0.428   1.424
10123TIP3   OH230325   3.128   6.694   3.976
10123TIP3    H130326   3.052   6.637   3.966
10123TIP3    H230327   3.189   6.644   4.031
10124TIP3   OH230328   2.305   7.725   1.751
10124TIP3    H130329   2.374   7.686   1.805
10124TIP3    H230330   2.346   7.802   1.712
10125TIP3   OH230331   8.175   4.128   1.736
10125TIP3    H130332   8.264   4.157   1.714
10125TIP3    H230333   8.156   4.170   1.820
10126TIP3   OH230334   1.949   7.035   3.065
10126TIP3    H130335   1.876   6.974   3.065
10126TIP3    H230336   1.979   7.037   3.156
10127TIP3   OH230337   3.924   5.263   3.882
10127TIP3    H130338   3.970   5.182   3.861
10127TIP3    H230339   3.838   5.253   3.839
10128TIP3   OH230340   6.941   2.777   4.653
10128TIP3    H130341   6.944   2.862   4.697
10128TIP3    H230342   6.848   2.761   4.638
10129TIP3   OH230343   7.462   4.063   5.730
10129TIP3    H130344   7.475   3.969   5.725
10129TIP3    H230345   7.489   4.086   5.819
10130TIP3   OH230346   1.899   5.747   5.167
10130TIP3    H130347   1.880   5.721   5.077
10130TIP3    H230348   1.833   5.702   5.219
10131TIP3   OH230349   8.099   5.459   5.105
10131TIP3    H130350   8.183   5.480   5.065
10131TIP3    H230351   8.105   5.493   5.194
10132TIP3   OH230352   1.911   0.036   2.705
10132TIP3    H130353   1.929   0.087   2.785
10132TIP3    H230354   1.817   0.048   2.690
10133TIP3   OH230355   1.037   6.483   5.213
10133TIP3    H130356   1.120   6.472   5.261
10133TIP3    H230357   0.971   6.447   5.272
10134TIP3   OH230358   3.378   4.667   3.770
10134TIP3    H130359   3.405   4.608   3.839
10134TIP3    H230360   3.288   4.692   3.794
10135TIP3   OH230361   6.913   1.783   2.342
10135TIP3    H130362   6.917   1.848   2.413
10135TIP3    H230363   6.894   1.835   2.264
10136TIP3   OH230364   6.396   3.132   0.052
10136TIP3    H130365   6.457   3.059   0.045
10136TIP3    H230366   6.361   3.143  -0.036
10137TIP3   OH230367   5.544   2.934   5.980
10137TIP3    H130368   5.574   2.866   6.040
10137TIP3    H230369   5.477   2.981   6.028
10138TIP3   OH230370   6.351   1.634   1.791
10138TIP3    H130371   6.423   1.581   1.757
10138TIP3    H230372   6.313   1.676   1.713
10139TIP3   OH230373   0.975   3.602   0.934
10139TIP3    H130374   1.042   3.576   0.871
10139TIP3    H230375   0.940   3.684   0.899
10140TIP3   OH230376   3.351   6.188   0.035
10140TIP3    H130377   3.379   6.208  -0.054
10140TIP3    H230378   3.410   6.238   0.091
10141TIP3   OH230379   2.046   7.304   2.110
10141TIP3    H130380   1.986   7.319   2.182
10141TIP3    H230381   2.005   7.235   2.058
10142TIP3   OH230382   7.146   5.736   2.311
10142TIP3    H130383   7.165   5.794   2.237
10142TIP3    H230384   7.064   5.769   2.347
10143TIP3   OH230385   0.536   3.068   6.698
10143TIP3    H130386   0.569   3.088   6.610
10143TIP3    H230387   0.442   3.081   6.692
10144TIP3   OH230388   5.522   0.045   6.411
10144TIP3    H130389   5.444   0.041   6.466
10144TIP3    H230390   5.586  -0.010   6.456
10145TIP3   OH230391   6.330   5.749   1.683
10145TIP3    H130392   6.365   5.662   1.661
10145TIP3    H230393   6.377   5.809   1.625
10146TIP3   OH230394   0.341   7.630   1.061
10146TIP3    H130395   0.293   7.561   1.016
10146TIP3    H230396   0.283   7.659   1.131
10147TIP3   OH230397   1.581   5.937   1.882
10147TIP3    H130398   1.664   5.926   1.836
10147TIP3    H230399   1.548   5.847   1.894
10148TIP3   OH230400   2.363   4.646   1.357
10148TIP3    H130401   2.334   4.692   1.435
10148TIP3    H230402   2.355   4.553   1.378
10149TIP3   OH230403   0.262   7.834   3.152
10149TIP3    H130404   0.244   7.744   3.125
10149TIP3    H230405   0.355   7.833   3.177
10150TIP3   OH230406   8.016   3.689   5.464
10150TIP3    H130407   8.024   3.764   5.522
10150TIP3    H230408   8.105   3.673   5.433
10151TIP3   OH230409   1.324   4.355   3.484
10151TIP3    H130410   1.376   4.298   3.541
10151TIP3    H230411   1.233   4.336   3.509
10152TIP3   OH230412   5.791   0.600   4.508
10152TIP3    H130413   5.770   0.682   4.552
10152TIP3    H230414   5.883   0.585   4.529
10153TIP3   OH230415   5.935   6.564   4.862
10153TIP3    H130416   5.878   6.630   4.822
10153TIP3    H230417   5.879   6.519   4.925
10154TIP3   OH230418   3.537   3.763   6.694
10154TIP3    H130419   3.550   3.832   6.760
10154TIP3    H230420   3.489   3.807   6.623
10155TIP3   OH230421   7.820   7.747   1.511
10155TIP3    H130422   7.833   7.743   1.605
10155TIP3    H230423   7.908   7.747   1.474
10156TIP3   OH230424   4.224   6.737   2.161
10156TIP3    H130425   4.179   6.703   2.238
10156TIP3    H230426   4.159   6.731   2.091
10157TIP3   OH230427   6.632   1.471   1.225
10157TIP3    H130428   6.707   1.436   1.273
10157TIP3    H230429   6.560   1.411   1.245
10158TIP3   OH230430   7.153   3.099   6.011
10158TIP3    H130431   7.109   3.148   6.081
10158TIP3    H230432   7.083   3.077   5.949
10159TIP3   OH230433   8.014   1.670   4.068
10159TIP3    H130434   8.090   1.614   4.082
10159TIP3    H230435   7.974   1.635   3.988
10160TIP3   OH230436   6.037   3.222   4.780
10160TIP3    H130437   6.021   3.308   4.742
10160TIP3    H230438   5.965   3.167   4.747
10161TIP3   OH230439   7.358   6.458   6.246
10161TIP3    H130440   7.440   6.505   6.259
10161TIP3    H230441   7.336   6.423   6.332
10162TIP3   OH230442   0.215   0.757   5.525
10162TIP3    H130443   0.163   0.680   5.500
10162TIP3    H230444   0.264   0.779   5.446
10163TIP3   OH230445   2.105   3.189   4.159
10163TIP3    H130446   2.055   3.136   4.221
10163TIP3    H230447   2.051   3.266   4.145
10164TIP3   OH230448   4.106   6.310   6.637
10164TIP3    H130449   4.038   6.245   6.619
10164TIP3    H230450   4.063   6.376   6.691
10165TIP3   OH230451   4.852   4.025   4.557
10165TIP3    H130452   4.920   4.089   4.577
10165TIP3    H230453   4.822   4.048   4.469
10166TIP3   OH230454   7.559   3.251   3.170
10166TIP3    H130455   7.579   3.325   3.227
10166TIP3    H230456   7.639   3.198   3.170
10167TIP3   OH230457   0.801   7.590   4.817
10167TIP3    H130458   0.888   7.593   4.855
10167TIP3    H230459   0.810   7.530   4.743
10168TIP3   OH230460   4.918   2.464   4.804
10168TIP3    H130461   4.851   2.398   4.785
10168TIP3    H230462   4.968   2.471   4.723
10169TIP3   OH230463   6.691   3.059   2.996
10169TIP3    H130464   6.621   3.106   3.041
10169TIP3    H230465   6.771   3.108   3.017
10170TIP3   OH230466   7.095   2.230   5.804
10170TIP3    H130467   7.134   2.298   5.749
10170TIP3    H230468   7.040   2.278   5.866
10171TIP3   OH230469   3.325   1.246   3.436
10171TIP3    H130470   3.259   1.182   3.462
10171TIP3    H230471   3.351   1.288   3.518
10172TIP3   OH230472   7.292   2.643   2.169
10172TIP3    H130473   7.245   2.635   2.086
10172TIP3    H230474   7.233   2.602   2.233
10173TIP3   OH230475   1.228   5.476   2.814
10173TIP3    H130476   1.283   5.451   2.740
10173TIP3    H230477   1.285   5.469   2.890
10174TIP3   OH230478   7.056   6.618   1.682
10174TIP3    H130479   7.021   6.653   1.764
10174TIP3    H230480   7.150   6.614   1.696
10175TIP3   OH230481   3.811   6.811   1.716
10175TIP3    H130482   3.752   6.766   1.655
10175TIP3    H230483   3.897   6.774   1.697
10176TIP3   OH230484   7.522   2.655   5.119
10176TIP3    H130485   7.524   2.560   5.106
10176TIP3    H230486   7.430   2.678   5.122
10177TIP3   OH230487   3.128   0.049   2.734
10177TIP3    H130488   3.124  -0.014   2.663
10177TIP3    H230489   3.041   0.044   2.775
10178TIP3   OH230490   0.841   0.949   2.423
10178TIP3    H130491   0.921   0.968   2.472
10178TIP3    H230492   0.794   0.885   2.477
10179TIP3   OH230493   3.145   1.622   1.022
10179TIP3    H130494   3.096   1.592   0.946
10179TIP3    H230495   3.165   1.543   1.072
10180TIP3   OH230496   6.858   4.073   1.612
10180TIP3    H130497   6.903   4.153   1.640
10180TIP3    H230498   6.918   4.033   1.549
10181TIP3   OH230499   0.851   6.356   4.643
10181TIP3    H130500   0.912   6.381   4.574
10181TIP3    H230501   0.872   6.414   4.716
10182TIP3   OH230502   2.557   5.006   2.807
10182TIP3    H130503   2.521   5.021   2.894
10182TIP3    H230504   2.491   4.952   2.763
10183TIP3   OH230505   2.117   1.877   5.570
10183TIP3    H130506   2.068   1.948   5.528
10183TIP3    H230507   2.195   1.919   5.606
10184TIP3   OH230508   2.364   6.624   5.384
10184TIP3    H130509   2.364   6.549   5.324
10184TIP3    H230510   2.435   6.680   5.353
10185TIP3   OH230511   6.237   1.735  -0.016
10185TIP3    H130512   6.308   1.686  -0.057
10185TIP3    H230513   6.202   1.677   0.051
10186TIP3   OH230514   1.127   4.621   4.494
10186TIP3    H130515   1.179   4.560   4.545
10186TIP3    H230516   1.060   4.567   4.452
10187TIP3   OH230517   3.795   1.099   0.364
10187TIP3    H130518   3.747   1.169   0.409
10187TIP3    H230519   3.726   1.045   0.326
10188TIP3   OH230520   1.324   0.045   0.311
10188TIP3    H130521   1.405  -0.006   0.319
10188TIP3    H230522   1.281   0.010   0.233
10189TIP3   OH230523   4.003   0.868   1.113
10189TIP3    H130524   4.068   0.860   1.043
10189TIP3    H230525   3.920   0.850   1.070
10190TIP3   OH230526   8.160   3.630   3.639
10190TIP3    H130527   8.232   3.693   3.636
10190TIP3    H230528   8.199   3.547   3.615
10191TIP3   OH230529   1.957   1.711   6.447
10191TIP3    H130530   1.974   1.698   6.540
10191TIP3    H230531   1.898   1.640   6.423
10192TIP3   OH230532   7.567   3.390   4.175
10192TIP3    H130533   7.578   3.361   4.266
10192TIP3    H230534   7.569   3.485   4.180
10193TIP3   OH230535   5.138   7.067   4.047
10193TIP3    H130536   5.199   7.131   4.010
10193TIP3    H230537   5.179   6.982   4.030
10194TIP3   OH230538   3.949   2.248   0.103
10194TIP3    H130539   3.860   2.216   0.086
10194TIP3    H230540   3.944   2.342   0.088
10195TIP3   OH230541   1.496   7.224   5.675
10195TIP3    H130542   1.564   7.173   5.719
10195TIP3    H230543   1.498   7.193   5.585
10196TIP3   OH230544   5.163   3.967   3.511
10196TIP3    H130545   5.112   3.892   3.542
10196TIP3    H230546   5.147   4.036   3.575
10197TIP3   OH230547   0.899   5.131   4.494
10197TIP3    H130548   0.972   5.070   4.483
10197TIP3    H230549   0.939   5.210   4.531
10198TIP3   OH230550   4.221   2.448   6.435
10198TIP3    H130551   4.228   2.531   6.481
10198TIP3    H230552   4.174   2.391   6.496
10199TIP3   OH230553   0.520   3.357   1.416
10199TIP3    H130554   0.594   3.305   1.385
10199TIP3    H230555   0.474   3.299   1.478
10200TIP3   OH230556   7.401   0.876   0.218
10200TIP3    H130557   7.439   0.823   0.288
10200TIP3    H230558   7.477   0.912   0.171
10201TIP3   OH230559   6.260   6.665   1.519
10201TIP3    H130560   6.182   6.644   1.467
10201TIP3    H230561   6.333   6.638   1.464
10202TIP3   OH230562   0.155   7.364   5.053
10202TIP3    H130563   0.128   7.418   5.127
10202TIP3    H230564   0.073   7.344   5.007
10203TIP3   OH230565   5.630   7.489   4.683
10203TIP3    H130566   5.698   7.479   4.749
10203TIP3    H230567   5.677   7.515   4.604
10204TIP3   OH230568   5.342   2.163   2.377
10204TIP3    H130569   5.407   2.214   2.425
10204TIP3    H230570   5.265   2.162   2.433
10205TIP3   OH230571   1.885   2.287   2.073
10205TIP3    H130572   1.839   2.282   2.157
10205TIP3    H230573   1.831   2.346   2.020
10206TIP3   OH230574   1.579   7.567   2.306
10206TIP3    H130575   1.587   7.563   2.402
10206TIP3    H230576   1.642   7.503   2.274
10207TIP3   OH230577   4.863   3.496   3.665
10207TIP3    H130578   4.949   3.455   3.661
10207TIP3    H230579   4.833   3.481   3.755
10208TIP3   OH230580   4.275   1.411   1.358
10208TIP3    H130581   4.228   1.448   1.284
10208TIP3    H230582   4.233   1.449   1.435
10209TIP3   OH230583   5.315   0.141   2.280
10209TIP3    H130584   5.378   0.132   2.352
10209TIP3    H230585   5.241   0.187   2.320
10210TIP3   OH230586   0.484   2.499   2.546
10210TIP3    H130587   0.397   2.459   2.547
10210TIP3    H230588   0.473   2.577   2.491
10211TIP3   OH230589   0.310   5.762   6.007
10211TIP3    H130590   0.274   5.850   6.015
10211TIP3    H230591   0.374   5.768   5.937
10212TIP3   OH230592   3.214   3.339   4.907
10212TIP3    H130593   3.232   3.433   4.900
10212TIP3    H230594   3.147   3.333   4.974
10213TIP3   OH230595   3.553   7.495   0.344
10213TIP3    H130596   3.634   7.544   0.328
10213TIP3    H230597   3.496   7.556   0.389
10214TIP3   OH230598   4.473   7.056   6.115
10214TIP3    H130599   4.492   7.139   6.070
10214TIP3    H230600   4.547   7.044   6.174
10215TIP3   OH230601   6.938   5.449   2.425
10215TIP3    H130602   6.908   5.389   2.493
10215TIP3    H230603   7.027   5.472   2.450
10216TIP3   OH230604   3.942   7.032   2.599
10216TIP3    H130605   3.880   6.998   2.663
10216TIP3    H230606   3.958   6.960   2.539
10217TIP3   OH230607   7.807   0.302  -0.053
10217TIP3    H130608   7.813   0.396  -0.036
10217TIP3    H230609   7.729   0.274  -0.004
10218TIP3   OH230610   6.314   1.610   6.686
10218TIP3    H130611   6.356   1.688   6.722
10218TIP3    H230612   6.307   1.627   6.593
10219TIP3   OH230613   2.583   7.302   0.566
10219TIP3    H130614   2.646   7.318   0.495
10219TIP3    H230615   2.633   7.258   0.634
10220TIP3   OH230616   6.085   2.042   6.584
10220TIP3    H130617   6.001   2.013   6.619
10220TIP3    H230618   6.096   1.993   6.503
10221TIP3   OH230619   6.915   5.760   2.840
10221TIP3    H130620   6.995   5.711   2.825
10221TIP3    H230621   6.862   5.745   2.762
10222TIP3   OH230622   2.242   0.337   2.996
10222TIP3    H130623   2.184   0.351   2.921
10222TIP3    H230624   2.183   0.316   3.069
10223TIP3   OH230625   2.540   3.279   2.759
10223TIP3    H130626   2.565   3.191   2.730
10223TIP3    H230627   2.587   3.338   2.700
10224TIP3   OH230628   6.585   2.947   0.405
10224TIP3    H130629   6.517   2.962   0.471
10224TIP3    H230630   6.585   2.852   0.393
10225TIP3   OH230631   0.448   4.262   5.695
10225TIP3    H130632   0.382   4.210   5.741
10225TIP3    H230633   0.417   4.267   5.605
10226TIP3   OH230634   3.406   2.757   6.398
10226TIP3    H130635   3.310   2.764   6.399
10226TIP3    H230636   3.429   2.741   6.490
10227TIP3   OH230637   1.455   6.611   4.182
10227TIP3    H130638   1.443   6.694   4.137
10227TIP3    H230639   1.461   6.546   4.112
10228TIP3   OH230640   4.187   1.851   5.901
10228TIP3    H130641   4.232   1.929   5.869
10228TIP3    H230642   4.254   1.782   5.899
10229TIP3   OH230643   5.999   1.330   3.046
10229TIP3    H130644   5.976   1.384   3.122
10229TIP3    H230645   5.988   1.388   2.971
10230TIP3   OH230646   2.441   5.774   6.541
10230TIP3    H130647   2.400   5.766   6.627
10230TIP3    H230648   2.456   5.683   6.513
10231TIP3   OH230649   6.863   6.109   0.284
10231TIP3    H130650   6.876   6.137   0.193
10231TIP3    H230651   6.951   6.093   0.317
10232TIP3   OH230652   8.199   7.548   6.448
10232TIP3    H130653   8.193   7.644   6.448
10232TIP3    H230654   8.278   7.529   6.399
10233TIP3   OH230655   2.937   2.214   5.668
10233TIP3    H130656   2.926   2.140   5.608
10233TIP3    H230657   3.010   2.188   5.724
10234TIP3   OH230658   2.534   4.826   4.937
10234TIP3    H130659   2.556   4.771   5.013
10234TIP3    H230660   2.527   4.914   4.973
10235TIP3   OH230661   4.519   4.637   4.921
10235TIP3    H130662   4.529   4.708   4.857
10235TIP3    H230663   4.466   4.675   4.992
10236TIP3   OH230664   0.886   6.852   2.556
10236TIP3    H130665   0.957   6.806   2.601
10236TIP3    H230666   0.830   6.781   2.522
10237TIP3   OH230667   1.967   4.276   1.414
10237TIP3    H130668   1.941   4.185   1.421
10237TIP3    H230669   2.063   4.274   1.408
10238TIP3   OH230670   2.747   1.882   6.457
10238TIP3    H130671   2.825   1.835   6.486
10238TIP3    H230672   2.735   1.952   6.521
10239TIP3   OH230673   7.160   2.125   1.430
10239TIP3    H130674   7.226   2.195   1.433
10239TIP3    H230675   7.192   2.064   1.364
10240TIP3   OH230676   1.069   5.918   5.714
10240TIP3    H130677   1.074   5.933   5.809
10240TIP3    H230678   1.134   5.977   5.677
10241TIP3   OH230679   5.984   2.143   5.685
10241TIP3    H130680   6.080   2.138   5.687
10241TIP3    H230681   5.956   2.054   5.662
10242TIP3   OH230682   6.555   6.068   2.161
10242TIP3    H130683   6.612   6.019   2.101
10242TIP3    H230684   6.580   6.039   2.248
10243TIP3   OH230685   2.694   3.863   6.019
10243TIP3    H130686   2.740   3.827   6.094
10243TIP3    H230687   2.601   3.853   6.040
10244TIP3   OH230688   1.201   2.710   5.791
10244TIP3    H130689   1.135   2.777   5.809
10244TIP3    H230690   1.250   2.744   5.715
10245TIP3   OH230691   3.164   7.025   1.530
10245TIP3    H130692   3.132   7.023   1.440
10245TIP3    H230693   3.258   7.006   1.522
10246TIP3   OH230694   4.309   5.784   1.461
10246TIP3    H130695   4.377   5.803   1.525
10246TIP3    H230696   4.230   5.826   1.496
10247TIP3   OH230697   1.903   7.113   2.470
10247TIP3    H130698   1.906   7.082   2.561
10247TIP3    H230699   1.995   7.116   2.443
10248TIP3   OH230700   6.998   6.131   2.146
10248TIP3    H130701   6.952   6.065   2.197
10248TIP3    H230702   7.090   6.105   2.151
10249TIP3   OH230703   2.516   6.835   6.277
10249TIP3    H130704   2.608   6.823   6.301
10249TIP3    H230705   2.518   6.897   6.205
10250TIP3   OH230706   2.118   7.649   2.819
10250TIP3    H130707   2.033   7.620   2.852
10250TIP3    H230708   2.126   7.739   2.848
10251TIP3   OH230709   7.699   4.869   2.170
10251TIP3    H130710   7.606   4.890   2.161
10251TIP3    H230711   7.739   4.952   2.197
10252TIP3   OH230712   3.427   6.923   1.530
10252TIP3    H130713   3.472   6.944   1.611
10252TIP3    H230714   3.469   6.977   1.464
10253TIP3   OH230715   1.749   6.324   5.275
10253TIP3    H130716   1.740   6.231   5.255
10253TIP3    H230717   1.664   6.362   5.250
10254TIP3   OH230718   4.357   6.141   0.056
10254TIP3    H130719   4.295   6.079   0.018
10254TIP3    H230720   4.407   6.089   0.118
10255TIP3   OH230721   4.378   5.622   4.356
10255TIP3    H130722   4.395   5.551   4.418
10255TIP3    H230723   4.282   5.633   4.358
10256TIP3   OH230724   5.595   1.076   0.254
10256TIP3    H130725   5.620   1.091   0.163
10256TIP3    H230726   5.592   0.981   0.263
10257TIP3   OH230727   1.362   4.979   5.335
10257TIP3    H130728   1.293   5.037   5.301
10257TIP3    H230729   1.322   4.938   5.411
10258TIP3   OH230730   6.650   3.779   3.709
10258TIP3    H130731   6.721   3.782   3.646
10258TIP3    H230732   6.656   3.691   3.747
10259TIP3   OH230733   7.236   6.178   2.488
10259TIP3    H130734   7.316   6.225   2.510
10259TIP3    H230735   7.251   6.089   2.518
10260TIP3   OH230736   6.120   5.155   1.674
10260TIP3    H130737   6.128   5.211   1.751
10260TIP3    H230738   6.044   5.100   1.692
10261TIP3   OH230739   3.857   7.116   3.600
10261TIP3    H130740   3.884   7.083   3.686
10261TIP3    H230741   3.785   7.176   3.619
10262TIP3   OH230742   2.570   6.225   2.682
10262TIP3    H130743   2.612   6.171   2.750
10262TIP3    H230744   2.638   6.236   2.616
10263TIP3   OH230745   0.506   5.242   6.251
10263TIP3    H130746   0.427   5.266   6.202
10263TIP3    H230747   0.577   5.253   6.188
10264TIP3   OH230748   1.801   3.283   3.333
10264TIP3    H130749   1.884   3.235   3.338
10264TIP3    H230750   1.793   3.308   3.241
10265TIP3   OH230751   6.372   2.667   2.407
10265TIP3    H130752   6.419   2.584   2.407
10265TIP3    H230753   6.438   2.732   2.431
10266TIP3   OH230754   3.744   6.217   5.303
10266TIP3    H130755   3.732   6.158   5.228
10266TIP3    H230756   3.824   6.185   5.345
10267TIP3   OH230757   1.840   1.102   4.070
10267TIP3    H130758   1.745   1.095   4.069
10267TIP3    H230759   1.863   1.107   4.162
10268TIP3   OH230760   0.881   5.043   1.118
10268TIP3    H130761   0.974   5.063   1.108
10268TIP3    H230762   0.844   5.120   1.162
10269TIP3   OH230763   4.285   5.677   1.183
10269TIP3    H130764   4.267   5.584   1.192
10269TIP3    H230765   4.243   5.717   1.259
10270TIP3   OH230766   6.925   5.438   4.408
10270TIP3    H130767   6.900   5.462   4.498
10270TIP3    H230768   6.929   5.522   4.362
10271TIP3   OH230769   6.935   2.416   4.621
10271TIP3    H130770   6.986   2.494   4.643
10271TIP3    H230771   6.849   2.449   4.598
10272TIP3   OH230772   5.277   5.041   0.845
10272TIP3    H130773   5.347   4.996   0.893
10272TIP3    H230774   5.245   5.107   0.906
10273TIP3   OH230775   6.057   5.744   1.665
10273TIP3    H130776   6.020   5.773   1.748
10273TIP3    H230777   6.151   5.760   1.674
10274TIP3   OH230778   0.986   2.753   6.244
10274TIP3    H130779   0.932   2.702   6.183
10274TIP3    H230780   0.957   2.843   6.233
10275TIP3   OH230781   1.397   7.734   4.118
10275TIP3    H130782   1.428   7.644   4.127
10275TIP3    H230783   1.356   7.737   4.032
10276TIP3   OH230784   7.815   1.781   6.460
10276TIP3    H130785   7.843   1.773   6.369
10276TIP3    H230786   7.884   1.738   6.510
10277TIP3   OH230787   7.235   2.228   3.357
10277TIP3    H130788   7.263   2.141   3.329
10277TIP3    H230789   7.180   2.259   3.286
10278TIP3   OH230790   6.755   5.833   6.528
10278TIP3    H130791   6.831   5.798   6.480
10278TIP3    H230792   6.789   5.913   6.570
10279TIP3   OH230793   1.438   1.845   0.247
10279TIP3    H130794   1.411   1.878   0.333
10279TIP3    H230795   1.386   1.895   0.185
10280TIP3   OH230796   7.726   7.558   5.789
10280TIP3    H130797   7.723   7.544   5.694
10280TIP3    H230798   7.815   7.533   5.814
10281TIP3   OH230799   0.216   3.637   4.268
10281TIP3    H130800   0.200   3.581   4.345
10281TIP3    H230801   0.224   3.725   4.304
10282TIP3   OH230802   2.763   7.282   0.327
10282TIP3    H130803   2.836   7.229   0.358
10282TIP3    H230804   2.803   7.344   0.266
10283TIP3   OH230805   5.952   4.118   2.117
10283TIP3    H130806   5.919   4.136   2.206
10283TIP3    H230807   5.873   4.098   2.066
10284TIP3   OH230808   0.859   3.091   5.700
10284TIP3    H130809   0.895   3.117   5.615
10284TIP3    H230810   0.817   3.170   5.734
10285TIP3   OH230811   0.280   4.576   4.073
10285TIP3    H130812   0.222   4.644   4.040
10285TIP3    H230813   0.272   4.505   4.009
10286TIP3   OH230814   5.892   1.777   4.042
10286TIP3    H130815   5.813   1.795   4.092
10286TIP3    H230816   5.869   1.799   3.952
10287TIP3   OH230817   6.338   5.885   5.099
10287TIP3    H130818   6.403   5.821   5.070
10287TIP3    H230819   6.300   5.847   5.178
10288TIP3   OH230820   6.881   5.057   2.321
10288TIP3    H130821   6.901   5.137   2.274
10288TIP3    H230822   6.861   4.993   2.253
10289TIP3   OH230823   7.401   7.103   1.949
10289TIP3    H130824   7.361   7.182   1.984
10289TIP3    H230825   7.328   7.047   1.925
10290TIP3   OH230826   5.936   5.216   3.172
10290TIP3    H130827   5.937   5.143   3.234
10290TIP3    H230828   5.940   5.175   3.086
10291TIP3   OH230829   3.292   3.290   4.532
10291TIP3    H130830   3.235   3.235   4.586
10291TIP3    H230831   3.373   3.239   4.524
10292TIP3   OH230832   1.042   4.032   5.407
10292TIP3    H130833   1.015   3.973   5.336
10292TIP3    H230834   0.963   4.083   5.426
10293TIP3   OH230835   7.579   2.017   0.569
10293TIP3    H130836   7.501   1.999   0.517
10293TIP3    H230837   7.652   2.003   0.509
10294TIP3   OH230838   4.850   0.241   6.721
10294TIP3    H130839   4.755   0.234   6.707
10294TIP3    H230840   4.875   0.157   6.760
10295TIP3   OH230841   1.007   1.002   5.277
10295TIP3    H130842   1.071   1.002   5.206
10295TIP3    H230843   1.029   1.079   5.330
10296TIP3   OH230844   7.312   0.521   5.562
10296TIP3    H130845   7.270   0.460   5.623
10296TIP3    H230846   7.395   0.480   5.539
10297TIP3   OH230847   3.491   7.377   3.390
10297TIP3    H130848   3.481   7.450   3.329
10297TIP3    H230849   3.403   7.359   3.422
10298TIP3   OH230850   0.719   3.176   0.431
10298TIP3    H130851   0.644   3.187   0.490
10298TIP3    H230852   0.725   3.260   0.386
10299TIP3   OH230853   3.226   5.002   1.493
10299TIP3    H130854   3.161   4.977   1.427
10299TIP3    H230855   3.175   5.009   1.574
10300TIP3   OH230856   1.743   3.635   5.655
10300TIP3    H130857   1.752   3.663   5.746
10300TIP3    H230858   1.829   3.600   5.632
10301TIP3   OH230859   2.713   3.749   5.732
10301TIP3    H130860   2.624   3.714   5.725
10301TIP3    H230861   2.723   3.768   5.825
10302TIP3   OH230862   4.694   6.607   4.624
10302TIP3    H130863   4.602   6.580   4.622
10302TIP3    H230864   4.692   6.702   4.613
10303TIP3   OH230865   2.969   7.222   2.143
10303TIP3    H130866   3.035   7.240   2.210
10303TIP3    H230867   2.885   7.232   2.188
10304TIP3   OH230868   8.255   6.536   3.424
10304TIP3    H130869   8.304   6.589   3.360
10304TIP3    H230870   8.198   6.481   3.371
10305TIP3   OH230871   2.472   3.324   5.671
10305TIP3    H130872   2.542   3.285   5.619
10305TIP3    H230873   2.467   3.269   5.749
10306TIP3   OH230874   0.405   4.491   2.273
10306TIP3    H130875   0.429   4.423   2.210
10306TIP3    H230876   0.322   4.461   2.311
10307TIP3   OH230877   3.764   0.936   1.436
10307TIP3    H130878   3.801   1.021   1.410
10307TIP3    H230879   3.737   0.895   1.354
10308TIP3   OH230880   5.533   3.189   4.318
10308TIP3    H130881   5.597   3.257   4.339
10308TIP3    H230882   5.544   3.174   4.224
10309TIP3   OH230883   5.106   6.849   5.642
10309TIP3    H130884   5.028   6.823   5.593
10309TIP3    H230885   5.077   6.856   5.733
10310TIP3   OH230886   2.136   3.337   5.088
10310TIP3    H130887   2.058   3.354   5.140
10310TIP3    H230888   2.152   3.419   5.042
10311TIP3   OH230889   2.467   0.022   5.648
10311TIP3    H130890   2.447  -0.039   5.719
10311TIP3    H230891   2.509   0.096   5.691
10312TIP3   OH230892   3.963   6.472   4.229
10312TIP3    H130893   4.040   6.471   4.172
10312TIP3    H230894   3.975   6.549   4.285
10313TIP3   OH230895   0.987   4.943   5.821
10313TIP3    H130896   1.033   4.880   5.877
10313TIP3    H230897   0.925   4.889   5.772
10314TIP3   OH230898   2.785   5.307   0.503
10314TIP3    H130899   2.746   5.393   0.484
10314TIP3    H230900   2.873   5.327   0.533
10315TIP3   OH230901   4.066   2.473   3.798
10315TIP3    H130902   4.097   2.556   3.763
10315TIP3    H230903   3.974   2.488   3.820
10316TIP3   OH230904   5.571   3.714   5.882
10316TIP3    H130905   5.602   3.727   5.793
10316TIP3    H230906   5.639   3.662   5.924
10317TIP3   OH230907   8.047   7.266   0.941
10317TIP3    H130908   8.023   7.322   0.866
10317TIP3    H230909   8.020   7.178   0.914
10318TIP3   OH230910   3.874   6.420   2.819
10318TIP3    H130911   3.781   6.399   2.824
10318TIP3    H230912   3.878   6.503   2.773
10319TIP3   OH230913   7.708   3.489   1.094
10319TIP3    H130914   7.637   3.552   1.107
10319TIP3    H230915   7.696   3.424   1.163
10320TIP3   OH230916   4.693   4.690   1.865
10320TIP3    H130917   4.627   4.740   1.913
10320TIP3    H230918   4.642   4.640   1.801
10321TIP3   OH230919   7.656   6.791   0.594
10321TIP3    H130920   7.724   6.740   0.637
10321TIP3    H230921   7.702   6.844   0.529
10322TIP3   OH230922   2.090   2.576   5.859
10322TIP3    H130923   2.020   2.616   5.910
10322TIP3    H230924   2.106   2.492   5.902
10323TIP3   OH230925   2.665   3.338   2.516
10323TIP3    H130926   2.718   3.272   2.470
10323TIP3    H230927   2.584   3.344   2.466
10324TIP3   OH230928   8.188   1.604   1.562
10324TIP3    H130929   8.135   1.589   1.484
10324TIP3    H230930   8.261   1.543   1.554
10325TIP3   OH230931   3.034   0.651   6.508
10325TIP3    H130932   2.996   0.569   6.477
10325TIP3    H230933   3.128   0.638   6.498
10326TIP3   OH230934   5.749   5.758   4.899
10326TIP3    H130935   5.833   5.716   4.917
10326TIP3    H230936   5.683   5.696   4.929
10327TIP3   OH230937   4.050   4.361   1.128
10327TIP3    H130938   4.121   4.425   1.131
10327TIP3    H230939   4.014   4.369   1.040
10328TIP3   OH230940   0.032   0.863   3.278
10328TIP3    H130941   0.040   0.939   3.335
10328TIP3    H230942  -0.005   0.897   3.197
10329TIP3   OH230943   0.732   6.392   6.102
10329TIP3    H130944   0.688   6.464   6.146
10329TIP3    H230945   0.806   6.370   6.159
10330TIP3   OH230946   3.355   1.183   5.499
10330TIP3    H130947   3.300   1.149   5.570
10330TIP3    H230948   3.394   1.105   5.459
10331TIP3   OH230949   3.573   1.220   0.693
10331TIP3    H130950   3.603   1.286   0.756
10331TIP3    H230951   3.617   1.139   0.720
10332TIP3   OH230952   4.502   2.291   6.205
10332TIP3    H130953   4.522   2.202   6.235
10332TIP3    H230954   4.413   2.285   6.170
10333TIP3   OH230955   3.429   5.644   2.773
10333TIP3    H130956   3.350   5.591   2.781
10333TIP3    H230957   3.500   5.580   2.774
10334TIP3   OH230958   3.554   3.019   1.904
10334TIP3    H130959   3.615   3.079   1.863
10334TIP3    H230960   3.527   2.960   1.834
10335TIP3   OH230961   2.147   6.919   4.660
10335TIP3    H130962   2.127   7.012   4.648
10335TIP3    H230963   2.216   6.918   4.726
10336TIP3   OH230964   2.530   1.612   4.302
10336TIP3    H130965   2.508   1.704   4.319
10336TIP3    H230966   2.448   1.565   4.314
10337TIP3   OH230967   2.860   6.592   4.960
10337TIP3    H130968   2.869   6.683   4.930
10337TIP3    H230969   2.932   6.580   5.022
10338TIP3   OH230970   2.661   4.589   0.549
10338TIP3    H130971   2.646   4.524   0.618
10338TIP3    H230972   2.577   4.596   0.504
10339TIP3   OH230973   0.922   3.824   1.837
10339TIP3    H130974   1.011   3.836   1.805
10339TIP3    H230975   0.866   3.847   1.763
10340TIP3   OH230976   5.098   5.503   1.921
10340TIP3    H130977   5.125   5.522   2.011
10340TIP3    H230978   5.092   5.590   1.880
10341TIP3   OH230979   0.132   0.614   1.485
10341TIP3    H130980   0.140   0.527   1.446
10341TIP3    H230981   0.222   0.641   1.505
10342TIP3   OH230982   8.280   4.371   5.044
10342TIP3    H130983   8.359   4.377   4.989
10342TIP3    H230984   8.302   4.305   5.109
10343TIP3   OH230985   5.189   6.079   3.333
10343TIP3    H130986   5.129   6.134   3.383
10343TIP3    H230987   5.225   6.137   3.266
10344TIP3   OH230988   4.207   2.259   6.178
10344TIP3    H130989   4.126   2.261   6.128
10344TIP3    H230990   4.192   2.319   6.251
10345TIP3   OH230991   4.947   0.848   3.230
10345TIP3    H130992   4.968   0.777   3.170
10345TIP3    H230993   4.852   0.846   3.238
10346TIP3   OH230994   1.017   4.627   1.790
10346TIP3    H130995   1.010   4.722   1.780
10346TIP3    H230996   1.108   4.611   1.813
10347TIP3   OH230997   7.269   3.809   3.694
10347TIP3    H130998   7.255   3.725   3.737
10347TIP3    H230999   7.306   3.865   3.762
10348TIP3   OH231000   4.953   5.992   5.397
10348TIP3    H131001   4.979   6.047   5.470
10348TIP3    H231002   4.861   5.971   5.415
10349TIP3   OH231003   7.354   0.948   0.957
10349TIP3    H131004   7.434   0.968   1.006
10349TIP3    H231005   7.354   0.853   0.950
10350TIP3   OH231006   5.163   5.206   0.636
10350TIP3    H131007   5.101   5.257   0.688
10350TIP3    H231008   5.208   5.150   0.700
10351TIP3   OH231009   5.540   0.969   0.825
10351TIP3    H131010   5.615   0.992   0.771
10351TIP3    H231011   5.578   0.942   0.909
10352TIP3   OH231012   6.199   6.142   2.216
10352TIP3    H131013   6.196   6.106   2.127
10352TIP3    H231014   6.233   6.231   2.204
10353TIP3   OH231015   6.126   1.383   6.192
10353TIP3    H131016   6.097   1.452   6.132
10353TIP3    H231017   6.160   1.315   6.134
10354TIP3   OH231018   5.455   0.781   1.374
10354TIP3    H131019   5.377   0.738   1.409
10354TIP3    H231020   5.482   0.841   1.444
10355TIP3   OH231021   4.209   6.555   3.615
10355TIP3    H131022   4.189   6.482   3.557
10355TIP3    H231023   4.304   6.566   3.608
10356TIP3   OH231024   0.588   1.744   2.958
10356TIP3    H131025   0.575   1.656   2.923
10356TIP3    H231026   0.500   1.781   2.962
10357TIP3   OH231027   7.968   3.167   2.130
10357TIP3    H131028   8.037   3.103   2.113
10357TIP3    H231029   7.895   3.140   2.075
10358TIP3   OH231030   3.482   1.668   3.482
10358TIP3    H131031   3.495   1.661   3.577
10358TIP3    H231032   3.556   1.620   3.444
10359TIP3   OH231033   8.225   1.254   3.761
10359TIP3    H131034   8.168   1.186   3.723
10359TIP3    H231035   8.165   1.324   3.786
10360TIP3   OH231036   5.032   7.642   0.451
10360TIP3    H131037   5.041   7.560   0.499
10360TIP3    H231038   5.035   7.710   0.519
10361TIP3   OH231039   3.655   5.139   0.900
10361TIP3    H131040   3.695   5.056   0.928
10361TIP3    H231041   3.644   5.189   0.981
10362TIP3   OH231042   0.951   6.767   2.281
10362TIP3    H131043   0.987   6.797   2.365
10362TIP3    H231044   0.908   6.684   2.302
10363TIP3   OH231045   0.384   0.968   4.192
10363TIP3    H131046   0.433   0.917   4.128
10363TIP3    H231047   0.443   1.038   4.218
10364TIP3   OH231048   6.258   2.870   1.961
10364TIP3    H131049   6.315   2.915   2.023
10364TIP3    H231050   6.215   2.802   2.014
10365TIP3   OH231051   0.734   6.918   2.960
10365TIP3    H131052   0.651   6.908   2.913
10365TIP3    H231053   0.707   6.946   3.048
10366TIP3   OH231054   3.944   5.973   4.672
10366TIP3    H131055   3.890   5.993   4.748
10366TIP3    H231056   3.902   6.020   4.599
10367TIP3   OH231057   5.179   6.369   5.843
10367TIP3    H131058   5.108   6.306   5.842
10367TIP3    H231059   5.136   6.454   5.848
10368TIP3   OH231060   2.911   2.590   5.810
10368TIP3    H131061   2.849   2.516   5.808
10368TIP3    H231062   2.877   2.651   5.744
10369TIP3   OH231063   1.419   6.664   2.136
10369TIP3    H131064   1.432   6.651   2.230
10369TIP3    H231065   1.353   6.599   2.111
10370TIP3   OH231066   1.086   6.353   0.243
10370TIP3    H131067   1.151   6.397   0.297
10370TIP3    H231068   1.137   6.303   0.179
10371TIP3   OH231069   7.882   5.982   5.551
10371TIP3    H131070   7.974   5.980   5.524
10371TIP3    H231071   7.883   6.018   5.640
10372TIP3   OH231072   8.034   4.400   4.000
10372TIP3    H131073   8.075   4.356   3.926
10372TIP3    H231074   8.097   4.468   4.026
10373TIP3   OH231075   2.268   2.284   1.862
10373TIP3    H131076   2.308   2.340   1.797
10373TIP3    H231077   2.335   2.219   1.883
10374TIP3   OH231078   7.883   7.196   1.479
10374TIP3    H131079   7.966   7.159   1.508
10374TIP3    H231080   7.886   7.288   1.506
10375TIP3   OH231081   3.831   3.026   3.701
10375TIP3    H131082   3.859   3.068   3.782
10375TIP3    H231083   3.910   3.021   3.648
10376TIP3   OH231084   4.739   1.716   2.477
10376TIP3    H131085   4.696   1.792   2.437
10376TIP3    H231086   4.811   1.753   2.528
10377TIP3   OH231087   6.514   2.408   4.652
10377TIP3    H131088   6.535   2.370   4.566
10377TIP3    H231089   6.460   2.340   4.694
10378TIP3   OH231090   3.665   2.579   4.132
10378TIP3    H131091   3.639   2.671   4.123
10378TIP3    H231092   3.671   2.565   4.227
10379TIP3   OH231093   4.433   2.980   2.261
10379TIP3    H131094   4.351   2.989   2.310
10379TIP3    H231095   4.490   3.047   2.298
10380TIP3   OH231096   8.225   0.800   1.445
10380TIP3    H131097   8.244   0.835   1.358
10380TIP3    H231098   8.287   0.728   1.455
10381TIP3   OH231099   2.153   3.347   3.881
10381TIP3    H131100   2.134   3.262   3.840
10381TIP3    H231101   2.224   3.328   3.943
10382TIP3   OH231102   4.634   0.181   4.576
10382TIP3    H131103   4.664   0.190   4.485
10382TIP3    H231104   4.574   0.255   4.588
10383TIP3   OH231105   7.491   5.986   2.907
10383TIP3    H131106   7.461   6.011   2.994
10383TIP3    H231107   7.541   6.062   2.876
10384TIP3   OH231108   0.577   5.544   6.085
10384TIP3    H131109   0.483   5.538   6.066
10384TIP3    H231110   0.619   5.538   5.999
10385TIP3   OH231111   2.761   2.822   6.326
10385TIP3    H131112   2.666   2.824   6.323
10385TIP3    H231113   2.783   2.729   6.337
10386TIP3   OH231114   7.023   5.340   1.302
10386TIP3    H131115   6.942   5.348   1.252
10386TIP3    H231116   7.077   5.280   1.250
10387TIP3   OH231117   4.701   3.561   6.339
10387TIP3    H131118   4.720   3.548   6.246
10387TIP3    H231119   4.780   3.601   6.375
10388TIP3   OH231120   4.126   4.907   4.227
10388TIP3    H131121   4.113   4.813   4.239
10388TIP3    H231122   4.218   4.921   4.248
10389TIP3   OH231123   2.527   3.630   3.034
10389TIP3    H131124   2.584   3.706   3.019
10389TIP3    H231125   2.584   3.566   3.076
10390TIP3   OH231126   2.084   1.570   3.402
10390TIP3    H131127   2.042   1.618   3.331
10390TIP3    H231128   2.011   1.527   3.449
10391TIP3   OH231129   6.183   0.929   1.589
10391TIP3    H131130   6.215   0.999   1.533
10391TIP3    H231131   6.130   0.973   1.656
10392TIP3   OH231132   0.220   7.265   2.098
10392TIP3    H131133   0.259   7.178   2.095
10392TIP3    H231134   0.234   7.295   2.187
10393TIP3   OH231135   5.340   0.791   3.929
10393TIP3    H131136   5.345   0.855   4.000
10393TIP3    H231137   5.388   0.715   3.962
10394TIP3   OH231138   0.633   5.834   1.399
10394TIP3    H131139   0.637   5.875   1.312
10394TIP3    H231140   0.599   5.746   1.383
10395TIP3   OH231141   0.154   4.831   2.309
10395TIP3    H131142   0.204   4.789   2.239
10395TIP3    H231143   0.066   4.840   2.274
10396TIP3   OH231144   3.414   2.182   0.545
10396TIP3    H131145   3.441   2.130   0.470
10396TIP3    H231146   3.494   2.226   0.574
10397TIP3   OH231147   5.811   1.747  -0.032
10397TIP3    H131148   5.759   1.770   0.045
10397TIP3    H231149   5.861   1.670  -0.005
10398TIP3   OH231150   2.924   2.753   1.528
10398TIP3    H131151   2.955   2.816   1.592
10398TIP3    H231152   2.985   2.760   1.455
10399TIP3   OH231153   0.501   2.514   4.245
10399TIP3    H131154   0.585   2.479   4.218
10399TIP3    H231155   0.450   2.437   4.271
10400TIP3   OH231156   6.291   7.333   3.075
10400TIP3    H131157   6.243   7.415   3.088
10400TIP3    H231158   6.226   7.265   3.091
10401TIP3   OH231159   5.295   4.440   5.294
10401TIP3    H131160   5.338   4.507   5.241
10401TIP3    H231161   5.272   4.371   5.232
10402TIP3   OH231162   0.200   6.889   5.693
10402TIP3    H131163   0.105   6.881   5.685
10402TIP3    H231164   0.215   6.980   5.717
10403TIP3   OH231165   7.488   6.940   3.628
10403TIP3    H131166   7.488   7.029   3.663
10403TIP3    H231167   7.568   6.936   3.575
10404TIP3   OH231168   4.361   5.240   6.409
10404TIP3    H131169   4.428   5.303   6.383
10404TIP3    H231170   4.301   5.235   6.335
10405TIP3   OH231171   3.873   5.939   2.577
10405TIP3    H131172   3.819   5.878   2.627
10405TIP3    H231173   3.817   6.015   2.563
10406TIP3   OH231174   7.479   3.997   2.375
10406TIP3    H131175   7.398   4.030   2.414
10406TIP3    H231176   7.457   3.912   2.339
10407TIP3   OH231177   4.331   2.467   0.493
10407TIP3    H131178   4.339   2.562   0.497
10407TIP3    H231179   4.251   2.451   0.444
10408TIP3   OH231180   1.615   3.075   5.802
10408TIP3    H131181   1.703   3.105   5.777
10408TIP3    H231182   1.630   2.990   5.844
10409TIP3   OH231183   6.729   0.425   4.997
10409TIP3    H131184   6.646   0.436   5.042
10409TIP3    H231185   6.795   0.432   5.066
10410TIP3   OH231186   4.668   3.824   6.060
10410TIP3    H131187   4.575   3.807   6.075
10410TIP3    H231188   4.669   3.881   5.983
10411TIP3   OH231189   4.325   6.350   6.177
10411TIP3    H131190   4.255   6.346   6.112
10411TIP3    H231191   4.369   6.433   6.160
10412TIP3   OH231192   3.273   7.169   4.875
10412TIP3    H131193   3.293   7.076   4.888
10412TIP3    H231194   3.203   7.188   4.937
10413TIP3   OH231195   3.808   2.570   6.690
10413TIP3    H131196   3.884   2.512   6.695
10413TIP3    H231197   3.842   2.651   6.651
10414TIP3   OH231198   6.105   7.253   0.644
10414TIP3    H131199   6.053   7.305   0.583
10414TIP3    H231200   6.178   7.220   0.592
10415TIP3   OH231201   0.794   4.661   5.917
10415TIP3    H131202   0.792   4.655   5.821
10415TIP3    H231203   0.887   4.660   5.939
10416TIP3   OH231204   6.599   6.174   5.392
10416TIP3    H131205   6.614   6.110   5.462
10416TIP3    H231206   6.662   6.149   5.324
10417TIP3   OH231207   0.398   6.027   2.819
10417TIP3    H131208   0.452   6.102   2.841
10417TIP3    H231209   0.324   6.064   2.771
10418TIP3   OH231210   2.748   5.671   4.905
10418TIP3    H131211   2.747   5.679   5.000
10418TIP3    H231212   2.723   5.580   4.888
10419TIP3   OH231213   3.681   4.265   1.097
10419TIP3    H131214   3.731   4.249   1.177
10419TIP3    H231215   3.733   4.330   1.049
10420TIP3   OH231216   6.901   2.226   5.595
10420TIP3    H131217   6.900   2.134   5.620
10420TIP3    H231218   6.993   2.247   5.581
10421TIP3   OH231219   6.552   5.439   2.439
10421TIP3    H131220   6.525   5.348   2.440
10421TIP3    H231221   6.579   5.455   2.348
10422TIP3   OH231222   6.856   5.595   3.463
10422TIP3    H131223   6.884   5.638   3.381
10422TIP3    H231224   6.897   5.509   3.459
10423TIP3   OH231225   2.075   0.164   6.692
10423TIP3    H131226   1.996   0.120   6.723
10423TIP3    H231227   2.109   0.106   6.623
10424TIP3   OH231228   7.160   3.912   5.861
10424TIP3    H131229   7.069   3.882   5.856
10424TIP3    H231230   7.205   3.865   5.791
10425TIP3   OH231231   1.161   6.140   4.742
10425TIP3    H131232   1.094   6.198   4.706
10425TIP3    H231233   1.244   6.187   4.728
10426TIP3   OH231234   0.766   6.957   2.140
10426TIP3    H131235   0.695   6.942   2.078
10426TIP3    H231236   0.809   6.872   2.148
10427TIP3   OH231237   1.177   5.802   1.706
10427TIP3    H131238   1.257   5.801   1.654
10427TIP3    H231239   1.204   5.774   1.793
10428TIP3   OH231240   2.248   0.198   1.328
10428TIP3    H131241   2.298   0.245   1.261
10428TIP3    H231242   2.311   0.176   1.396
10429TIP3   OH231243   7.539   3.630   4.299
10429TIP3    H131244   7.497   3.703   4.254
10429TIP3    H231245   7.547   3.659   4.390
10430TIP3   OH231246   1.576   1.282   5.786
10430TIP3    H131247   1.586   1.268   5.880
10430TIP3    H231248   1.630   1.359   5.768
10431TIP3   OH231249   5.850   5.795   6.663
10431TIP3    H131250   5.806   5.801   6.578
10431TIP3    H231251   5.786   5.751   6.719
10432TIP3   OH231252   2.898   3.048   3.265
10432TIP3    H131253   2.923   3.139   3.279
10432TIP3    H231254   2.839   3.028   3.338
10433TIP3   OH231255   0.498   2.049   3.062
10433TIP3    H131256   0.585   2.065   3.098
10433TIP3    H231257   0.473   2.131   3.020
10434TIP3   OH231258   3.437   3.467   5.498
10434TIP3    H131259   3.471   3.385   5.535
10434TIP3    H231260   3.466   3.467   5.407
10435TIP3   OH231261   2.570   1.025   2.049
10435TIP3    H131262   2.603   0.998   1.963
10435TIP3    H231263   2.477   1.006   2.046
10436TIP3   OH231264   5.313   3.790   5.502
10436TIP3    H131265   5.286   3.699   5.511
10436TIP3    H231266   5.373   3.790   5.428
10437TIP3   OH231267   7.437   7.285   1.647
10437TIP3    H131268   7.467   7.292   1.556
10437TIP3    H231269   7.345   7.260   1.639
10438TIP3   OH231270   6.461   7.604   1.731
10438TIP3    H131271   6.382   7.656   1.742
10438TIP3    H231272   6.526   7.647   1.786
10439TIP3   OH231273   7.645   2.570   3.097
10439TIP3    H131274   7.719   2.511   3.084
10439TIP3    H231275   7.652   2.633   3.024
10440TIP3   OH231276   6.873   3.648   3.310
10440TIP3    H131277   6.963   3.622   3.289
10440TIP3    H231278   6.822   3.620   3.234
10441TIP3   OH231279   4.986   6.698   6.574
10441TIP3    H131280   4.956   6.735   6.492
10441TIP3    H231281   5.074   6.733   6.585
10442TIP3   OH231282   4.143   0.478   1.459
10442TIP3    H131283   4.127   0.548   1.522
10442TIP3    H231284   4.147   0.399   1.513
10443TIP3   OH231285   7.202   0.380   6.585
10443TIP3    H131286   7.242   0.360   6.670
10443TIP3    H231287   7.221   0.304   6.530
10444TIP3   OH231288   2.455   6.017   6.092
10444TIP3    H131289   2.362   6.037   6.105
10444TIP3    H231290   2.490   6.094   6.047
10445TIP3   OH231291   5.720   5.727   0.492
10445TIP3    H131292   5.801   5.749   0.539
10445TIP3    H231293   5.650   5.746   0.554
10446TIP3   OH231294   5.642   0.914   2.547
10446TIP3    H131295   5.707   0.864   2.497
10446TIP3    H231296   5.649   1.003   2.512
10447TIP3   OH231297   2.033   0.016   1.582
10447TIP3    H131298   2.070   0.098   1.614
10447TIP3    H231299   2.103  -0.024   1.530
10448TIP3   OH231300   7.255   1.300   0.453
10448TIP3    H131301   7.264   1.342   0.539
10448TIP3    H231302   7.161   1.286   0.442
10449TIP3   OH231303   0.083   1.964   6.011
10449TIP3    H131304   0.025   1.906   5.963
10449TIP3    H231305   0.157   1.979   5.952
10450TIP3   OH231306   5.122   0.264   3.975
10450TIP3    H131307   5.076   0.195   3.927
10450TIP3    H231308   5.100   0.345   3.928
10451TIP3   OH231309   3.966   7.085   3.864
10451TIP3    H131310   3.959   7.009   3.922
10451TIP3    H231311   3.966   7.160   3.923
10452TIP3   OH231312   4.120   2.949   2.061
10452TIP3    H131313   4.030   2.981   2.068
10452TIP3    H231314   4.123   2.904   1.977
10453TIP3   OH231315   6.737   6.970   0.542
10453TIP3    H131316   6.718   7.019   0.622
10453TIP3    H231317   6.773   6.887   0.573
10454TIP3   OH231318   1.952   4.424   4.168
10454TIP3    H131319   1.989   4.510   4.151
10454TIP3    H231320   1.880   4.416   4.106
10455TIP3   OH231321   1.771   0.446   6.364
10455TIP3    H131322   1.771   0.443   6.460
10455TIP3    H231323   1.709   0.378   6.338
10456TIP3   OH231324   7.556   4.103   5.989
10456TIP3    H131325   7.603   4.053   6.055
10456TIP3    H231326   7.496   4.158   6.039
10457TIP3   OH231327   3.939   3.771   6.335
10457TIP3    H131328   3.970   3.763   6.245
10457TIP3    H231329   3.875   3.842   6.332
10458TIP3   OH231330   3.968   5.181   4.302
10458TIP3    H131331   3.882   5.148   4.277
10458TIP3    H231332   4.029   5.133   4.247
10459TIP3   OH231333   7.680   6.334   0.028
10459TIP3    H131334   7.640   6.274  -0.035
10459TIP3    H231335   7.702   6.279   0.103
10460TIP3   OH231336   1.067   0.718   4.935
10460TIP3    H131337   1.158   0.743   4.954
10460TIP3    H231338   1.025   0.719   5.021
10461TIP3   OH231339   0.223   2.410   6.002
10461TIP3    H131340   0.244   2.500   6.027
10461TIP3    H231341   0.128   2.410   5.988
10462TIP3   OH231342   4.759   0.530   2.374
10462TIP3    H131343   4.742   0.601   2.313
10462TIP3    H231344   4.706   0.551   2.451
10463TIP3   OH231345   0.346   0.390   3.708
10463TIP3    H131346   0.343   0.391   3.612
10463TIP3    H231347   0.321   0.301   3.731
10464TIP3   OH231348   3.657   0.374   6.506
10464TIP3    H131349   3.702   0.312   6.449
10464TIP3    H231350   3.711   0.378   6.585
10465TIP3   OH231351   3.273   1.542   1.487
10465TIP3    H131352   3.222   1.504   1.559
10465TIP3    H231353   3.359   1.500   1.494
10466TIP3   OH231354   3.661   3.042   3.297
10466TIP3    H131355   3.590   2.982   3.321
10466TIP3    H231356   3.681   3.089   3.377
10467TIP3   OH231357   6.916   6.620   0.983
10467TIP3    H131358   6.892   6.527   0.983
10467TIP3    H231359   6.850   6.661   1.039
10468TIP3   OH231360   6.603   3.785   4.518
10468TIP3    H131361   6.576   3.861   4.466
10468TIP3    H231362   6.523   3.756   4.561
10469TIP3   OH231363   5.263   6.322   0.129
10469TIP3    H131364   5.219   6.406   0.143
10469TIP3    H231365   5.202   6.271   0.077
10470TIP3   OH231366   1.827   4.999   3.813
10470TIP3    H131367   1.814   4.914   3.771
10470TIP3    H231368   1.859   4.978   3.901
10471TIP3   OH231369   0.852   3.893   3.674
10471TIP3    H131370   0.859   3.966   3.612
10471TIP3    H231371   0.846   3.815   3.619
10472TIP3   OH231372   3.482   1.048   4.002
10472TIP3    H131373   3.557   1.000   3.966
10472TIP3    H231374   3.504   1.060   4.094
10473TIP3   OH231375   2.251   2.535   3.424
10473TIP3    H131376   2.293   2.449   3.424
10473TIP3    H231377   2.225   2.549   3.515
10474TIP3   OH231378   7.728   5.671   1.421
10474TIP3    H131379   7.726   5.675   1.517
10474TIP3    H231380   7.689   5.754   1.393
10475TIP3   OH231381   6.302   0.216   5.748
10475TIP3    H131382   6.214   0.240   5.777
10475TIP3    H231383   6.309   0.122   5.767
10476TIP3   OH231384   3.782   5.197   1.915
10476TIP3    H131385   3.723   5.189   1.990
10476TIP3    H231386   3.839   5.271   1.937
10477TIP3   OH231387   0.178   7.585   4.638
10477TIP3    H131388   0.104   7.590   4.577
10477TIP3    H231389   0.160   7.652   4.704
10478TIP3   OH231390   7.346   2.061   1.631
10478TIP3    H131391   7.283   2.078   1.561
10478TIP3    H231392   7.427   2.037   1.585
10479TIP3   OH231393   5.085   6.460   4.873
10479TIP3    H131394   5.030   6.512   4.931
10479TIP3    H231395   5.035   6.453   4.792
10480TIP3   OH231396   3.144   2.005   0.208
10480TIP3    H131397   3.191   2.066   0.151
10480TIP3    H231398   3.161   1.918   0.170
10481TIP3   OH231399   1.367   7.043   1.611
10481TIP3    H131400   1.454   7.077   1.628
10481TIP3    H231401   1.355   6.974   1.676
10482TIP3   OH231402   4.621   5.024   5.994
10482TIP3    H131403   4.607   5.115   5.965
10482TIP3    H231404   4.706   5.000   5.956
10483TIP3   OH231405   3.622   1.331   0.225
10483TIP3    H131406   3.664   1.328   0.139
10483TIP3    H231407   3.648   1.416   0.261
10484TIP3   OH231408   4.533   6.317   2.895
10484TIP3    H131409   4.549   6.340   2.803
10484TIP3    H231410   4.437   6.321   2.904
10485TIP3   OH231411   6.841   0.619   3.141
10485TIP3    H131412   6.899   0.591   3.070
10485TIP3    H231413   6.755   0.627   3.101
10486TIP3   OH231414   7.684   3.799   5.992
10486TIP3    H131415   7.685   3.820   6.085
10486TIP3    H231416   7.594   3.773   5.974
10487TIP3   OH231417   7.070   6.294   4.732
10487TIP3    H131418   7.117   6.329   4.656
10487TIP3    H231419   7.006   6.362   4.754
10488TIP3   OH231420   1.042   6.320   3.873
10488TIP3    H131421   1.067   6.249   3.814
10488TIP3    H231422   1.042   6.281   3.960
10489TIP3   OH231423   3.329   7.440   1.993
10489TIP3    H131424   3.337   7.349   2.021
10489TIP3    H231425   3.413   7.480   2.017
10490TIP3   OH231426   2.469   6.476   2.522
10490TIP3    H131427   2.414   6.539   2.569
10490TIP3    H231428   2.409   6.405   2.500
10491TIP3   OH231429   6.461   6.713   2.494
10491TIP3    H131430   6.474   6.618   2.486
10491TIP3    H231431   6.381   6.730   2.443
10492TIP3   OH231432   2.140   3.277   2.620
10492TIP3    H131433   2.212   3.341   2.613
10492TIP3    H231434   2.157   3.231   2.702
10493TIP3   OH231435   3.904   7.394   4.339
10493TIP3    H131436   3.821   7.426   4.375
10493TIP3    H231437   3.893   7.402   4.244
10494TIP3   OH231438   2.133   3.210   5.655
10494TIP3    H131439   2.126   3.300   5.685
10494TIP3    H231440   2.152   3.216   5.562
10495TIP3   OH231441   6.190   3.547   6.351
10495TIP3    H131442   6.139   3.507   6.281
10495TIP3    H231443   6.224   3.473   6.401
10496TIP3   OH231444   7.388   6.726   1.458
10496TIP3    H131445   7.416   6.789   1.392
10496TIP3    H231446   7.347   6.779   1.527
10497TIP3   OH231447   0.994   5.904   3.944
10497TIP3    H131448   0.949   5.842   4.002
10497TIP3    H231449   1.086   5.880   3.951
10498TIP3   OH231450   6.796   6.797   1.554
10498TIP3    H131451   6.824   6.746   1.478
10498TIP3    H231452   6.745   6.735   1.607
10499TIP3   OH231453   8.064   4.702   2.028
10499TIP3    H131454   8.103   4.666   1.948
10499TIP3    H231455   7.976   4.665   2.031
10500TIP3   OH231456   5.341   0.221   6.779
10500TIP3    H131457   5.298   0.281   6.719
10500TIP3    H231458   5.373   0.150   6.724
10501TIP3   OH231459   0.976   5.675   2.008
10501TIP3    H131460   0.891   5.680   1.964
10501TIP3    H231461   1.023   5.608   1.959
10502TIP3   OH231462   0.365   1.990   1.762
10502TIP3    H131463   0.278   1.952   1.768
10502TIP3    H231464   0.415   1.928   1.708
10503TIP3   OH231465   6.222   0.355   1.281
10503TIP3    H131466   6.236   0.396   1.195
10503TIP3    H231467   6.181   0.424   1.334
10504TIP3   OH231468   5.486   6.247   1.958
10504TIP3    H131469   5.450   6.171   1.912
10504TIP3    H231470   5.441   6.322   1.920
10505TIP3   OH231471   3.734   6.355   0.617
10505TIP3    H131472   3.777   6.440   0.615
10505TIP3    H231473   3.682   6.353   0.537
10506TIP3   OH231474   6.564   2.455   2.233
10506TIP3    H131475   6.597   2.527   2.286
10506TIP3    H231476   6.515   2.400   2.294
10507TIP3   OH231477   0.971   0.045   4.071
10507TIP3    H131478   0.875   0.048   4.073
10507TIP3    H231479   0.999   0.113   4.132
10508TIP3   OH231480   7.615   2.195   0.799
10508TIP3    H131481   7.520   2.207   0.793
10508TIP3    H231482   7.636   2.134   0.729
10509TIP3   OH231483   2.742   4.138   4.670
10509TIP3    H131484   2.651   4.148   4.699
10509TIP3    H231485   2.746   4.049   4.635
10510TIP3   OH231486   5.070   2.477   4.573
10510TIP3    H131487   5.122   2.408   4.533
10510TIP3    H231488   5.118   2.558   4.555
10511TIP3   OH231489   0.206   3.062   3.380
10511TIP3    H131490   0.299   3.079   3.397
10511TIP3    H231491   0.196   2.969   3.398
10512TIP3   OH231492   4.309   0.566   2.546
10512TIP3    H131493   4.293   0.611   2.629
10512TIP3    H231494   4.240   0.599   2.488
10513TIP3   OH231495   4.032   0.250   1.328
10513TIP3    H131496   3.970   0.276   1.396
10513TIP3    H231497   4.115   0.288   1.356
10514TIP3   OH231498   7.717   2.076   4.823
10514TIP3    H131499   7.790   2.071   4.762
10514TIP3    H231500   7.755   2.050   4.907
10515TIP3   OH231501   5.989   5.434   2.748
10515TIP3    H131502   6.036   5.508   2.786
10515TIP3    H231503   5.899   5.465   2.738
10516TIP3   OH231504   5.550   2.524   4.704
10516TIP3    H131505   5.540   2.555   4.794
10516TIP3    H231506   5.611   2.451   4.711
10517TIP3   OH231507   2.299   4.043   2.837
10517TIP3    H131508   2.349   4.117   2.873
10517TIP3    H231509   2.273   4.072   2.749
10518TIP3   OH231510   5.658   4.321   0.744
10518TIP3    H131511   5.646   4.235   0.785
10518TIP3    H231512   5.753   4.332   0.740
10519TIP3   OH231513   3.870   3.830   6.772
10519TIP3    H131514   3.794   3.793   6.726
10519TIP3    H231515   3.860   3.801   6.863
10520TIP3   OH231516   7.974   2.381   2.610
10520TIP3    H131517   8.007   2.455   2.559
10520TIP3    H231518   7.914   2.336   2.551
10521TIP3   OH231519   3.707   5.011   3.542
10521TIP3    H131520   3.621   5.009   3.582
10521TIP3    H231521   3.762   4.959   3.601
10522TIP3   OH231522   0.271   3.188   0.485
10522TIP3    H131523   0.356   3.222   0.512
10522TIP3    H231524   0.222   3.179   0.567
10523TIP3   OH231525   1.464   7.704   0.629
10523TIP3    H131526   1.516   7.635   0.588
10523TIP3    H231527   1.489   7.784   0.582
10524TIP3   OH231528   7.032   1.563   4.775
10524TIP3    H131529   7.122   1.588   4.755
10524TIP3    H231530   7.031   1.549   4.869
10525TIP3   OH231531   4.683   1.082   4.247
10525TIP3    H131532   4.662   1.080   4.154
10525TIP3    H231533   4.598   1.087   4.291
10526TIP3   OH231534   2.741   3.106   4.322
10526TIP3    H131535   2.738   3.026   4.375
10526TIP3    H231536   2.757   3.176   4.385
10527TIP3   OH231537   3.510   0.832   4.807
10527TIP3    H131538   3.554   0.905   4.851
10527TIP3    H231539   3.453   0.874   4.743
10528TIP3   OH231540   1.426   3.519   2.097
10528TIP3    H131541   1.362   3.481   2.037
10528TIP3    H231542   1.408   3.613   2.095
10529TIP3   OH231543   6.294   3.999   3.772
10529TIP3    H131544   6.332   4.065   3.714
10529TIP3    H231545   6.255   3.935   3.712
10530TIP3   OH231546   5.703   0.273   3.674
10530TIP3    H131547   5.623   0.267   3.621
10530TIP3    H231548   5.721   0.366   3.680
10531TIP3   OH231549   7.784   7.050   4.128
10531TIP3    H131550   7.696   7.020   4.151
10531TIP3    H231551   7.781   7.058   4.032
10532TIP3   OH231552   7.523   2.198   1.396
10532TIP3    H131553   7.603   2.240   1.429
10532TIP3    H231554   7.534   2.199   1.301
10533TIP3   OH231555   1.882   1.734   4.766
10533TIP3    H131556   1.955   1.711   4.709
10533TIP3    H231557   1.910   1.705   4.853
10534TIP3   OH231558   2.676   0.355   5.278
10534TIP3    H131559   2.766   0.324   5.291
10534TIP3    H231560   2.640   0.365   5.366
10535TIP3   OH231561   0.615   2.924   6.251
10535TIP3    H131562   0.696   2.921   6.302
10535TIP3    H231563   0.589   2.832   6.243
10536TIP3   OH231564   4.490   5.829   2.148
10536TIP3    H131565   4.482   5.786   2.234
10536TIP3    H231566   4.560   5.780   2.104
10537TIP3   OH231567   1.786   4.377   1.589
10537TIP3    H131568   1.851   4.339   1.530
10537TIP3    H231569   1.723   4.307   1.603
10538TIP3   OH231570   1.545   5.374   1.689
10538TIP3    H131571   1.472   5.333   1.642
10538TIP3    H231572   1.562   5.455   1.641
10539TIP3   OH231573   1.873   5.480   5.279
10539TIP3    H131574   1.911   5.474   5.367
10539TIP3    H231575   1.946   5.458   5.221
10540TIP3   OH231576   6.984   5.979   5.266
10540TIP3    H131577   7.066   5.930   5.260
10540TIP3    H231578   6.987   6.021   5.352
10541TIP3   OH231579   1.431   4.207   2.494
10541TIP3    H131580   1.480   4.281   2.530
10541TIP3    H231581   1.497   4.139   2.481
10542TIP3   OH231582   3.729   2.279   6.448
10542TIP3    H131583   3.761   2.297   6.536
10542TIP3    H231584   3.805   2.247   6.400
10543TIP3   OH231585   8.196   6.329   5.810
10543TIP3    H131586   8.146   6.352   5.889
10543TIP3    H231587   8.286   6.355   5.829
10544TIP3   OH231588   5.196   5.749   3.289
10544TIP3    H131589   5.266   5.803   3.252
10544TIP3    H231590   5.216   5.660   3.262
10545TIP3   OH231591   1.506   4.515   6.729
10545TIP3    H131592   1.510   4.420   6.744
10545TIP3    H231593   1.597   4.543   6.730
10546TIP3   OH231594   7.406   3.935   6.231
10546TIP3    H131595   7.421   4.020   6.189
10546TIP3    H231596   7.311   3.924   6.229
10547TIP3   OH231597   4.088   4.815   3.758
10547TIP3    H131598   4.033   4.854   3.826
10547TIP3    H231599   4.027   4.795   3.687
10548TIP3   OH231600   2.314   7.831   4.350
10548TIP3    H131601   2.350   7.809   4.264
10548TIP3    H231602   2.231   7.784   4.354
10549TIP3   OH231603   6.054   6.237   3.783
10549TIP3    H131604   5.960   6.219   3.783
10549TIP3    H231605   6.084   6.209   3.697
10550TIP3   OH231606   0.652   2.822   5.002
10550TIP3    H131607   0.646   2.916   4.986
10550TIP3    H231608   0.650   2.814   5.098
10551TIP3   OH231609   4.927   5.174   6.218
10551TIP3    H131610   5.003   5.121   6.191
10551TIP3    H231611   4.922   5.162   6.313
10552TIP3   OH231612   4.357   5.197   5.227
10552TIP3    H131613   4.418   5.171   5.296
10552TIP3    H231614   4.271   5.172   5.261
10553TIP3   OH231615   6.445   4.172   0.058
10553TIP3    H131616   6.505   4.241   0.029
10553TIP3    H231617   6.464   4.098   0.000
10554TIP3   OH231618   0.166   4.890   3.545
10554TIP3    H131619   0.259   4.911   3.539
10554TIP3    H231620   0.163   4.805   3.590
10555TIP3   OH231621   4.467   7.363   3.731
10555TIP3    H131622   4.405   7.352   3.803
10555TIP3    H231623   4.507   7.277   3.720
10556TIP3   OH231624   3.644   0.625   3.949
10556TIP3    H131625   3.567   0.613   4.005
10556TIP3    H231626   3.665   0.537   3.918
10557TIP3   OH231627   1.480   1.510   2.415
10557TIP3    H131628   1.460   1.595   2.453
10557TIP3    H231629   1.491   1.452   2.491
10558TIP3   OH231630   5.862   4.225   1.534
10558TIP3    H131631   5.872   4.183   1.449
10558TIP3    H231632   5.883   4.156   1.597
10559TIP3   OH231633   4.267   6.226   2.899
10559TIP3    H131634   4.171   6.228   2.906
10559TIP3    H231635   4.289   6.133   2.908
10560TIP3   OH231636   1.561   1.001   5.212
10560TIP3    H131637   1.656   0.991   5.205
10560TIP3    H231638   1.539   0.959   5.295
10561TIP3   OH231639   3.584   6.166   6.023
10561TIP3    H131640   3.571   6.238   5.961
10561TIP3    H231641   3.676   6.171   6.047
10562TIP3   OH231642   2.919   1.821   4.525
10562TIP3    H131643   2.879   1.900   4.562
10562TIP3    H231644   2.912   1.833   4.430
10563TIP3   OH231645   4.970   2.901   4.058
10563TIP3    H131646   4.989   2.879   3.967
10563TIP3    H231647   4.876   2.887   4.067
10564TIP3   OH231648   6.891   1.058   3.060
10564TIP3    H131649   6.877   0.985   3.120
10564TIP3    H231650   6.809   1.064   3.010
10565TIP3   OH231651   1.410   6.414   3.422
10565TIP3    H131652   1.482   6.394   3.363
10565TIP3    H231653   1.331   6.398   3.370
10566TIP3   OH231654   4.303   4.061   0.196
10566TIP3    H131655   4.258   4.096   0.119
10566TIP3    H231656   4.286   3.966   0.192
10567TIP3   OH231657   1.538   4.375   4.958
10567TIP3    H131658   1.588   4.455   4.973
10567TIP3    H231659   1.588   4.306   5.001
10568TIP3   OH231660   1.670   7.476   6.152
10568TIP3    H131661   1.666   7.410   6.084
10568TIP3    H231662   1.708   7.431   6.228
10569TIP3   OH231663   2.480   3.165   3.409
10569TIP3    H131664   2.518   3.148   3.323
10569TIP3    H231665   2.544   3.131   3.471
10570TIP3   OH231666   3.480   2.284   3.745
10570TIP3    H131667   3.513   2.361   3.697
10570TIP3    H231668   3.499   2.303   3.836
10571TIP3   OH231669   2.027   6.141   1.140
10571TIP3    H131670   1.965   6.140   1.067
10571TIP3    H231671   2.086   6.214   1.122
10572TIP3   OH231672   7.647   7.464   1.679
10572TIP3    H131673   7.563   7.439   1.717
10572TIP3    H231674   7.627   7.483   1.588
10573TIP3   OH231675   0.152   2.937   6.468
10573TIP3    H131676   0.100   2.979   6.399
10573TIP3    H231677   0.199   3.010   6.509
10574TIP3   OH231678   3.505   3.727   0.384
10574TIP3    H131679   3.536   3.791   0.447
10574TIP3    H231680   3.483   3.778   0.306
10575TIP3   OH231681   2.963   5.998   3.533
10575TIP3    H131682   2.975   6.088   3.503
10575TIP3    H231683   3.050   5.960   3.529
10576TIP3   OH231684   2.277   1.757   3.138
10576TIP3    H131685   2.196   1.774   3.186
10576TIP3    H231686   2.251   1.695   3.070
10577TIP3   OH231687   7.626   6.611   1.281
10577TIP3    H131688   7.710   6.589   1.240
10577TIP3    H231689   7.623   6.706   1.282
10578TIP3   OH231690   2.138   5.987   5.146
10578TIP3    H131691   2.078   5.913   5.136
10578TIP3    H231692   2.224   5.947   5.161
10579TIP3   OH231693   6.974   6.812   4.552
10579TIP3    H131694   6.880   6.791   4.555
10579TIP3    H231695   6.988   6.848   4.464
10580TIP3   OH231696   4.197   0.870   0.911
10580TIP3    H131697   4.207   0.940   0.846
10580TIP3    H231698   4.158   0.797   0.862
10581TIP3   OH231699   7.900   7.635   0.909
10581TIP3    H131700   7.951   7.715   0.899
10581TIP3    H231701   7.920   7.583   0.830
10582TIP3   OH231702   8.191   4.880   6.361
10582TIP3    H131703   8.265   4.884   6.300
10582TIP3    H231704   8.120   4.841   6.311
10583TIP3   OH231705   7.652   7.544   2.487
10583TIP3    H131706   7.608   7.489   2.423
10583TIP3    H231707   7.616   7.632   2.472
10584TIP3   OH231708   7.662   3.381   2.073
10584TIP3    H131709   7.596   3.435   2.031
10584TIP3    H231710   7.620   3.348   2.153
10585TIP3   OH231711   0.908   7.725   6.437
10585TIP3    H131712   0.955   7.679   6.368
10585TIP3    H231713   0.818   7.694   6.430
10586TIP3   OH231714   3.188   3.876   5.950
10586TIP3    H131715   3.135   3.797   5.937
10586TIP3    H231716   3.164   3.933   5.877
10587TIP3   OH231717   5.587   2.820   0.190
10587TIP3    H131718   5.541   2.772   0.259
10587TIP3    H231719   5.517   2.863   0.140
10588TIP3   OH231720   4.744   4.193   0.348
10588TIP3    H131721   4.781   4.126   0.290
10588TIP3    H231722   4.650   4.191   0.330
10589TIP3   OH231723   1.896   2.955   5.089
10589TIP3    H131724   1.828   2.917   5.033
10589TIP3    H231725   1.854   3.031   5.129
10590TIP3   OH231726   6.684   1.546   6.644
10590TIP3    H131727   6.593   1.522   6.664
10590TIP3    H231728   6.736   1.478   6.687
10591TIP3   OH231729   5.825   7.553   4.520
10591TIP3    H131730   5.907   7.577   4.564
10591TIP3    H231731   5.848   7.476   4.468
10592TIP3   OH231732   4.148   0.785   5.599
10592TIP3    H131733   4.136   0.835   5.680
10592TIP3    H231734   4.230   0.819   5.562
10593TIP3   OH231735   7.641   5.657   3.784
10593TIP3    H131736   7.591   5.665   3.865
10593TIP3    H231737   7.574   5.656   3.715
10594TIP3   OH231738   6.861   4.065   2.514
10594TIP3    H131739   6.905   4.094   2.594
10594TIP3    H231740   6.771   4.047   2.540
10595TIP3   OH231741   0.916   6.295   3.396
10595TIP3    H131742   0.912   6.264   3.486
10595TIP3    H231743   0.932   6.389   3.403
10596TIP3   OH231744   6.748   3.025   3.802
10596TIP3    H131745   6.759   3.014   3.708
10596TIP3    H231746   6.659   3.060   3.812
10597TIP3   OH231747   7.362   7.102   2.493
10597TIP3    H131748   7.403   7.018   2.511
10597TIP3    H231749   7.404   7.163   2.555
10598TIP3   OH231750   2.102   0.324   2.765
10598TIP3    H131751   2.051   0.272   2.826
10598TIP3    H231752   2.110   0.269   2.687
10599TIP3   OH231753   5.696   3.115   1.938
10599TIP3    H131754   5.741   3.048   1.990
10599TIP3    H231755   5.664   3.177   2.003
10600TIP3   OH231756   8.019   3.034   1.843
10600TIP3    H131757   8.072   3.113   1.834
10600TIP3    H231758   8.054   2.991   1.921
10601TIP3   OH231759   2.599   0.862   3.277
10601TIP3    H131760   2.522   0.910   3.309
10601TIP3    H231761   2.673   0.916   3.304
10602TIP3   OH231762   6.039   5.437   0.233
10602TIP3    H131763   6.077   5.448   0.321
10602TIP3    H231764   6.077   5.356   0.201
10603TIP3   OH231765   2.001   1.976   4.004
10603TIP3    H131766   1.960   1.972   3.918
10603TIP3    H231767   2.095   1.982   3.985
10604TIP3   OH231768   4.155   4.897   0.558
10604TIP3    H131769   4.090   4.834   0.527
10604TIP3    H231770   4.108   4.980   0.562
10605TIP3   OH231771   1.237   3.716   3.111
10605TIP3    H131772   1.320   3.668   3.113
10605TIP3    H231773   1.176   3.655   3.068
10606TIP3   OH231774   6.669   5.702   4.414
10606TIP3    H131775   6.698   5.792   4.401
10606TIP3    H231776   6.741   5.660   4.461
10607TIP3   OH231777   5.302   5.090   5.373
10607TIP3    H131778   5.247   5.047   5.439
10607TIP3    H231779   5.244   5.152   5.329
10608TIP3   OH231780   2.263   5.672   1.721
10608TIP3    H131781   2.254   5.766   1.731
10608TIP3    H231782   2.243   5.636   1.807
10609TIP3   OH231783   7.181   4.792   5.180
10609TIP3    H131784   7.200   4.880   5.148
10609TIP3    H231785   7.237   4.782   5.257
10610TIP3   OH231786   3.812   5.114   5.759
10610TIP3    H131787   3.867   5.188   5.784
10610TIP3    H231788   3.871   5.039   5.759
10611TIP3   OH231789   2.097   3.210   2.337
10611TIP3    H131790   2.181   3.181   2.303
10611TIP3    H231791   2.102   3.194   2.431
10612TIP3   OH231792   5.594   2.363   1.341
10612TIP3    H131793   5.658   2.380   1.409
10612TIP3    H231794   5.538   2.294   1.377
10613TIP3   OH231795   3.427   0.510   6.185
10613TIP3    H131796   3.440   0.436   6.126
10613TIP3    H231797   3.332   0.521   6.188
10614TIP3   OH231798   3.020   2.116   5.310
10614TIP3    H131799   2.979   2.072   5.385
10614TIP3    H231800   2.970   2.197   5.301
10615TIP3   OH231801   7.013   1.147  -0.077
10615TIP3    H131802   6.938   1.088  -0.084
10615TIP3    H231803   7.088   1.089  -0.067
10616TIP3   OH231804   4.374   2.830   0.386
10616TIP3    H131805   4.419   2.804   0.466
10616TIP3    H231806   4.445   2.846   0.323
10617TIP3   OH231807   3.026   3.090   2.080
10617TIP3    H131808   3.100   3.032   2.067
10617TIP3    H231809   2.949   3.033   2.074
10618TIP3   OH231810   2.393   5.835   3.352
10618TIP3    H131811   2.313   5.875   3.316
10618TIP3    H231812   2.442   5.909   3.389
10619TIP3   OH231813   8.128   0.679   4.943
10619TIP3    H131814   8.160   0.588   4.949
10619TIP3    H231815   8.061   0.677   4.875
10620TIP3   OH231816   4.650   6.178   3.207
10620TIP3    H131817   4.650   6.126   3.127
10620TIP3    H231818   4.592   6.251   3.188
10621TIP3   OH231819   5.855   3.404   2.857
10621TIP3    H131820   5.805   3.478   2.822
10621TIP3    H231821   5.791   3.335   2.869
10622TIP3   OH231822   7.967   4.957   1.795
10622TIP3    H131823   7.887   4.974   1.844
10622TIP3    H231824   7.948   4.988   1.707
10623TIP3   OH231825   2.124   3.435   1.178
10623TIP3    H131826   2.165   3.394   1.101
10623TIP3    H231827   2.039   3.392   1.185
10624TIP3   OH231828   2.213   2.692   4.823
10624TIP3    H131829   2.253   2.748   4.890
10624TIP3    H231830   2.254   2.606   4.836
10625TIP3   OH231831   2.231   7.136   6.391
10625TIP3    H131832   2.137   7.151   6.378
10625TIP3    H231833   2.271   7.158   6.307
10626TIP3   OH231834   1.496   5.446   6.466
10626TIP3    H131835   1.489   5.538   6.491
10626TIP3    H231836   1.585   5.421   6.489
10627TIP3   OH231837   6.436   0.780   4.811
10627TIP3    H131838   6.348   0.777   4.773
10627TIP3    H231839   6.444   0.867   4.850
10628TIP3   OH231840   0.453   2.412   6.149
10628TIP3    H131841   0.381   2.388   6.091
10628TIP3    H231842   0.442   2.354   6.225
10629TIP3   OH231843   1.825   5.946   4.904
10629TIP3    H131844   1.791   5.869   4.858
10629TIP3    H231845   1.906   5.967   4.858
10630TIP3   OH231846   1.673   5.322   5.122
10630TIP3    H131847   1.717   5.274   5.051
10630TIP3    H231848   1.745   5.360   5.172
10631TIP3   OH231849   7.441   3.585   2.545
10631TIP3    H131850   7.524   3.625   2.570
10631TIP3    H231851   7.427   3.612   2.455
10632TIP3   OH231852   5.017   4.095   3.972
10632TIP3    H131853   4.998   4.011   4.013
10632TIP3    H231854   4.985   4.160   4.034
10633TIP3   OH231855   2.025   4.492   2.290
10633TIP3    H131856   2.011   4.579   2.328
10633TIP3    H231857   1.979   4.433   2.350
10634TIP3   OH231858   0.123   4.051   6.116
10634TIP3    H131859   0.054   3.992   6.084
10634TIP3    H231860   0.076   4.127   6.151
10635TIP3   OH231861   1.862   5.057   6.584
10635TIP3    H131862   1.868   5.131   6.644
10635TIP3    H231863   1.797   4.998   6.624
10636TIP3   OH231864   1.231   6.399   4.663
10636TIP3    H131865   1.279   6.430   4.586
10636TIP3    H231866   1.297   6.393   4.732
10637TIP3   OH231867   3.944   7.192   6.092
10637TIP3    H131868   4.011   7.133   6.058
10637TIP3    H231869   3.971   7.279   6.064
10638TIP3   OH231870   1.945   6.659   0.997
10638TIP3    H131871   1.910   6.571   0.984
10638TIP3    H231872   2.039   6.646   1.008
10639TIP3   OH231873   6.679   6.615   1.732
10639TIP3    H131874   6.584   6.624   1.731
10639TIP3    H231875   6.701   6.607   1.824
10640TIP3   OH231876   1.756   1.651   1.826
10640TIP3    H131877   1.833   1.688   1.869
10640TIP3    H231878   1.707   1.727   1.795
10641TIP3   OH231879   3.824   3.996   2.393
10641TIP3    H131880   3.877   3.998   2.473
10641TIP3    H231881   3.775   3.914   2.398
10642TIP3   OH231882   0.547   0.295   0.538
10642TIP3    H131883   0.632   0.285   0.496
10642TIP3    H231884   0.562   0.270   0.629
10643TIP3   OH231885   1.886   3.219   0.053
10643TIP3    H131886   1.870   3.132   0.091
10643TIP3    H231887   1.962   3.252   0.100
10644TIP3   OH231888   6.883   7.801   6.743
10644TIP3    H131889   6.864   7.895   6.745
10644TIP3    H231890   6.900   7.782   6.650
10645TIP3   OH231891   8.185   6.824   0.958
10645TIP3    H131892   8.190   6.730   0.939
10645TIP3    H231893   8.238   6.835   1.038
10646TIP3   OH231894   5.696   0.512   2.571
10646TIP3    H131895   5.648   0.465   2.503
10646TIP3    H231896   5.776   0.462   2.583
10647TIP3   OH231897   7.693   1.795   4.201
10647TIP3    H131898   7.768   1.828   4.250
10647TIP3    H231899   7.619   1.808   4.260
10648TIP3   OH231900   3.225   4.516   1.296
10648TIP3    H131901   3.282   4.512   1.220
10648TIP3    H231902   3.271   4.571   1.359
10649TIP3   OH231903   6.003   7.238   6.353
10649TIP3    H131904   6.050   7.286   6.285
10649TIP3    H231905   5.991   7.301   6.424
10650TIP3   OH231906   4.327   7.630   6.726
10650TIP3    H131907   4.269   7.651   6.800
10650TIP3    H231908   4.269   7.630   6.650
10651TIP3   OH231909   7.408   2.937   5.045
10651TIP3    H131910   7.330   2.887   5.068
10651TIP3    H231911   7.466   2.873   5.003
10652TIP3   OH231912   0.018   6.080   2.478
10652TIP3    H131913  -0.070   6.041   2.477
10652TIP3    H231914   0.035   6.104   2.387
10653TIP3   OH231915   5.430   5.671   2.511
10653TIP3    H131916   5.481   5.742   2.472
10653TIP3    H231917   5.392   5.625   2.436
10654TIP3   OH231918   0.105   0.502   1.092
10654TIP3    H131919   0.077   0.462   1.174
10654TIP3    H231920   0.192   0.467   1.076
10655TIP3   OH231921   5.517   0.099   5.834
10655TIP3    H131922   5.503   0.044   5.757
10655TIP3    H231923   5.460   0.061   5.901
10656TIP3   OH231924   5.766   2.252   3.777
10656TIP3    H131925   5.701   2.273   3.710
10656TIP3    H231926   5.832   2.320   3.769
10657TIP3   OH231927   4.445   2.863   2.930
10657TIP3    H131928   4.379   2.813   2.883
10657TIP3    H231929   4.429   2.954   2.905
10658TIP3   OH231930   4.712   6.558   4.320
10658TIP3    H131931   4.729   6.576   4.413
10658TIP3    H231932   4.639   6.616   4.297
10659TIP3   OH231933   1.639   5.568   1.477
10659TIP3    H131934   1.647   5.663   1.488
10659TIP3    H231935   1.555   5.556   1.433
10660TIP3   OH231936   4.586   4.664   2.669
10660TIP3    H131937   4.639   4.589   2.639
10660TIP3    H231938   4.496   4.637   2.654
10661TIP3   OH231939   0.985   2.859   4.241
10661TIP3    H131940   0.943   2.833   4.159
10661TIP3    H231941   0.966   2.953   4.249
10662TIP3   OH231942   4.064   7.501   2.409
10662TIP3    H131943   4.002   7.448   2.458
10662TIP3    H231944   4.082   7.576   2.466
10663TIP3   OH231945   5.279   2.293   6.329
10663TIP3    H131946   5.280   2.379   6.372
10663TIP3    H231947   5.215   2.303   6.258
10664TIP3   OH231948   3.567   1.084   4.535
10664TIP3    H131949   3.606   1.022   4.597
10664TIP3    H231950   3.536   1.156   4.590
10665TIP3   OH231951   4.644   2.407   6.015
10665TIP3    H131952   4.592   2.386   6.093
10665TIP3    H231953   4.617   2.343   5.950
10666TIP3   OH231954   6.428   3.337   1.149
10666TIP3    H131955   6.365   3.403   1.119
10666TIP3    H231956   6.473   3.379   1.222
10667TIP3   OH231957   5.221   4.103   2.052
10667TIP3    H131958   5.297   4.058   2.090
10667TIP3    H231959   5.241   4.108   1.959
10668TIP3   OH231960   2.859   2.426   2.140
10668TIP3    H131961   2.860   2.331   2.129
10668TIP3    H231962   2.910   2.442   2.219
10669TIP3   OH231963   5.949   3.193   3.403
10669TIP3    H131964   5.872   3.249   3.396
10669TIP3    H231965   5.988   3.193   3.316
10670TIP3   OH231966   2.012   5.996   4.719
10670TIP3    H131967   2.072   6.069   4.703
10670TIP3    H231968   2.019   5.942   4.641
10671TIP3   OH231969   6.894   0.244   6.394
10671TIP3    H131970   6.972   0.191   6.410
10671TIP3    H231971   6.849   0.199   6.322
10672TIP3   OH231972   5.711   4.210   2.034
10672TIP3    H131973   5.658   4.187   2.110
10672TIP3    H231974   5.657   4.185   1.959
10673TIP3   OH231975   4.971   7.389   6.635
10673TIP3    H131976   5.021   7.344   6.702
10673TIP3    H231977   4.888   7.341   6.629
10674TIP3   OH231978   2.331   0.830   1.592
10674TIP3    H131979   2.380   0.815   1.511
10674TIP3    H231980   2.390   0.800   1.662
10675TIP3   OH231981   2.573   3.752   6.617
10675TIP3    H131982   2.511   3.680   6.607
10675TIP3    H231983   2.653   3.710   6.648
10676TIP3   OH231984   2.403   2.898   0.630
10676TIP3    H131985   2.354   2.832   0.678
10676TIP3    H231986   2.429   2.961   0.697
10677TIP3   OH231987   6.725   6.593   2.972
10677TIP3    H131988   6.812   6.620   2.944
10677TIP3    H231989   6.670   6.604   2.894
10678TIP3   OH231990   6.987   1.844   6.727
10678TIP3    H131991   6.946   1.785   6.664
10678TIP3    H231992   7.045   1.898   6.673
10679TIP3   OH231993   2.261   2.943   6.436
10679TIP3    H131994   2.235   2.941   6.528
10679TIP3    H231995   2.296   3.031   6.423
10680TIP3   OH231996   6.707   2.796   5.691
10680TIP3    H131997   6.727   2.822   5.601
10680TIP3    H231998   6.783   2.743   5.717
10681TIP3   OH231999   4.630   7.571   1.502
10681TIP3    H132000   4.613   7.528   1.585
10681TIP3    H232001   4.593   7.513   1.436
10682TIP3   OH232002   0.862   2.606   1.459
10682TIP3    H132003   0.837   2.696   1.481
10682TIP3    H232004   0.957   2.608   1.449
10683TIP3   OH232005   7.758   0.933   2.758
10683TIP3    H132006   7.684   0.909   2.814
10683TIP3    H232007   7.724   1.001   2.700
10684TIP3   OH232008   1.189   1.806   0.359
10684TIP3    H132009   1.093   1.809   0.353
10684TIP3    H232010   1.217   1.767   0.276
10685TIP3   OH232011   1.582   7.700   5.892
10685TIP3    H132012   1.606   7.637   5.825
10685TIP3    H232013   1.641   7.682   5.965
10686TIP3   OH232014   1.334   0.692   3.739
10686TIP3    H132015   1.240   0.673   3.735
10686TIP3    H232016   1.340   0.768   3.797
10687TIP3   OH232017   1.149   1.515   4.822
10687TIP3    H132018   1.201   1.463   4.760
10687TIP3    H232019   1.127   1.455   4.892
10688TIP3   OH232020   3.894   6.373   1.500
10688TIP3    H132021   3.977   6.358   1.546
10688TIP3    H232022   3.838   6.300   1.527
10689TIP3   OH232023   3.519   6.712   4.363
10689TIP3    H132024   3.470   6.661   4.428
10689TIP3    H232025   3.579   6.649   4.323
10690TIP3   OH232026   6.994   2.857   6.232
10690TIP3    H132027   6.921   2.846   6.293
10690TIP3    H232028   6.963   2.920   6.168
10691TIP3   OH232029   5.456   6.274   5.833
10691TIP3    H132030   5.426   6.304   5.747
10691TIP3    H232031   5.376   6.250   5.879
10692TIP3   OH232032   0.261   7.085   6.697
10692TIP3    H132033   0.352   7.057   6.687
10692TIP3    H232034   0.237   7.056   6.786
10693TIP3   OH232035   8.029   2.122   3.108
10693TIP3    H132036   7.999   2.162   3.026
10693TIP3    H232037   8.056   2.033   3.083
10694TIP3   OH232038   4.528   0.452   4.572
10694TIP3    H132039   4.569   0.443   4.486
10694TIP3    H232040   4.583   0.514   4.619
10695TIP3   OH232041   4.556   7.201   5.018
10695TIP3    H132042   4.519   7.286   4.996
10695TIP3    H232043   4.648   7.206   4.989
10696TIP3   OH232044   0.754   6.859   5.026
10696TIP3    H132045   0.697   6.863   4.949
10696TIP3    H232046   0.723   6.930   5.082
10697TIP3   OH232047   5.584   6.805   6.295
10697TIP3    H132048   5.626   6.722   6.270
10697TIP3    H232049   5.586   6.858   6.215
10698TIP3   OH232050   1.803   4.704   6.441
10698TIP3    H132051   1.732   4.708   6.376
10698TIP3    H232052   1.864   4.640   6.405
10699TIP3   OH232053   6.445   3.385   5.136
10699TIP3    H132054   6.493   3.324   5.080
10699TIP3    H232055   6.369   3.336   5.166
10700TIP3   OH232056   4.953   1.055   6.139
10700TIP3    H132057   4.860   1.055   6.164
10700TIP3    H232058   5.000   1.057   6.222
10701TIP3   OH232059   4.124   5.389   3.992
10701TIP3    H132060   4.061   5.332   3.947
10701TIP3    H232061   4.209   5.347   3.977
10702TIP3   OH232062   3.189   6.226   1.480
10702TIP3    H132063   3.163   6.318   1.493
10702TIP3    H232064   3.181   6.186   1.566
10703TIP3   OH232065   4.829   0.399   2.664
10703TIP3    H132066   4.886   0.449   2.604
10703TIP3    H232067   4.808   0.319   2.616
10704TIP3   OH232068   2.547   1.354   1.968
10704TIP3    H132069   2.554   1.381   2.060
10704TIP3    H232070   2.522   1.262   1.971
10705TIP3   OH232071   7.051   1.667   1.721
10705TIP3    H132072   7.116   1.727   1.757
10705TIP3    H232073   7.050   1.685   1.628
10706TIP3   OH232074   6.045   6.131   6.107
10706TIP3    H132075   6.128   6.179   6.114
10706TIP3    H232076   5.993   6.181   6.045
10707TIP3   OH232077   3.290   7.057   0.276
10707TIP3    H132078   3.343   7.080   0.199
10707TIP3    H232079   3.342   6.990   0.321
10708TIP3   OH232080   5.739   4.141   2.646
10708TIP3    H132081   5.767   4.198   2.718
10708TIP3    H232082   5.705   4.063   2.689
10709TIP3   OH232083   1.187   0.650   6.574
10709TIP3    H132084   1.268   0.669   6.528
10709TIP3    H232085   1.121   0.704   6.531
10710TIP3   OH232086   1.616   6.624   3.899
10710TIP3    H132087   1.592   6.547   3.950
10710TIP3    H232088   1.533   6.658   3.866
10711TIP3   OH232089   4.204   3.407   4.290
10711TIP3    H132090   4.220   3.493   4.328
10711TIP3    H232091   4.191   3.349   4.365
10712TIP3   OH232092   6.185   0.354   0.747
10712TIP3    H132093   6.228   0.269   0.751
10712TIP3    H232094   6.254   0.415   0.720
10713TIP3   OH232095   7.543   2.484   4.709
10713TIP3    H132096   7.600   2.533   4.649
10713TIP3    H232097   7.534   2.398   4.668
10714TIP3   OH232098   1.613   7.659   4.996
10714TIP3    H132099   1.676   7.691   5.061
10714TIP3    H232100   1.608   7.728   4.930
10715TIP3   OH232101   7.432   3.417   5.659
10715TIP3    H132102   7.498   3.450   5.721
10715TIP3    H232103   7.416   3.328   5.688
10716TIP3   OH232104   8.074   2.596   6.117
10716TIP3    H132105   8.019   2.521   6.140
10716TIP3    H232106   8.109   2.575   6.031
10717TIP3   OH232107   4.921   2.585   5.226
10717TIP3    H132108   4.959   2.531   5.157
10717TIP3    H232109   4.964   2.556   5.306
10718TIP3   OH232110   7.454   6.661   3.583
10718TIP3    H132111   7.414   6.620   3.660
10718TIP3    H232112   7.451   6.755   3.601
10719TIP3   OH232113   1.557   4.528   3.427
10719TIP3    H132114   1.506   4.461   3.472
10719TIP3    H232115   1.491   4.590   3.395
10720TIP3   OH232116   7.685   5.140   2.206
10720TIP3    H132117   7.707   5.197   2.280
10720TIP3    H232118   7.593   5.157   2.189
10721TIP3   OH232119   5.336   4.008   6.437
10721TIP3    H132120   5.282   3.947   6.389
10721TIP3    H232121   5.367   4.070   6.371
10722TIP3   OH232122   7.874   1.530   0.694
10722TIP3    H132123   7.838   1.480   0.621
10722TIP3    H232124   7.803   1.588   0.721
10723TIP3   OH232125   2.526   2.284   3.698
10723TIP3    H132126   2.454   2.273   3.636
10723TIP3    H232127   2.596   2.228   3.662
10724TIP3   OH232128   2.187   0.677   6.483
10724TIP3    H132129   2.279   0.651   6.477
10724TIP3    H232130   2.169   0.724   6.402
10725TIP3   OH232131   5.921   1.165   4.954
10725TIP3    H132132   5.991   1.215   4.914
10725TIP3    H232133   5.842   1.193   4.908
10726TIP3   OH232134   7.220   3.492   6.134
10726TIP3    H132135   7.176   3.452   6.059
10726TIP3    H232136   7.172   3.573   6.150
10727TIP3   OH232137   3.589   3.222   5.603
10727TIP3    H132138   3.636   3.212   5.521
10727TIP3    H232139   3.541   3.140   5.614
10728TIP3   OH232140   1.627   0.188   6.675
10728TIP3    H132141   1.708   0.142   6.696
10728TIP3    H232142   1.628   0.194   6.579
10729TIP3   OH232143   1.130   2.459   2.462
10729TIP3    H132144   1.038   2.478   2.445
10729TIP3    H232145   1.158   2.406   2.388
10730TIP3   OH232146   0.869   1.147   0.903
10730TIP3    H132147   0.857   1.214   0.835
10730TIP3    H232148   0.780   1.116   0.920
10731TIP3   OH232149   6.590   3.847   5.057
10731TIP3    H132150   6.544   3.770   5.089
10731TIP3    H232151   6.664   3.857   5.117
10732TIP3   OH232152   0.691   1.235   3.848
10732TIP3    H132153   0.686   1.331   3.847
10732TIP3    H232154   0.773   1.214   3.803
10733TIP3   OH232155   0.454   7.703   2.531
10733TIP3    H132156   0.461   7.788   2.487
10733TIP3    H232157   0.454   7.639   2.459
10734TIP3   OH232158   5.181   1.840   1.976
10734TIP3    H132159   5.183   1.765   2.036
10734TIP3    H232160   5.139   1.910   2.026
10735TIP3   OH232161   4.066   7.610   4.704
10735TIP3    H132162   4.137   7.556   4.671
10735TIP3    H232163   4.110   7.681   4.751
10736TIP3   OH232164   4.846   1.189   3.753
10736TIP3    H132165   4.848   1.095   3.770
10736TIP3    H232166   4.763   1.204   3.708
10737TIP3   OH232167   4.515   6.283   5.133
10737TIP3    H132168   4.466   6.276   5.052
10737TIP3    H232169   4.599   6.323   5.108
10738TIP3   OH232170   5.079   2.315   1.753
10738TIP3    H132171   5.088   2.357   1.668
10738TIP3    H232172   5.074   2.387   1.816
10739TIP3   OH232173   3.720   6.996   1.392
10739TIP3    H132174   3.779   7.065   1.362
10739TIP3    H232175   3.676   7.033   1.468
10740TIP3   OH232176   5.539   6.535   5.047
10740TIP3    H132177   5.478   6.595   5.090
10740TIP3    H232178   5.489   6.499   4.974
10741TIP3   OH232179   3.676  -0.020   3.531
10741TIP3    H132180   3.610   0.017   3.589
10741TIP3    H232181   3.659   0.020   3.446
10742TIP3   OH232182   5.020   7.295   6.111
10742TIP3    H132183   4.982   7.349   6.041
10742TIP3    H232184   5.082   7.353   6.155
10743TIP3   OH232185   3.743   7.203   5.693
10743TIP3    H132186   3.763   7.163   5.608
10743TIP3    H232187   3.735   7.297   5.674
10744TIP3   OH232188  -0.011   1.268   6.064
10744TIP3    H132189  -0.099   1.243   6.092
10744TIP3    H232190   0.016   1.200   6.003
10745TIP3   OH232191   0.320   3.714   4.640
10745TIP3    H132192   0.284   3.712   4.729
10745TIP3    H232193   0.319   3.807   4.616
10746TIP3   OH232194   0.784   0.677   5.798
10746TIP3    H132195   0.847   0.607   5.818
10746TIP3    H232196   0.814   0.713   5.715
10747TIP3   OH232197   8.329   4.045   3.024
10747TIP3    H132198   8.316   4.126   3.074
10747TIP3    H232199   8.279   4.059   2.943
10748TIP3   OH232200   5.362   1.228   0.911
10748TIP3    H132201   5.453   1.257   0.921
10748TIP3    H232202   5.368   1.132   0.908
10749TIP3   OH232203   5.922   3.567   3.089
10749TIP3    H132204   5.889   3.525   3.010
10749TIP3    H232205   6.009   3.531   3.103
10750TIP3   OH232206   2.467   2.939   4.341
10750TIP3    H132207   2.448   2.909   4.430
10750TIP3    H232208   2.543   2.996   4.350
10751TIP3   OH232209   1.739   5.197   3.623
10751TIP3    H132210   1.776   5.139   3.690
10751TIP3    H232211   1.694   5.266   3.672
10752TIP3   OH232212   3.467   6.695   0.629
10752TIP3    H132213   3.507   6.774   0.665
10752TIP3    H232214   3.542   6.638   0.608
10753TIP3   OH232215   0.021   7.695   0.976
10753TIP3    H132216   0.079   7.619   0.968
10753TIP3    H232217  -0.033   7.692   0.897
10754TIP3   OH232218   2.581   3.104   3.163
10754TIP3    H132219   2.667   3.066   3.143
10754TIP3    H232220   2.546   3.129   3.078
10755TIP3   OH232221   3.957   5.110   6.635
10755TIP3    H132222   3.966   5.165   6.557
10755TIP3    H232223   3.909   5.033   6.604
10756TIP3   OH232224   7.274   2.474   6.173
10756TIP3    H132225   7.341   2.453   6.108
10756TIP3    H232226   7.248   2.564   6.153
10757TIP3   OH232227   3.132   1.168   2.398
10757TIP3    H132228   3.193   1.117   2.450
10757TIP3    H232229   3.103   1.108   2.329
10758TIP3   OH232230   3.237   0.950   5.144
10758TIP3    H132231   3.278   0.863   5.147
10758TIP3    H232232   3.202   0.963   5.232
10759TIP3   OH232233   8.153   4.829   5.286
10759TIP3    H132234   8.082   4.851   5.346
10759TIP3    H232235   8.206   4.908   5.282
10760TIP3   OH232236   5.582   1.621   3.375
10760TIP3    H132237   5.553   1.644   3.463
10760TIP3    H232238   5.537   1.682   3.317
10761TIP3   OH232239   2.080   2.325   0.738
10761TIP3    H132240   2.095   2.408   0.693
10761TIP3    H232241   2.161   2.309   0.786
10762TIP3   OH232242   2.961   6.116   4.277
10762TIP3    H132243   2.945   6.121   4.183
10762TIP3    H232244   2.902   6.047   4.307
10763TIP3   OH232245   3.853   0.620   1.422
10763TIP3    H132246   3.886   0.571   1.347
10763TIP3    H232247   3.896   0.705   1.416
10764TIP3   OH232248   2.679   7.177   4.809
10764TIP3    H132249   2.604   7.236   4.807
10764TIP3    H232250   2.755   7.234   4.796
10765TIP3   OH232251   3.215   1.983   4.053
10765TIP3    H132252   3.195   1.889   4.055
10765TIP3    H232253   3.272   1.997   4.129
10766TIP3   OH232254   4.483   6.812   5.940
10766TIP3    H132255   4.489   6.898   5.982
10766TIP3    H232256   4.391   6.789   5.944
10767TIP3   OH232257   7.614   1.100   2.590
10767TIP3    H132258   7.565   1.163   2.643
10767TIP3    H232259   7.576   1.108   2.503
10768TIP3   OH232260   1.920   0.672   5.723
10768TIP3    H132261   2.008   0.635   5.716
10768TIP3    H232262   1.861   0.598   5.710
10769TIP3   OH232263   3.292   2.262   0.860
10769TIP3    H132264   3.328   2.182   0.898
10769TIP3    H232265   3.227   2.232   0.796
10770TIP3   OH232266   7.638   6.648   6.439
10770TIP3    H132267   7.598   6.655   6.352
10770TIP3    H232268   7.568   6.613   6.495
10771TIP3   OH232269   0.769   5.454   6.444
10771TIP3    H132270   0.715   5.380   6.471
10771TIP3    H232271   0.836   5.460   6.512
10772TIP3   OH232272   2.828   1.665   0.529
10772TIP3    H132273   2.770   1.599   0.566
10772TIP3    H232274   2.774   1.744   0.521
10773TIP3   OH232275   3.265   2.629   0.423
10773TIP3    H132276   3.353   2.658   0.444
10773TIP3    H232277   3.250   2.553   0.480
10774TIP3   OH232278   5.638   4.511   1.387
10774TIP3    H132279   5.625   4.493   1.480
10774TIP3    H232280   5.624   4.606   1.379
10775TIP3   OH232281   1.999   1.473   5.991
10775TIP3    H132282   1.908   1.502   5.985
10775TIP3    H232283   1.994   1.381   6.017
10776TIP3   OH232284   4.556   0.026   2.639
10776TIP3    H132285   4.646   0.048   2.616
10776TIP3    H232286   4.514   0.110   2.657
10777TIP3   OH232287   8.070   3.746   1.189
10777TIP3    H132288   8.134   3.809   1.157
10777TIP3    H232289   8.098   3.662   1.151
10778TIP3   OH232290   7.507   0.832   1.235
10778TIP3    H132291   7.430   0.781   1.212
10778TIP3    H232292   7.549   0.783   1.306
10779TIP3   OH232293   3.404   4.682   6.245
10779TIP3    H132294   3.489   4.642   6.258
10779TIP3    H232295   3.421   4.757   6.187
10780TIP3   OH232296   2.800   5.753   6.591
10780TIP3    H132297   2.802   5.809   6.514
10780TIP3    H232298   2.848   5.674   6.564
10781TIP3   OH232299   4.473   0.029   3.021
10781TIP3    H132300   4.538   0.089   2.986
10781TIP3    H232301   4.398   0.037   2.963
10782TIP3   OH232302   0.629  -0.058   5.491
10782TIP3    H132303   0.622   0.034   5.468
10782TIP3    H232304   0.696  -0.060   5.560
10783TIP3   OH232305   6.725   0.214   3.150
10783TIP3    H132306   6.664   0.189   3.220
10783TIP3    H232307   6.811   0.212   3.193
10784TIP3   OH232308   3.656   0.617   0.338
10784TIP3    H132309   3.652   0.585   0.428
10784TIP3    H232310   3.738   0.579   0.303
10785TIP3   OH232311   0.076   1.692   4.506
10785TIP3    H132312   0.094   1.615   4.453
10785TIP3    H232313   0.143   1.756   4.481
10786TIP3   OH232314   7.125   6.893   1.307
10786TIP3    H132315   7.137   6.987   1.290
10786TIP3    H232316   7.084   6.890   1.393
10787TIP3   OH232317   7.512   6.939   4.406
10787TIP3    H132318   7.502   7.030   4.378
10787TIP3    H232319   7.605   6.920   4.394
10788TIP3   OH232320   4.780   6.242   5.340
10788TIP3    H132321   4.847   6.195   5.291
10788TIP3    H232322   4.819   6.328   5.359
10789TIP3   OH232323   3.206   1.813   6.437
10789TIP3    H132324   3.193   1.906   6.422
10789TIP3    H232325   3.271   1.808   6.507
10790TIP3   OH232326   3.730   2.719   2.707
10790TIP3    H132327   3.686   2.645   2.664
10790TIP3    H232328   3.685   2.796   2.673
10791TIP3   OH232329   0.776   2.232   2.091
10791TIP3    H132330   0.743   2.311   2.134
10791TIP3    H232331   0.839   2.264   2.027
10792TIP3   OH232332   0.305   4.309   5.978
10792TIP3    H132333   0.258   4.390   5.958
10792TIP3    H232334   0.379   4.309   5.918
10793TIP3   OH232335   2.337   1.874   4.146
10793TIP3    H132336   2.315   1.794   4.098
10793TIP3    H232337   2.290   1.944   4.100
10794TIP3   OH232338   7.020   0.803   1.964
10794TIP3    H132339   6.934   0.789   2.004
10794TIP3    H232340   7.068   0.855   2.028
10795TIP3   OH232341   7.806   2.668   6.475
10795TIP3    H132342   7.759   2.666   6.392
10795TIP3    H232343   7.796   2.579   6.510
10796TIP3   OH232344   0.128   5.086   5.965
10796TIP3    H132345   0.085   5.101   5.881
10796TIP3    H232346   0.175   5.167   5.983
10797TIP3   OH232347   1.215   6.682   2.540
10797TIP3    H132348   1.132   6.634   2.539
10797TIP3    H232349   1.259   6.651   2.619
10798TIP3   OH232350   5.866   2.308   1.084
10798TIP3    H132351   5.860   2.213   1.069
10798TIP3    H232352   5.783   2.331   1.125
10799TIP3   OH232353   4.111   2.619   4.629
10799TIP3    H132354   4.147   2.702   4.597
10799TIP3    H232355   4.167   2.596   4.703
10800TIP3   OH232356   5.194   4.867   5.961
10800TIP3    H132357   5.128   4.890   5.895
10800TIP3    H232358   5.278   4.885   5.918
10801TIP3   OH232359   5.444   0.548   3.705
10801TIP3    H132360   5.451   0.556   3.801
10801TIP3    H232361   5.358   0.508   3.691
10802TIP3   OH232362   1.728  -0.056   5.484
10802TIP3    H132363   1.720  -0.020   5.395
10802TIP3    H232364   1.705   0.018   5.541
10803TIP3   OH232365   2.627   2.118   3.110
10803TIP3    H132366   2.637   2.055   3.039
10803TIP3    H232367   2.601   2.199   3.066
10804TIP3   OH232368   3.010   3.350   4.365
10804TIP3    H132369   3.016   3.258   4.340
10804TIP3    H232370   3.016   3.398   4.283
10805TIP3   OH232371   3.317   1.833   3.367
10805TIP3    H132372   3.289   1.905   3.422
10805TIP3    H232373   3.367   1.776   3.425
10806TIP3   OH232374   1.302   0.589   1.543
10806TIP3    H132375   1.259   0.580   1.628
10806TIP3    H232376   1.356   0.511   1.535
10807TIP3   OH232377   1.174   6.720   0.326
10807TIP3    H132378   1.174   6.639   0.377
10807TIP3    H232379   1.095   6.713   0.271
10808TIP3   OH232380   4.880   4.367   6.020
10808TIP3    H132381   4.951   4.320   5.978
10808TIP3    H232382   4.828   4.403   5.948
10809TIP3   OH232383   1.243   3.864   5.491
10809TIP3    H132384   1.223   3.797   5.427
10809TIP3    H232385   1.189   3.939   5.465
10810TIP3   OH232386   7.315   5.447   1.611
10810TIP3    H132387   7.316   5.417   1.702
10810TIP3    H232388   7.242   5.400   1.571
10811TIP3   OH232389   4.581   0.141   5.543
10811TIP3    H132390   4.626   0.056   5.546
10811TIP3    H232391   4.632   0.197   5.601
10812TIP3   OH232392   4.460   0.075   0.945
10812TIP3    H132393   4.490   0.050   1.032
10812TIP3    H232394   4.386   0.017   0.928
10813TIP3   OH232395   1.980   2.803   0.509
10813TIP3    H132396   2.035   2.868   0.465
10813TIP3    H232397   2.023   2.787   0.593
10814TIP3   OH232398   0.419   3.301   1.701
10814TIP3    H132399   0.422   3.397   1.702
10814TIP3    H232400   0.326   3.279   1.707
10815TIP3   OH232401   7.061   1.292   3.980
10815TIP3    H132402   7.003   1.255   4.047
10815TIP3    H232403   7.123   1.346   4.029
10816TIP3   OH232404  -0.009   6.686   6.320
10816TIP3    H132405  -0.005   6.602   6.275
10816TIP3    H232406   0.083   6.712   6.329
10817TIP3   OH232407   1.305   2.246   1.681
10817TIP3    H132408   1.355   2.179   1.728
10817TIP3    H232409   1.334   2.329   1.719
10818TIP3   OH232410   5.684   7.161   0.910
10818TIP3    H132411   5.596   7.149   0.946
10818TIP3    H232412   5.698   7.256   0.913
10819TIP3   OH232413   4.663   0.940   5.057
10819TIP3    H132414   4.595   0.929   4.991
10819TIP3    H232415   4.743   0.954   5.007
10820TIP3   OH232416   1.412   4.089   5.904
10820TIP3    H132417   1.359   4.169   5.903
10820TIP3    H232418   1.379   4.038   5.830
10821TIP3   OH232419   7.425   6.730   0.755
10821TIP3    H132420   7.510   6.747   0.713
10821TIP3    H232421   7.418   6.634   0.756
10822TIP3   OH232422   7.706   7.144   6.141
10822TIP3    H132423   7.741   7.181   6.222
10822TIP3    H232424   7.623   7.190   6.127
10823TIP3   OH232425   2.932   0.315   0.539
10823TIP3    H132426   3.009   0.258   0.530
10823TIP3    H232427   2.967   0.403   0.527
10824TIP3   OH232428   5.030   7.721   4.025
10824TIP3    H132429   4.971   7.763   3.962
10824TIP3    H232430   4.980   7.646   4.059
10825TIP3   OH232431   0.808   6.350   5.013
10825TIP3    H132432   0.851   6.281   5.065
10825TIP3    H232433   0.876   6.383   4.955
10826TIP3   OH232434   0.500   7.163   1.405
10826TIP3    H132435   0.514   7.176   1.499
10826TIP3    H232436   0.500   7.251   1.368
10827TIP3   OH232437   5.986   4.760   5.432
10827TIP3    H132438   5.938   4.701   5.374
10827TIP3    H232439   6.078   4.745   5.411
10828TIP3   OH232440   7.539   5.373   1.034
10828TIP3    H132441   7.491   5.452   1.058
10828TIP3    H232442   7.585   5.348   1.114
10829TIP3   OH232443   1.402   1.002   1.150
10829TIP3    H132444   1.444   0.918   1.168
10829TIP3    H232445   1.359   0.990   1.066
10830TIP3   OH232446   1.491   2.429   5.571
10830TIP3    H132447   1.426   2.449   5.503
10830TIP3    H232448   1.559   2.379   5.525
10831TIP3   OH232449   3.644   6.067   1.947
10831TIP3    H132450   3.631   5.994   2.008
10831TIP3    H232451   3.720   6.114   1.981
10832TIP3   OH232452   3.861   7.747   2.254
10832TIP3    H132453   3.859   7.708   2.167
10832TIP3    H232454   3.944   7.795   2.257
10833TIP3   OH232455   3.464   1.295   4.680
10833TIP3    H132456   3.493   1.258   4.763
10833TIP3    H232457   3.420   1.377   4.704
10834TIP3   OH232458   5.771   7.403   2.308
10834TIP3    H132459   5.678   7.423   2.298
10834TIP3    H232460   5.773   7.334   2.374
10835TIP3   OH232461   6.466   5.340   6.408
10835TIP3    H132462   6.422   5.420   6.435
10835TIP3    H232463   6.559   5.362   6.409
10836TIP3   OH232464   3.497   4.667   2.298
10836TIP3    H132465   3.481   4.578   2.329
10836TIP3    H232466   3.535   4.712   2.373
10837TIP3   OH232467   3.387   3.099   6.612
10837TIP3    H132468   3.330   3.026   6.635
10837TIP3    H232469   3.368   3.118   6.520
10838TIP3   OH232470   0.369   1.868   2.113
10838TIP3    H132471   0.437   1.816   2.070
10838TIP3    H232472   0.311   1.803   2.153
10839TIP3   OH232473   6.321   6.435   4.615
10839TIP3    H132474   6.375   6.430   4.695
10839TIP3    H232475   6.296   6.527   4.610
10840TIP3   OH232476   7.371   5.182   0.924
10840TIP3    H132477   7.425   5.106   0.905
10840TIP3    H232478   7.432   5.248   0.955
10841TIP3   OH232479   4.930   2.906   6.677
10841TIP3    H132480   4.876   2.830   6.699
10841TIP3    H232481   4.944   2.900   6.582
10842TIP3   OH232482   5.699   2.212   4.221
10842TIP3    H132483   5.776   2.217   4.277
10842TIP3    H232484   5.733   2.184   4.136
10843TIP3   OH232485   6.499   3.424   0.681
10843TIP3    H132486   6.573   3.397   0.627
10843TIP3    H232487   6.531   3.501   0.728
10844TIP3   OH232488   2.929   4.508   5.121
10844TIP3    H132489   2.906   4.590   5.164
10844TIP3    H232490   2.869   4.443   5.157
10845TIP3   OH232491   4.634   2.677   6.598
10845TIP3    H132492   4.712   2.622   6.589
10845TIP3    H232493   4.582   2.659   6.520
10846TIP3   OH232494   0.022   2.210   2.505
10846TIP3    H132495   0.058   2.167   2.583
10846TIP3    H232496   0.055   2.300   2.511
10847TIP3   OH232497   6.578   5.066   1.149
10847TIP3    H132498   6.673   5.056   1.161
10847TIP3    H232499   6.561   5.030   1.062
10848TIP3   OH232500   7.870   5.754   0.763
10848TIP3    H132501   7.949   5.706   0.788
10848TIP3    H232502   7.810   5.740   0.836
10849TIP3   OH232503   6.901   6.812   4.033
10849TIP3    H132504   6.819   6.773   4.062
10849TIP3    H232505   6.929   6.867   4.107
10850TIP3   OH232506   2.982   7.675   3.642
10850TIP3    H132507   2.972   7.727   3.722
10850TIP3    H232508   2.974   7.739   3.571
10851TIP3   OH232509   6.267   5.543   3.091
10851TIP3    H132510   6.222   5.585   3.018
10851TIP3    H232511   6.197   5.522   3.153
10852TIP3   OH232512   1.811   6.939   2.276
10852TIP3    H132513   1.821   6.848   2.304
10852TIP3    H232514   1.814   6.990   2.358
10853TIP3   OH232515   8.180   7.412   6.693
10853TIP3    H132516   8.197   7.321   6.668
10853TIP3    H232517   8.182   7.461   6.611
10854TIP3   OH232518   0.304   0.575   3.377
10854TIP3    H132519   0.360   0.603   3.305
10854TIP3    H232520   0.270   0.657   3.413
10855TIP3   OH232521   3.233   2.269   6.724
10855TIP3    H132522   3.166   2.246   6.788
10855TIP3    H232523   3.311   2.222   6.753
10856TIP3   OH232524   7.339   4.320   4.334
10856TIP3    H132525   7.424   4.318   4.378
10856TIP3    H232526   7.356   4.291   4.245
10857TIP3   OH232527   1.420   1.648   4.005
10857TIP3    H132528   1.370   1.670   4.083
10857TIP3    H232529   1.354   1.619   3.942
10858TIP3   OH232530   1.792   0.320   1.276
10858TIP3    H132531   1.716   0.365   1.314
10858TIP3    H232532   1.865   0.344   1.334
10859TIP3   OH232533   3.912   5.787   3.026
10859TIP3    H132534   3.915   5.869   3.076
10859TIP3    H232535   4.002   5.775   2.994
10860TIP3   OH232536   4.913   7.207   0.856
10860TIP3    H132537   5.005   7.232   0.861
10860TIP3    H232538   4.869   7.284   0.821
10861TIP3   OH232539   6.664   0.406   6.403
10861TIP3    H132540   6.668   0.464   6.327
10861TIP3    H232541   6.742   0.352   6.397
10862TIP3   OH232542   0.102   0.967   0.382
10862TIP3    H132543   0.113   1.024   0.305
10862TIP3    H232544   0.113   0.878   0.348
10863TIP3   OH232545   4.616   3.160   5.998
10863TIP3    H132546   4.577   3.073   6.001
10863TIP3    H232547   4.680   3.160   6.069
10864TIP3   OH232548   6.181   1.017   5.219
10864TIP3    H132549   6.231   1.083   5.267
10864TIP3    H232550   6.090   1.036   5.240
10865TIP3   OH232551   1.659   6.041   3.533
10865TIP3    H132552   1.680   5.949   3.514
10865TIP3    H232553   1.586   6.061   3.475
10866TIP3   OH232554   5.436   7.725   6.125
10866TIP3    H132555   5.497   7.651   6.120
10866TIP3    H232556   5.493   7.801   6.141
10867TIP3   OH232557   8.009   5.561   2.640
10867TIP3    H132558   8.090   5.606   2.617
10867TIP3    H232559   8.002   5.570   2.735
10868TIP3   OH232560   5.363   3.173   0.575
10868TIP3    H132561   5.354   3.201   0.666
10868TIP3    H232562   5.279   3.130   0.555
10869TIP3   OH232563   1.122   1.453   4.063
10869TIP3    H132564   1.046   1.505   4.039
10869TIP3    H232565   1.171   1.509   4.124
10870TIP3   OH232566   0.497   1.394   2.839
10870TIP3    H132567   0.444   1.454   2.787
10870TIP3    H232568   0.473   1.413   2.930
10871TIP3   OH232569   2.802   3.499   5.901
10871TIP3    H132570   2.759   3.571   5.947
10871TIP3    H232571   2.776   3.420   5.948
10872TIP3   OH232572   4.311   5.790   0.670
10872TIP3    H132573   4.403   5.811   0.652
10872TIP3    H232574   4.315   5.711   0.724
10873TIP3   OH232575   4.581   6.516   1.260
10873TIP3    H132576   4.636   6.455   1.212
10873TIP3    H232577   4.551   6.467   1.336
10874TIP3   OH232578   3.268   2.449   4.025
10874TIP3    H132579   3.304   2.371   4.069
10874TIP3    H232580   3.299   2.522   4.078
10875TIP3   OH232581   1.518   2.036   4.729
10875TIP3    H132582   1.550   1.977   4.798
10875TIP3    H232583   1.555   2.001   4.648
10876TIP3   OH232584   4.433   4.446   2.402
10876TIP3    H132585   4.393   4.359   2.406
10876TIP3    H232586   4.525   4.428   2.383
10877TIP3   OH232587   3.152   5.205   3.863
10877TIP3    H132588   3.229   5.241   3.906
10877TIP3    H232589   3.081   5.218   3.925
10878TIP3   OH232590   3.514   5.734   5.263
10878TIP3    H132591   3.436   5.695   5.303
10878TIP3    H232592   3.587   5.701   5.316
10879TIP3   OH232593   5.139   2.785   2.855
10879TIP3    H132594   5.078   2.836   2.908
10879TIP3    H232595   5.147   2.702   2.901
10880TIP3   OH232596   1.802   6.369   2.199
10880TIP3    H132597   1.737   6.349   2.131
10880TIP3    H232598   1.844   6.449   2.169
10881TIP3   OH232599   6.754   4.848   2.204
10881TIP3    H132600   6.778   4.806   2.287
10881TIP3    H232601   6.659   4.839   2.199
10882TIP3   OH232602   0.473   2.672   1.713
10882TIP3    H132603   0.399   2.627   1.672
10882TIP3    H232604   0.541   2.604   1.720
10883TIP3   OH232605   3.392   0.994   3.042
10883TIP3    H132606   3.443   0.956   2.970
10883TIP3    H232607   3.306   0.952   3.034
10884TIP3   OH232608   2.499   6.321   0.144
10884TIP3    H132609   2.527   6.329   0.053
10884TIP3    H232610   2.565   6.265   0.185
10885TIP3   OH232611   1.201   4.449   0.819
10885TIP3    H132612   1.215   4.536   0.783
10885TIP3    H232613   1.106   4.437   0.817
10886TIP3   OH232614   0.261   3.717   5.344
10886TIP3    H132615   0.217   3.719   5.259
10886TIP3    H232616   0.346   3.759   5.328
10887TIP3   OH232617   3.328   6.052   6.432
10887TIP3    H132618   3.403   6.021   6.381
10887TIP3    H232619   3.309   5.980   6.492
10888TIP3   OH232620   8.030   6.276   1.121
10888TIP3    H132621   8.037   6.329   1.042
10888TIP3    H232622   8.116   6.283   1.163
10889TIP3   OH232623   1.156   6.173   5.326
10889TIP3    H132624   1.140   6.188   5.419
10889TIP3    H232625   1.220   6.240   5.302
10890TIP3   OH232626   6.772   0.287   0.350
10890TIP3    H132627   6.722   0.360   0.315
10890TIP3    H232628   6.861   0.322   0.360
10891TIP3   OH232629   2.272   7.271   1.181
10891TIP3    H132630   2.257   7.320   1.101
10891TIP3    H232631   2.339   7.206   1.157
10892TIP3   OH232632   3.226   1.910   3.793
10892TIP3    H132633   3.305   1.861   3.816
10892TIP3    H232634   3.204   1.958   3.872
10893TIP3   OH232635   1.298   0.073   1.773
10893TIP3    H132636   1.324   0.121   1.851
10893TIP3    H232637   1.244   0.134   1.723
10894TIP3   OH232638   6.207   0.599   6.544
10894TIP3    H132639   6.155   0.576   6.622
10894TIP3    H232640   6.276   0.533   6.541
10895TIP3   OH232641   0.556   7.025   6.265
10895TIP3    H132642   0.465   7.002   6.284
10895TIP3    H232643   0.600   7.023   6.350
10896TIP3   OH232644   4.933   3.885   2.519
10896TIP3    H132645   5.009   3.859   2.572
10896TIP3    H232646   4.972   3.921   2.439
10897TIP3   OH232647   4.922   3.488   2.074
10897TIP3    H132648   4.830   3.511   2.062
10897TIP3    H232649   4.944   3.438   1.995
10898TIP3   OH232650   3.968   0.315   6.104
10898TIP3    H132651   3.947   0.346   6.017
10898TIP3    H232652   3.892   0.263   6.130
10899TIP3   OH232653   1.429   2.487   1.738
10899TIP3    H132654   1.422   2.544   1.661
10899TIP3    H232655   1.516   2.446   1.730
10900TIP3   OH232656   4.947   4.241   2.697
10900TIP3    H132657   4.980   4.172   2.640
10900TIP3    H232658   5.009   4.313   2.685
10901TIP3   OH232659   0.390   7.523   3.719
10901TIP3    H132660   0.439   7.442   3.734
10901TIP3    H232661   0.334   7.532   3.796
10902TIP3   OH232662   1.899   6.896   0.278
10902TIP3    H132663   1.951   6.835   0.225
10902TIP3    H232664   1.893   6.854   0.364
10903TIP3   OH232665   1.984   7.468   2.584
10903TIP3    H132666   1.925   7.415   2.637
10903TIP3    H232667   2.033   7.521   2.647
10904TIP3   OH232668   7.913   4.901   4.696
10904TIP3    H132669   7.940   4.971   4.637
10904TIP3    H232670   7.947   4.926   4.782
10905TIP3   OH232671   0.628   1.513   3.866
10905TIP3    H132672   0.710   1.538   3.909
10905TIP3    H232673   0.635   1.551   3.778
10906TIP3   OH232674   4.484   6.945   5.158
10906TIP3    H132675   4.499   7.030   5.118
10906TIP3    H232676   4.425   6.963   5.232
10907TIP3   OH232677   7.008   3.744   4.356
10907TIP3    H132678   7.016   3.762   4.262
10907TIP3    H232679   6.932   3.686   4.363
10908TIP3   OH232680   7.775   6.494   4.175
10908TIP3    H132681   7.799   6.541   4.095
10908TIP3    H232682   7.685   6.521   4.193
10909TIP3   OH232683   7.415   5.957   6.539
10909TIP3    H132684   7.501   5.915   6.548
10909TIP3    H232685   7.401   6.001   6.622
10910TIP3   OH232686   8.116   1.572   0.828
10910TIP3    H132687   8.033   1.561   0.782
10910TIP3    H232688   8.156   1.648   0.787
10911TIP3   OH232689   0.945   7.560   0.311
10911TIP3    H132690   0.897   7.582   0.231
10911TIP3    H232691   0.919   7.471   0.332
10912TIP3   OH232692   6.635   7.257   2.033
10912TIP3    H132693   6.676   7.212   1.959
10912TIP3    H232694   6.661   7.206   2.109
10913TIP3   OH232695   2.829   1.392   0.091
10913TIP3    H132696   2.894   1.359   0.153
10913TIP3    H232697   2.842   1.340   0.012
10914TIP3   OH232698   6.867   0.036   3.925
10914TIP3    H132699   6.949   0.067   3.964
10914TIP3    H232700   6.798   0.085   3.970
10915TIP3   OH232701   2.758   2.865   3.744
10915TIP3    H132702   2.852   2.845   3.740
10915TIP3    H232703   2.725   2.812   3.816
10916TIP3   OH232704   7.774   2.620   1.963
10916TIP3    H132705   7.729   2.693   1.920
10916TIP3    H232706   7.867   2.642   1.957
10917TIP3   OH232707   0.877   6.561   6.550
10917TIP3    H132708   0.896   6.498   6.480
10917TIP3    H232709   0.939   6.632   6.535
10918TIP3   OH232710   7.546   2.406   5.034
10918TIP3    H132711   7.468   2.369   4.994
10918TIP3    H232712   7.612   2.404   4.965
10919TIP3   OH232713   3.942   0.221   4.480
10919TIP3    H132714   3.864   0.258   4.523
10919TIP3    H232715   3.910   0.191   4.395
10920TIP3   OH232716   5.374   6.667   3.311
10920TIP3    H132717   5.338   6.755   3.319
10920TIP3    H232718   5.454   6.679   3.259
10921TIP3   OH232719   2.458   3.916   3.124
10921TIP3    H132720   2.495   3.926   3.037
10921TIP3    H232721   2.365   3.898   3.109
10922TIP3   OH232722   1.842   4.755   2.446
10922TIP3    H132723   1.765   4.710   2.410
10922TIP3    H232724   1.865   4.704   2.523
10923TIP3   OH232725   0.397   5.535   2.066
10923TIP3    H132726   0.488   5.522   2.038
10923TIP3    H232727   0.357   5.449   2.059
10924TIP3   OH232728   1.111   2.804   6.523
10924TIP3    H132729   1.050   2.792   6.450
10924TIP3    H232730   1.148   2.716   6.538
10925TIP3   OH232731   6.707   7.704   3.522
10925TIP3    H132732   6.681   7.740   3.438
10925TIP3    H232733   6.721   7.611   3.506
10926TIP3   OH232734   7.209   5.222   2.352
10926TIP3    H132735   7.192   5.316   2.364
10926TIP3    H232736   7.264   5.198   2.425
10927TIP3   OH232737   5.471   3.744   0.041
10927TIP3    H132738   5.439   3.659   0.012
10927TIP3    H232739   5.528   3.774  -0.030
10928TIP3   OH232740   4.319   4.253   0.542
10928TIP3    H132741   4.237   4.302   0.541
10928TIP3    H232742   4.372   4.294   0.610
10929TIP3   OH232743   7.847   0.999   1.553
10929TIP3    H132744   7.815   1.081   1.516
10929TIP3    H232745   7.773   0.939   1.545
10930TIP3   OH232746   1.184   7.367   5.127
10930TIP3    H132747   1.162   7.310   5.053
10930TIP3    H232748   1.278   7.382   5.118
10931TIP3   OH232749   0.703   5.352   4.664
10931TIP3    H132750   0.637   5.413   4.632
10931TIP3    H232751   0.677   5.267   4.627
10932TIP3   OH232752   7.633   0.962   5.469
10932TIP3    H132753   7.710   0.964   5.525
10932TIP3    H232754   7.666   0.939   5.382
10933TIP3   OH232755   3.978   3.402   6.116
10933TIP3    H132756   3.973   3.307   6.102
10933TIP3    H232757   4.041   3.412   6.187
10934TIP3   OH232758   6.039   5.478   3.236
10934TIP3    H132759   5.974   5.511   3.297
10934TIP3    H232760   5.992   5.412   3.184
10935TIP3   OH232761   4.025   2.800   5.260
10935TIP3    H132762   3.965   2.728   5.281
10935TIP3    H232763   3.977   2.855   5.198
10936TIP3   OH232764   1.182   0.383   6.430
10936TIP3    H132765   1.176   0.448   6.500
10936TIP3    H232766   1.185   0.435   6.350
10937TIP3   OH232767   3.066   1.519   3.852
10937TIP3    H132768   3.055   1.429   3.883
10937TIP3    H232769   3.069   1.511   3.756
10938TIP3   OH232770   1.250   1.161   1.812
10938TIP3    H132771   1.293   1.245   1.828
10938TIP3    H232772   1.232   1.126   1.899
10939TIP3   OH232773   6.813   0.468   0.873
10939TIP3    H132774   6.786   0.417   0.797
10939TIP3    H232775   6.801   0.559   0.846
10940TIP3   OH232776   7.347   6.468   2.637
10940TIP3    H132777   7.370   6.504   2.552
10940TIP3    H232778   7.367   6.375   2.631
10941TIP3   OH232779   0.812   5.016   4.200
10941TIP3    H132780   0.772   5.092   4.158
10941TIP3    H232781   0.849   5.050   4.282
10942TIP3   OH232782   6.582   4.564   4.066
10942TIP3    H132783   6.639   4.615   4.008
10942TIP3    H232784   6.618   4.476   4.063
10943TIP3   OH232785   1.057   2.934   1.004
10943TIP3    H132786   1.019   2.848   1.024
10943TIP3    H232787   1.136   2.914   0.954
10944TIP3   OH232788   7.255   3.153   2.848
10944TIP3    H132789   7.332   3.206   2.871
10944TIP3    H232790   7.279   3.064   2.873
10945TIP3   OH232791   3.232   5.394   3.432
10945TIP3    H132792   3.236   5.431   3.344
10945TIP3    H232793   3.227   5.300   3.419
10946TIP3   OH232794   6.558   1.409   1.494
10946TIP3    H132795   6.628   1.350   1.467
10946TIP3    H232796   6.562   1.409   1.590
10947TIP3   OH232797   0.734   6.103   1.853
10947TIP3    H132798   0.746   6.160   1.778
10947TIP3    H232799   0.736   6.014   1.816
10948TIP3   OH232800   6.277   5.429   1.700
10948TIP3    H132801   6.337   5.362   1.667
10948TIP3    H232802   6.261   5.486   1.625
10949TIP3   OH232803   2.865   6.066   2.397
10949TIP3    H132804   2.816   6.147   2.412
10949TIP3    H232805   2.903   6.044   2.482
10950TIP3   OH232806   1.663   4.191   0.250
10950TIP3    H132807   1.644   4.100   0.276
10950TIP3    H232808   1.582   4.238   0.270
10951TIP3   OH232809   4.268   7.312   3.898
10951TIP3    H132810   4.230   7.370   3.832
10951TIP3    H232811   4.260   7.224   3.860
10952TIP3   OH232812   7.030   6.993   1.843
10952TIP3    H132813   6.989   6.999   1.757
10952TIP3    H232814   6.975   7.048   1.899
10953TIP3   OH232815   1.609   1.579   4.431
10953TIP3    H132816   1.620   1.493   4.472
10953TIP3    H232817   1.525   1.572   4.385
10954TIP3   OH232818   6.006   6.373   4.115
10954TIP3    H132819   6.038   6.310   4.180
10954TIP3    H232820   6.080   6.433   4.102
10955TIP3   OH232821   4.871   4.556   2.429
10955TIP3    H132822   4.874   4.650   2.445
10955TIP3    H232823   4.820   4.521   2.502
10956TIP3   OH232824   5.641   7.169   0.596
10956TIP3    H132825   5.716   7.129   0.551
10956TIP3    H232826   5.661   7.157   0.689
10957TIP3   OH232827   3.193   5.961   1.100
10957TIP3    H132828   3.283   5.931   1.107
10957TIP3    H232829   3.178   5.971   1.006
10958TIP3   OH232830   2.146   5.847   0.818
10958TIP3    H132831   2.063   5.893   0.802
10958TIP3    H232832   2.138   5.813   0.907
10959TIP3   OH232833   6.068   2.201   1.706
10959TIP3    H132834   6.140   2.160   1.658
10959TIP3    H232835   6.099   2.289   1.726
10960TIP3   OH232836   0.552   0.511   3.874
10960TIP3    H132837   0.483   0.482   3.815
10960TIP3    H232838   0.521   0.486   3.962
10961TIP3   OH232839   7.868   7.676   4.329
10961TIP3    H132840   7.776   7.701   4.339
10961TIP3    H232841   7.872   7.634   4.243
10962TIP3   OH232842   6.546   5.475   3.160
10962TIP3    H132843   6.618   5.469   3.097
10962TIP3    H232844   6.483   5.533   3.119
10963TIP3   OH232845   0.682   6.504   1.554
10963TIP3    H132846   0.591   6.488   1.530
10963TIP3    H232847   0.676   6.557   1.634
10964TIP3   OH232848   3.165   6.680   5.928
10964TIP3    H132849   3.247   6.691   5.879
10964TIP3    H232850   3.144   6.587   5.919
10965TIP3   OH232851   5.298   7.803   0.282
10965TIP3    H132852   5.349   7.774   0.207
10965TIP3    H232853   5.320   7.896   0.293
10966TIP3   OH232854   7.316   2.860   4.661
10966TIP3    H132855   7.304   2.811   4.743
10966TIP3    H232856   7.276   2.945   4.678
10967TIP3   OH232857   0.249   3.209   1.190
10967TIP3    H132858   0.333   3.246   1.161
10967TIP3    H232859   0.262   3.114   1.185
10968TIP3   OH232860   0.895   3.937   6.648
10968TIP3    H132861   0.872   3.888   6.727
10968TIP3    H232862   0.853   3.889   6.577
10969TIP3   OH232863   0.289   7.334   6.618
10969TIP3    H132864   0.277   7.243   6.645
10969TIP3    H232865   0.365   7.364   6.669
10970TIP3   OH232866   3.122   7.728   1.994
10970TIP3    H132867   3.066   7.764   2.063
10970TIP3    H232868   3.108   7.633   1.998
10971TIP3   OH232869   3.024   4.719   0.083
10971TIP3    H132870   2.944   4.755   0.120
10971TIP3    H232871   3.091   4.737   0.148
10972TIP3   OH232872   5.798   7.425   2.854
10972TIP3    H132873   5.814   7.331   2.842
10972TIP3    H232874   5.758   7.453   2.772
10973TIP3   OH232875   1.265   0.625   5.627
10973TIP3    H132876   1.236   0.534   5.631
10973TIP3    H232877   1.188   0.677   5.649
10974TIP3   OH232878   0.368   2.114   0.380
10974TIP3    H132879   0.431   2.126   0.452
10974TIP3    H232880   0.413   2.059   0.317
10975TIP3   OH232881   4.311   5.438   6.048
10975TIP3    H132882   4.272   5.390   5.974
10975TIP3    H232883   4.372   5.499   6.007
10976TIP3   OH232884   3.606   0.735   1.620
10976TIP3    H132885   3.701   0.720   1.623
10976TIP3    H232886   3.584   0.736   1.527
10977TIP3   OH232887   2.397   3.938   3.742
10977TIP3    H132888   2.456   3.932   3.817
10977TIP3    H232889   2.390   4.032   3.725
10978TIP3   OH232890   4.884   5.227   0.859
10978TIP3    H132891   4.833   5.304   0.884
10978TIP3    H232892   4.912   5.188   0.942
10979TIP3   OH232893   0.302   6.961   1.317
10979TIP3    H132894   0.254   7.031   1.272
10979TIP3    H232895   0.386   7.000   1.339
10980TIP3   OH232896   4.202   2.891   0.764
10980TIP3    H132897   4.186   2.892   0.669
10980TIP3    H232898   4.290   2.927   0.773
10981TIP3   OH232899   2.990   0.132   2.055
10981TIP3    H132900   2.995   0.181   2.137
10981TIP3    H232901   3.079   0.134   2.020
10982TIP3   OH232902   5.644   6.470   1.024
10982TIP3    H132903   5.694   6.389   1.040
10982TIP3    H232904   5.667   6.494   0.934
10983TIP3   OH232905   4.779   1.912   6.359
10983TIP3    H132906   4.795   1.833   6.307
10983TIP3    H232907   4.867   1.946   6.377
10984TIP3   OH232908   2.129   6.818   4.403
10984TIP3    H132909   2.087   6.737   4.431
10984TIP3    H232910   2.130   6.873   4.481
10985TIP3   OH232911   3.466  -0.004   0.934
10985TIP3    H132912   3.419  -0.044   1.007
10985TIP3    H232913   3.522   0.062   0.975
10986TIP3   OH232914   3.408   3.346   0.995
10986TIP3    H132915   3.381   3.429   1.034
10986TIP3    H232916   3.376   3.279   1.056
10987TIP3   OH232917   3.951   3.401   0.665
10987TIP3    H132918   3.999   3.376   0.744
10987TIP3    H232919   4.004   3.470   0.625
10988TIP3   OH232920   7.432   3.900   4.750
10988TIP3    H132921   7.407   3.984   4.712
10988TIP3    H232922   7.440   3.841   4.675
10989TIP3   OH232923   3.678   1.730   0.875
10989TIP3    H132924   3.651   1.805   0.822
10989TIP3    H232925   3.651   1.754   0.964
10990TIP3   OH232926   2.467   3.278   0.497
10990TIP3    H132927   2.414   3.333   0.440
10990TIP3    H232928   2.476   3.195   0.450
10991TIP3   OH232929   5.584   4.394   0.242
10991TIP3    H132930   5.589   4.300   0.258
10991TIP3    H232931   5.624   4.433   0.320
10992TIP3   OH232932   0.890   7.726   3.054
10992TIP3    H132933   0.933   7.732   2.968
10992TIP3    H232934   0.800   7.699   3.034
10993TIP3   OH232935   2.003   6.457   1.581
10993TIP3    H132936   1.970   6.543   1.609
10993TIP3    H232937   1.959   6.441   1.497
10994TIP3   OH232938   5.804   3.194   6.663
10994TIP3    H132939   5.893   3.195   6.629
10994TIP3    H232940   5.803   3.122   6.726
10995TIP3   OH232941   7.096   1.203   2.935
10995TIP3    H132942   7.147   1.145   2.879
10995TIP3    H232943   7.040   1.144   2.986
10996TIP3   OH232944   7.326   6.739   2.382
10996TIP3    H132945   7.304   6.730   2.474
10996TIP3    H232946   7.268   6.808   2.350
10997TIP3   OH232947   4.321   3.768   4.902
10997TIP3    H132948   4.240   3.719   4.888
10997TIP3    H232949   4.294   3.845   4.952
10998TIP3   OH232950   4.739   1.198   3.224
10998TIP3    H132951   4.701   1.111   3.229
10998TIP3    H232952   4.832   1.183   3.212
10999TIP3   OH232953   5.920   7.017   5.266
10999TIP3    H132954   5.940   6.943   5.209
10999TIP3    H232955   5.950   6.989   5.353
11000TIP3   OH232956   5.583   0.340   2.022
11000TIP3    H132957   5.494   0.306   2.027
11000TIP3    H232958   5.630   0.275   1.970
11001TIP3   OH232959   2.614   5.938   4.702
11001TIP3    H132960   2.662   5.858   4.724
11001TIP3    H232961   2.607   5.936   4.607
11002TIP3   OH232962   4.963   6.662   0.952
11002TIP3    H132963   4.973   6.649   0.858
11002TIP3    H232964   4.881   6.619   0.974
11003TIP3   OH232965   0.433   1.749   5.713
11003TIP3    H132966   0.516   1.706   5.694
11003TIP3    H232967   0.428   1.749   5.809
11004TIP3   OH232968   5.627   5.174   3.814
11004TIP3    H132969   5.580   5.137   3.740
11004TIP3    H232970   5.693   5.232   3.775
11005TIP3   OH232971   1.318   7.278   4.608
11005TIP3    H132972   1.227   7.307   4.612
11005TIP3    H232973   1.366   7.342   4.660
11006TIP3   OH232974   6.509   7.178   4.017
11006TIP3    H132975   6.481   7.103   4.070
11006TIP3    H232976   6.430   7.202   3.969
11007TIP3   OH232977   7.215   5.733   3.399
11007TIP3    H132978   7.207   5.640   3.417
11007TIP3    H232979   7.248   5.771   3.480
11008TIP3   OH232980   4.438   4.501   2.086
11008TIP3    H132981   4.401   4.471   2.169
11008TIP3    H232982   4.376   4.567   2.055
11009TIP3   OH232983   3.128   0.690   5.584
11009TIP3    H132984   3.155   0.644   5.504
11009TIP3    H232985   3.189   0.660   5.651
11010TIP3   OH232986   1.878   4.799   4.969
11010TIP3    H132987   1.973   4.790   4.972
11010TIP3    H232988   1.856   4.844   5.051
11011TIP3   OH232989   1.792   6.944   1.588
11011TIP3    H132990   1.772   7.027   1.545
11011TIP3    H232991   1.716   6.889   1.571
11012TIP3   OH232992   6.887   1.187   4.191
11012TIP3    H132993   6.941   1.145   4.258
11012TIP3    H232994   6.815   1.227   4.240
11013TIP3   OH232995   3.071   0.781   3.694
11013TIP3    H132996   3.089   0.739   3.610
11013TIP3    H232997   2.979   0.805   3.690
11014TIP3   OH232998   2.279   3.994   1.912
11014TIP3    H132999   2.374   4.004   1.909
11014TIP3    H233000   2.245   4.070   1.864
11015TIP3   OH233001   2.491   1.821   1.761
11015TIP3    H133002   2.445   1.760   1.704
11015TIP3    H233003   2.443   1.903   1.753
11016TIP3   OH233004   7.379   5.817   1.211
11016TIP3    H133005   7.320   5.868   1.156
11016TIP3    H233006   7.357   5.726   1.192
11017TIP3   OH233007   5.055   3.910   6.706
11017TIP3    H133008   5.148   3.899   6.684
11017TIP3    H233009   5.023   3.821   6.721
11018TIP3   OH233010   5.409   2.493   6.107
11018TIP3    H133011   5.399   2.426   6.174
11018TIP3    H233012   5.467   2.558   6.146
11019TIP3   OH233013   2.484   4.061   6.701
11019TIP3    H133014   2.407   4.114   6.725
11019TIP3    H233015   2.556   4.101   6.751
11020TIP3   OH233016   1.959   2.748   3.957
11020TIP3    H133017   1.950   2.732   3.863
11020TIP3    H233018   2.016   2.825   3.963
11021TIP3   OH233019   5.421   5.811   5.196
11021TIP3    H133020   5.492   5.875   5.203
11021TIP3    H233021   5.343   5.859   5.224
11022TIP3   OH233022   6.775   0.859   2.309
11022TIP3    H133023   6.742   0.933   2.257
11022TIP3    H233024   6.720   0.858   2.387
11023TIP3   OH233025   4.501   0.757   1.502
11023TIP3    H133026   4.527   0.679   1.551
11023TIP3    H233027   4.415   0.735   1.465
11024TIP3   OH233028   3.550   7.429   4.788
11024TIP3    H133029   3.623   7.421   4.726
11024TIP3    H233030   3.540   7.341   4.825
11025TIP3   OH233031   4.085   6.746   2.935
11025TIP3    H133032   4.078   6.743   3.030
11025TIP3    H233033   4.179   6.738   2.917
11026TIP3   OH233034   3.284   4.999   2.157
11026TIP3    H133035   3.376   4.985   2.134
11026TIP3    H233036   3.242   4.915   2.138
11027TIP3   OH233037   5.902   0.098   0.084
11027TIP3    H133038   5.868   0.084   0.172
11027TIP3    H233039   5.825   0.096   0.027
11028TIP3   OH233040   6.496   5.778   1.111
11028TIP3    H133041   6.576   5.738   1.076
11028TIP3    H233042   6.426   5.742   1.056
11029TIP3   OH233043   5.782   7.523   2.560
11029TIP3    H133044   5.783   7.619   2.562
11029TIP3    H233045   5.689   7.500   2.550
11030TIP3   OH233046   5.518   1.102   1.198
11030TIP3    H133047   5.460   1.147   1.260
11030TIP3    H233048   5.574   1.171   1.164
11031TIP3   OH233049   0.225   7.229   0.912
11031TIP3    H133050   0.313   7.200   0.887
11031TIP3    H233051   0.169   7.153   0.896
11032TIP3   OH233052   8.059   4.997   4.924
11032TIP3    H133053   8.060   5.062   4.995
11032TIP3    H233054   8.152   4.984   4.903
11033TIP3   OH233055   1.023   1.638   2.623
11033TIP3    H133056   0.960   1.567   2.624
11033TIP3    H233057   1.099   1.603   2.670
11034TIP3   OH233058   7.401   2.955   1.896
11034TIP3    H133059   7.313   2.977   1.929
11034TIP3    H233060   7.459   2.969   1.971
11035TIP3   OH233061   0.302   2.530   1.053
11035TIP3    H133062   0.313   2.587   0.977
11035TIP3    H233063   0.208   2.509   1.053
11036TIP3   OH233064   6.236   7.774   6.412
11036TIP3    H133065   6.193   7.789   6.496
11036TIP3    H233066   6.275   7.687   6.420
11037TIP3   OH233067   4.338   6.947   2.526
11037TIP3    H133068   4.353   6.930   2.433
11037TIP3    H233069   4.292   7.031   2.528
11038TIP3   OH233070   6.493   3.282   5.654
11038TIP3    H133071   6.403   3.271   5.622
11038TIP3    H233072   6.505   3.377   5.657
11039TIP3   OH233073   6.684   4.317   0.793
11039TIP3    H133074   6.698   4.226   0.818
11039TIP3    H233075   6.596   4.319   0.757
11040TIP3   OH233076   5.311   2.327   2.077
11040TIP3    H133077   5.370   2.258   2.044
11040TIP3    H233078   5.272   2.365   1.998
11041TIP3   OH233079   7.892   6.410   6.172
11041TIP3    H133080   7.883   6.396   6.266
11041TIP3    H233081   7.804   6.394   6.137
11042TIP3   OH233082   1.411   4.229   5.520
11042TIP3    H133083   1.426   4.260   5.431
11042TIP3    H233084   1.497   4.197   5.548
11043TIP3   OH233085   5.060   2.423   5.035
11043TIP3    H133086   5.127   2.490   5.048
11043TIP3    H233087   5.016   2.449   4.953
11044TIP3   OH233088   3.725   0.174   0.790
11044TIP3    H133089   3.711   0.121   0.868
11044TIP3    H233090   3.789   0.124   0.738
11045TIP3   OH233091   4.661   0.558   2.786
11045TIP3    H133092   4.719   0.489   2.756
11045TIP3    H233093   4.615   0.588   2.707
11046TIP3   OH233094   5.162   2.396   3.323
11046TIP3    H133095   5.088   2.430   3.374
11046TIP3    H233096   5.230   2.462   3.334
11047TIP3   OH233097   0.591   1.468   0.567
11047TIP3    H133098   0.519   1.442   0.624
11047TIP3    H233099   0.651   1.516   0.625
11048TIP3   OH233100   3.357   1.240   6.110
11048TIP3    H133101   3.275   1.231   6.061
11048TIP3    H233102   3.389   1.327   6.086
11049TIP3   OH233103   0.920   1.765   0.343
11049TIP3    H133104   0.915   1.683   0.294
11049TIP3    H233105   0.838   1.810   0.324
11050TIP3   OH233106   7.710   5.545   2.805
11050TIP3    H133107   7.748   5.471   2.758
11050TIP3    H233108   7.616   5.527   2.805
11051TIP3   OH233109   5.013   2.952   1.475
11051TIP3    H133110   5.093   2.899   1.471
11051TIP3    H233111   4.967   2.920   1.552
11052TIP3   OH233112   2.748   4.337   3.207
11052TIP3    H133113   2.733   4.299   3.120
11052TIP3    H233114   2.779   4.264   3.260
11053TIP3   OH233115   6.328   2.626   4.133
11053TIP3    H133116   6.267   2.556   4.158
11053TIP3    H233117   6.275   2.686   4.081
11054TIP3   OH233118   6.298   7.004   6.294
11054TIP3    H133119   6.220   7.022   6.242
11054TIP3    H233120   6.347   7.086   6.294
11055TIP3   OH233121   4.149   3.471   2.126
11055TIP3    H133122   4.152   3.563   2.154
11055TIP3    H233123   4.233   3.457   2.081
11056TIP3   OH233124   2.278   0.563   2.732
11056TIP3    H133125   2.217   0.626   2.694
11056TIP3    H233126   2.227   0.482   2.739
11057TIP3   OH233127   5.979   2.734   6.047
11057TIP3    H133128   6.023   2.746   6.131
11057TIP3    H233129   5.957   2.823   6.019
11058TIP3   OH233130   5.314   4.905   4.104
11058TIP3    H133131   5.395   4.918   4.054
11058TIP3    H233132   5.245   4.900   4.038
11059TIP3   OH233133   7.564   3.382   5.409
11059TIP3    H133134   7.599   3.469   5.390
11059TIP3    H233135   7.528   3.390   5.497
11060TIP3   OH233136   2.283   7.684   0.201
11060TIP3    H133137   2.359   7.717   0.153
11060TIP3    H233138   2.307   7.595   0.225
11061TIP3   OH233139   0.417   0.263   6.407
11061TIP3    H133140   0.364   0.318   6.465
11061TIP3    H233141   0.497   0.245   6.457
11062TIP3   OH233142   3.988   7.757   5.928
11062TIP3    H133143   3.996   7.852   5.916
11062TIP3    H233144   3.961   7.724   5.842
11063TIP3   OH233145   1.653   5.185   0.084
11063TIP3    H133146   1.629   5.235   0.006
11063TIP3    H233147   1.581   5.124   0.097
11064TIP3   OH233148   3.061   5.307   5.409
11064TIP3    H133149   3.064   5.240   5.340
11064TIP3    H233150   3.149   5.343   5.410
11065TIP3   OH233151   6.605   3.759   1.092
11065TIP3    H133152   6.639   3.846   1.113
11065TIP3    H233153   6.675   3.699   1.118
11066TIP3   OH233154   7.109   5.798   6.694
11066TIP3    H133155   7.068   5.844   6.767
11066TIP3    H233156   7.148   5.867   6.641
11067TIP3   OH233157   2.595   1.904   6.223
11067TIP3    H133158   2.636   1.873   6.304
11067TIP3    H233159   2.660   1.885   6.155
11068TIP3   OH233160   1.196   6.314   2.976
11068TIP3    H133161   1.110   6.273   2.983
11068TIP3    H233162   1.212   6.321   2.882
11069TIP3   OH233163   6.111   7.461   1.431
11069TIP3    H133164   6.120   7.546   1.388
11069TIP3    H233165   6.133   7.398   1.363
11070TIP3   OH233166   3.551   7.300   4.359
11070TIP3    H133167   3.510   7.251   4.430
11070TIP3    H233168   3.591   7.375   4.402
11071TIP3   OH233169   5.898   3.079   5.544
11071TIP3    H133170   5.991   3.101   5.548
11071TIP3    H233171   5.887   3.036   5.459
11072TIP3   OH233172   5.501   1.731   4.484
11072TIP3    H133173   5.436   1.800   4.470
11072TIP3    H233174   5.516   1.731   4.579
11073TIP3   OH233175   0.307   0.749   5.252
11073TIP3    H133176   0.264   0.666   5.230
11073TIP3    H233177   0.287   0.807   5.178
11074TIP3   OH233178   5.834   3.663   5.186
11074TIP3    H133179   5.893   3.721   5.234
11074TIP3    H233180   5.765   3.642   5.249
11075TIP3   OH233181   3.514   0.115   3.969
11075TIP3    H133182   3.476   0.100   4.055
11075TIP3    H233183   3.567   0.037   3.951
11076TIP3   OH233184   1.521   4.921   6.424
11076TIP3    H133185   1.599   4.866   6.432
11076TIP3    H233186   1.556   5.010   6.416
11077TIP3   OH233187   6.998   5.851   0.073
11077TIP3    H133188   7.023   5.875   0.162
11077TIP3    H233189   7.006   5.932   0.023
11078TIP3   OH233190   7.451   4.356   0.503
11078TIP3    H133191   7.443   4.430   0.564
11078TIP3    H233192   7.512   4.387   0.436
11079TIP3   OH233193   7.349   6.330   1.946
11079TIP3    H133194   7.400   6.299   2.021
11079TIP3    H233195   7.264   6.354   1.983
11080TIP3   OH233196   8.269   4.253   6.179
11080TIP3    H133197   8.317   4.311   6.238
11080TIP3    H233198   8.179   4.254   6.212
11081TIP3   OH233199   2.718   5.074   1.805
11081TIP3    H133200   2.726   5.162   1.842
11081TIP3    H233201   2.796   5.064   1.751
11082TIP3   OH233202   8.243   0.713   2.093
11082TIP3    H133203   8.228   0.807   2.096
11082TIP3    H233204   8.284   0.697   2.008
11083TIP3   OH233205   3.645   1.076   5.745
11083TIP3    H133206   3.620   0.987   5.723
11083TIP3    H233207   3.628   1.083   5.839
11084TIP3   OH233208   3.371   1.829   1.026
11084TIP3    H133209   3.359   1.793   1.114
11084TIP3    H233210   3.383   1.752   0.970
11085TIP3   OH233211   6.980   4.538   2.758
11085TIP3    H133212   7.021   4.452   2.771
11085TIP3    H233213   6.986   4.580   2.844
11086TIP3   OH233214   7.182   5.362   5.353
11086TIP3    H133215   7.242   5.417   5.402
11086TIP3    H233216   7.127   5.320   5.420
11087TIP3   OH233217   1.034   2.141   2.771
11087TIP3    H133218   1.027   2.205   2.702
11087TIP3    H233219   0.954   2.088   2.764
11088TIP3   OH233220   1.598   0.458   5.747
11088TIP3    H133221   1.599   0.553   5.733
11088TIP3    H233222   1.505   0.435   5.751
11089TIP3   OH233223   4.348   3.229   3.594
11089TIP3    H133224   4.358   3.221   3.499
11089TIP3    H233225   4.366   3.141   3.627
11090TIP3   OH233226   6.414   4.972   6.599
11090TIP3    H133227   6.446   4.883   6.609
11090TIP3    H233228   6.492   5.027   6.611
11091TIP3   OH233229   7.323   6.474   1.712
11091TIP3    H133230   7.335   6.412   1.785
11091TIP3    H233231   7.254   6.434   1.658
11092TIP3   OH233232   4.418   3.091   4.384
11092TIP3    H133233   4.349   3.153   4.407
11092TIP3    H233234   4.414   3.085   4.289
11093TIP3   OH233235   4.475   7.394   0.175
11093TIP3    H133236   4.567   7.370   0.165
11093TIP3    H233237   4.466   7.416   0.268
11094TIP3   OH233238   4.655   7.251   5.286
11094TIP3    H133239   4.689   7.320   5.228
11094TIP3    H233240   4.561   7.252   5.272
11095TIP3   OH233241   3.225   3.523   5.254
11095TIP3    H133242   3.215   3.601   5.307
11095TIP3    H233243   3.314   3.493   5.271
11096TIP3   OH233244   6.684   2.542   4.808
11096TIP3    H133245   6.698   2.482   4.882
11096TIP3    H233246   6.629   2.493   4.747
11097TIP3   OH233247   3.090   1.825   1.780
11097TIP3    H133248   3.051   1.906   1.814
11097TIP3    H233249   3.113   1.775   1.859
11098TIP3   OH233250   6.988   3.748   5.093
11098TIP3    H133251   7.050   3.760   5.020
11098TIP3    H233252   6.931   3.825   5.089
11099TIP3   OH233253   5.951   1.820   2.801
11099TIP3    H133254   5.988   1.898   2.760
11099TIP3    H233255   5.856   1.831   2.793
11100TIP3   OH233256   3.703   7.797   2.888
11100TIP3    H133257   3.611   7.805   2.914
11100TIP3    H233258   3.729   7.709   2.915
11101TIP3   OH233259   0.462   5.072   4.154
11101TIP3    H133260   0.513   5.052   4.076
11101TIP3    H233261   0.398   5.137   4.124
11102TIP3   OH233262   6.012   6.759   2.533
11102TIP3    H133263   5.923   6.768   2.499
11102TIP3    H233264   6.008   6.684   2.591
11103TIP3   OH233265   6.025   0.334   2.817
11103TIP3    H133266   5.994   0.259   2.867
11103TIP3    H233267   6.115   0.347   2.845
11104TIP3   OH233268   2.619   5.158   5.636
11104TIP3    H133269   2.567   5.222   5.685
11104TIP3    H233270   2.665   5.210   5.570
11105TIP3   OH233271   0.125   1.828   1.660
11105TIP3    H133272   0.159   1.838   1.571
11105TIP3    H233273   0.030   1.833   1.650
11106TIP3   OH233274   6.137   2.061   3.031
11106TIP3    H133275   6.202   2.024   2.971
11106TIP3    H233276   6.157   2.020   3.116
11107TIP3   OH233277   6.275   3.908   4.929
11107TIP3    H133278   6.345   3.848   4.955
11107TIP3    H233279   6.273   3.974   4.999
11108TIP3   OH233280   5.971   0.150   4.945
11108TIP3    H133281   5.887   0.188   4.919
11108TIP3    H233282   5.954   0.113   5.032
11109TIP3   OH233283   2.183   1.247   2.228
11109TIP3    H133284   2.206   1.155   2.223
11109TIP3    H233285   2.224   1.278   2.309
11110TIP3   OH233286   7.228   4.536   6.543
11110TIP3    H133287   7.222   4.440   6.549
11110TIP3    H233288   7.152   4.562   6.492
11111TIP3   OH233289   4.128   1.427   5.096
11111TIP3    H133290   4.116   1.421   5.190
11111TIP3    H233291   4.075   1.356   5.060
11112TIP3   OH233292   6.508   3.875   3.930
11112TIP3    H133293   6.420   3.901   3.904
11112TIP3    H233294   6.547   3.838   3.852
11113TIP3   OH233295   5.485   1.639   5.261
11113TIP3    H133296   5.473   1.618   5.353
11113TIP3    H233297   5.502   1.554   5.219
11114TIP3   OH233298   5.059   3.176   1.322
11114TIP3    H133299   4.993   3.170   1.253
11114TIP3    H233300   5.061   3.089   1.362
11115TIP3   OH233301   8.073   0.515   3.129
11115TIP3    H133302   8.008   0.445   3.134
11115TIP3    H233303   8.085   0.542   3.220
11116TIP3   OH233304   4.354   7.271   3.324
11116TIP3    H133305   4.277   7.265   3.382
11116TIP3    H233306   4.429   7.266   3.383
11117TIP3   OH233307   5.673   4.404   1.673
11117TIP3    H133308   5.707   4.460   1.743
11117TIP3    H233309   5.750   4.358   1.640
11118TIP3   OH233310   5.812   2.857   3.863
11118TIP3    H133311   5.869   2.815   3.928
11118TIP3    H233312   5.769   2.784   3.818
11119TIP3   OH233313   4.370   1.187   2.425
11119TIP3    H133314   4.347   1.146   2.509
11119TIP3    H233315   4.290   1.231   2.397
11120TIP3   OH233316   5.733   4.841   4.928
11120TIP3    H133317   5.763   4.756   4.962
11120TIP3    H233318   5.717   4.893   5.006
11121TIP3   OH233319   4.599   1.767   5.183
11121TIP3    H133320   4.632   1.812   5.105
11121TIP3    H233321   4.668   1.705   5.205
11122TIP3   OH233322   7.932   7.427   0.729
11122TIP3    H133323   8.021   7.433   0.696
11122TIP3    H233324   7.878   7.465   0.659
11123TIP3   OH233325   7.089   2.030   4.288
11123TIP3    H133326   7.170   2.077   4.270
11123TIP3    H233327   7.034   2.093   4.334
11124TIP3   OH233328   2.028   3.583   0.800
11124TIP3    H133329   2.035   3.548   0.710
11124TIP3    H233330   1.944   3.549   0.832
11125TIP3   OH233331   2.763   2.594   1.254
11125TIP3    H133332   2.771   2.558   1.343
11125TIP3    H233333   2.784   2.521   1.197
11126TIP3   OH233334   7.501   4.780   3.834
11126TIP3    H133335   7.532   4.862   3.874
11126TIP3    H233336   7.557   4.712   3.872
11127TIP3   OH233337   7.120   5.068   3.267
11127TIP3    H133338   7.199   5.039   3.314
11127TIP3    H233339   7.144   5.066   3.175
11128TIP3   OH233340   5.369   4.685   4.845
11128TIP3    H133341   5.320   4.763   4.872
11128TIP3    H233342   5.383   4.697   4.751
11129TIP3   OH233343   0.885   7.180   6.237
11129TIP3    H133344   0.860   7.110   6.299
11129TIP3    H233345   0.980   7.182   6.241
11130TIP3   OH233346   0.780   6.347   0.540
11130TIP3    H133347   0.691   6.372   0.515
11130TIP3    H233348   0.769   6.292   0.618
11131TIP3   OH233349   4.249   0.480   0.426
11131TIP3    H133350   4.269   0.569   0.457
11131TIP3    H233351   4.249   0.488   0.330
11132TIP3   OH233352   0.013   2.509   0.153
11132TIP3    H133353   0.074   2.464   0.211
11132TIP3    H233354   0.059   2.588   0.126
11133TIP3   OH233355   4.669   5.236   5.800
11133TIP3    H133356   4.734   5.270   5.862
11133TIP3    H233357   4.682   5.288   5.721
11134TIP3   OH233358   1.988   2.178   2.328
11134TIP3    H133359   1.920   2.126   2.371
11134TIP3    H233360   1.946   2.210   2.248
11135TIP3   OH233361   1.405   1.283   1.443
11135TIP3    H133362   1.366   1.335   1.513
11135TIP3    H233363   1.346   1.294   1.369
11136TIP3   OH233364   5.426   5.492   2.012
11136TIP3    H133365   5.415   5.546   1.934
11136TIP3    H233366   5.469   5.413   1.981
11137TIP3   OH233367   7.032   2.727   3.796
11137TIP3    H133368   7.006   2.721   3.704
11137TIP3    H233369   7.105   2.665   3.803
11138TIP3   OH233370   2.200   2.946   3.028
11138TIP3    H133371   2.290   2.922   3.049
11138TIP3    H233372   2.146   2.887   3.080
11139TIP3   OH233373   6.033   6.520   6.273
11139TIP3    H133374   6.009   6.583   6.341
11139TIP3    H233375   6.030   6.435   6.316
11140TIP3   OH233376   2.830   7.541   5.940
11140TIP3    H133377   2.753   7.505   5.897
11140TIP3    H233378   2.796   7.610   5.997
11141TIP3   OH233379   1.776   6.311   0.530
11141TIP3    H133380   1.739   6.348   0.610
11141TIP3    H233381   1.806   6.387   0.480
11142TIP3   OH233382   6.691   1.318   3.173
11142TIP3    H133383   6.767   1.347   3.122
11142TIP3    H233384   6.729   1.272   3.248
11143TIP3   OH233385   6.868   1.652   6.063
11143TIP3    H133386   6.943   1.659   6.122
11143TIP3    H233387   6.867   1.560   6.036
11144TIP3   OH233388   2.888   6.818   0.681
11144TIP3    H133389   2.959   6.755   0.690
11144TIP3    H233390   2.882   6.833   0.586
11145TIP3   OH233391   2.155   7.708   6.141
11145TIP3    H133392   2.159   7.767   6.066
11145TIP3    H233393   2.091   7.641   6.116
11146TIP3   OH233394   7.316   5.024   6.459
11146TIP3    H133395   7.363   4.953   6.415
11146TIP3    H233396   7.224   5.003   6.448
11147TIP3   OH233397   3.638   5.220   4.926
11147TIP3    H133398   3.656   5.302   4.973
11147TIP3    H233399   3.582   5.170   4.986
11148TIP3   OH233400   6.587   5.719   3.527
11148TIP3    H133401   6.674   5.683   3.510
11148TIP3    H233402   6.585   5.802   3.479
11149TIP3   OH233403   7.668   6.929   6.448
11149TIP3    H133404   7.739   6.959   6.506
11149TIP3    H233405   7.692   6.839   6.426
11150TIP3   OH233406   6.477   2.528   0.120
11150TIP3    H133407   6.470   2.620   0.147
11150TIP3    H233408   6.397   2.487   0.152
11151TIP3   OH233409   3.127   2.895   3.421
11151TIP3    H133410   3.101   2.822   3.363
11151TIP3    H233411   3.097   2.973   3.375
11152TIP3   OH233412   2.477   4.178   1.757
11152TIP3    H133413   2.429   4.138   1.684
11152TIP3    H233414   2.566   4.189   1.723
11153TIP3   OH233415   1.770   3.570   1.557
11153TIP3    H133416   1.679   3.560   1.529
11153TIP3    H233417   1.808   3.483   1.545
11154TIP3   OH233418   6.228   3.227   0.458
11154TIP3    H133419   6.181   3.199   0.379
11154TIP3    H233420   6.320   3.228   0.432
11155TIP3   OH233421   7.200   7.526   5.577
11155TIP3    H133422   7.292   7.502   5.586
11155TIP3    H233423   7.202   7.616   5.544
11156TIP3   OH233424   6.837   2.300   2.878
11156TIP3    H133425   6.821   2.387   2.915
11156TIP3    H233426   6.753   2.275   2.840
11157TIP3   OH233427   1.290   4.575   1.685
11157TIP3    H133428   1.371   4.581   1.635
11157TIP3    H233429   1.223   4.551   1.620
11158TIP3   OH233430   4.014   5.426   5.105
11158TIP3    H133431   3.964   5.356   5.148
11158TIP3    H233432   4.068   5.381   5.040
11159TIP3   OH233433   3.545   0.999   5.433
11159TIP3    H133434   3.543   0.907   5.460
11159TIP3    H233435   3.572   0.998   5.341
11160TIP3   OH233436   7.096   0.787   4.851
11160TIP3    H133437   7.172   0.731   4.838
11160TIP3    H233438   7.133   0.876   4.857
11161TIP3   OH233439   8.185   3.936   0.646
11161TIP3    H133440   8.182   3.867   0.712
11161TIP3    H233441   8.163   4.016   0.694
11162TIP3   OH233442   7.660   2.468   5.651
11162TIP3    H133443   7.717   2.460   5.728
11162TIP3    H233444   7.685   2.552   5.611
11163TIP3   OH233445   2.427   1.086   0.522
11163TIP3    H133446   2.378   1.006   0.503
11163TIP3    H233447   2.468   1.069   0.607
11164TIP3   OH233448   6.627   4.834   2.677
11164TIP3    H133449   6.610   4.806   2.767
11164TIP3    H233450   6.541   4.856   2.642
11165TIP3   OH233451   3.595   3.509   5.966
11165TIP3    H133452   3.617   3.596   5.934
11165TIP3    H233453   3.636   3.449   5.903
11166TIP3   OH233454   4.181   0.223   5.369
11166TIP3    H133455   4.145   0.205   5.455
11166TIP3    H233456   4.134   0.164   5.310
11167TIP3   OH233457   0.366   6.080   6.817
11167TIP3    H133458   0.277   6.114   6.828
11167TIP3    H233459   0.375   6.066   6.723
11168TIP3   OH233460   6.259   6.955   4.555
11168TIP3    H133461   6.252   6.932   4.648
11168TIP3    H233462   6.304   7.039   4.554
11169TIP3   OH233463   2.737   4.460   2.428
11169TIP3    H133464   2.733   4.441   2.334
11169TIP3    H233465   2.829   4.479   2.445
11170TIP3   OH233466   2.627   7.356   4.502
11170TIP3    H133467   2.665   7.268   4.509
11170TIP3    H233468   2.574   7.366   4.581
11171TIP3   OH233469   0.396   5.202   2.028
11171TIP3    H133470   0.474   5.251   2.054
11171TIP3    H233471   0.356   5.176   2.111
11172TIP3   OH233472   0.372   5.704   5.109
11172TIP3    H133473   0.385   5.705   5.204
11172TIP3    H233474   0.339   5.791   5.088
11173TIP3   OH233475   4.870   6.755   3.707
11173TIP3    H133476   4.966   6.758   3.714
11173TIP3    H233477   4.849   6.662   3.710
11174TIP3   OH233478   2.850   0.045   3.707
11174TIP3    H133479   2.854   0.054   3.802
11174TIP3    H233480   2.940   0.029   3.680
11175TIP3   OH233481   6.359   6.122   0.628
11175TIP3    H133482   6.428   6.057   0.640
11175TIP3    H233483   6.404   6.206   0.632
11176TIP3   OH233484   5.971   1.541   3.253
11176TIP3    H133485   5.968   1.557   3.347
11176TIP3    H233486   6.064   1.546   3.230
11177TIP3   OH233487   3.222   0.827   6.756
11177TIP3    H133488   3.135   0.846   6.791
11177TIP3    H233489   3.225   0.731   6.751
11178TIP3   OH233490   5.529   5.366   1.418
11178TIP3    H133491   5.515   5.272   1.411
11178TIP3    H233492   5.597   5.385   1.353
11179TIP3   OH233493   6.032   5.804   5.213
11179TIP3    H133494   6.089   5.850   5.275
11179TIP3    H233495   5.956   5.779   5.266
11180TIP3   OH233496   1.060   4.662   6.056
11180TIP3    H133497   1.124   4.721   6.098
11180TIP3    H233498   1.067   4.581   6.106
11181TIP3   OH233499   7.878   7.666   6.609
11181TIP3    H133500   7.949   7.730   6.600
11181TIP3    H233501   7.887   7.609   6.533
11182TIP3   OH233502   3.355   0.628   5.061
11182TIP3    H133503   3.432   0.680   5.038
11182TIP3    H233504   3.335   0.577   4.982
11183TIP3   OH233505   4.823   3.843   4.796
11183TIP3    H133506   4.890   3.884   4.851
11183TIP3    H233507   4.804   3.908   4.729
11184TIP3   OH233508   7.573   4.739   5.442
11184TIP3    H133509   7.586   4.833   5.452
11184TIP3    H233510   7.652   4.708   5.397
11185TIP3   OH233511   3.321   5.332   2.388
11185TIP3    H133512   3.336   5.410   2.441
11185TIP3    H233513   3.375   5.344   2.310
11186TIP3   OH233514   4.121   0.976   3.726
11186TIP3    H133515   4.170   0.906   3.768
11186TIP3    H233516   4.030   0.947   3.730
11187TIP3   OH233517   1.270   7.645   4.590
11187TIP3    H133518   1.306   7.665   4.676
11187TIP3    H233519   1.248   7.731   4.553
11188TIP3   OH233520   6.464   1.089   3.599
11188TIP3    H133521   6.422   1.117   3.518
11188TIP3    H233522   6.548   1.135   3.600
11189TIP3   OH233523   4.273   3.429   4.973
11189TIP3    H133524   4.234   3.510   4.943
11189TIP3    H233525   4.333   3.455   5.043
11190TIP3   OH233526   1.195   7.474   2.342
11190TIP3    H133527   1.211   7.392   2.295
11190TIP3    H233528   1.233   7.542   2.286
11191TIP3   OH233529   7.539   1.834   1.114
11191TIP3    H133530   7.480   1.839   1.038
11191TIP3    H233531   7.577   1.746   1.108
11192TIP3   OH233532   6.059   2.476   3.890
11192TIP3    H133533   5.998   2.476   3.963
11192TIP3    H233534   6.078   2.383   3.874
11193TIP3   OH233535   2.034   6.936   4.176
11193TIP3    H133536   2.065   6.875   4.243
11193TIP3    H233537   2.105   6.938   4.111
11194TIP3   OH233538   3.985   1.694   1.808
11194TIP3    H133539   4.038   1.741   1.873
11194TIP3    H233540   3.922   1.759   1.777
11195TIP3   OH233541   1.685   0.469   5.062
11195TIP3    H133542   1.751   0.446   4.996
11195TIP3    H233543   1.682   0.394   5.121
11196TIP3   OH233544   2.827   2.984   1.261
11196TIP3    H133545   2.884   2.912   1.232
11196TIP3    H233546   2.812   3.035   1.182
11197TIP3   OH233547   7.149   0.321   1.435
11197TIP3    H133548   7.097   0.397   1.409
11197TIP3    H233549   7.210   0.307   1.363
11198TIP3   OH233550   3.586   3.304   3.453
11198TIP3    H133551   3.593   3.344   3.367
11198TIP3    H233552   3.639   3.360   3.510
11199TIP3   OH233553   3.918   1.902   1.588
11199TIP3    H133554   3.842   1.953   1.615
11199TIP3    H233555   3.993   1.960   1.603
11200TIP3   OH233556   7.394   5.986   0.087
11200TIP3    H133557   7.327   6.039   0.131
11200TIP3    H233558   7.357   5.967   0.001
11201TIP3   OH233559   4.745   6.030   0.390
11201TIP3    H133560   4.796   6.034   0.471
11201TIP3    H233561   4.657   6.006   0.417
11202TIP3   OH233562   4.051   7.351   1.263
11202TIP3    H133563   4.051   7.444   1.283
11202TIP3    H233564   4.106   7.343   1.185
11203TIP3   OH233565   6.460   2.492   5.557
11203TIP3    H133566   6.499   2.419   5.507
11203TIP3    H233567   6.412   2.543   5.491
11204TIP3   OH233568   6.739   0.777   2.036
11204TIP3    H133569   6.701   0.794   2.122
11204TIP3    H233570   6.666   0.791   1.975
11205TIP3   OH233571   1.988   1.875   1.237
11205TIP3    H133572   2.030   1.857   1.321
11205TIP3    H233573   2.055   1.855   1.172
11206TIP3   OH233574   8.235   3.465   1.414
11206TIP3    H133575   8.257   3.429   1.328
11206TIP3    H233576   8.234   3.389   1.473
11207TIP3   OH233577   2.212   6.675   1.276
11207TIP3    H133578   2.142   6.663   1.340
11207TIP3    H233579   2.285   6.623   1.311
11208TIP3   OH233580   3.848   5.333   5.928
11208TIP3    H133581   3.922   5.293   5.973
11208TIP3    H233582   3.778   5.334   5.994
11209TIP3   OH233583   5.597   2.319   3.577
11209TIP3    H133584   5.558   2.255   3.518
11209TIP3    H233585   5.606   2.398   3.523
11210TIP3   OH233586   1.716   5.704   2.439
11210TIP3    H133587   1.775   5.658   2.380
11210TIP3    H233588   1.741   5.796   2.431
11211TIP3   OH233589   6.396   2.863   0.647
11211TIP3    H133590   6.371   2.784   0.695
11211TIP3    H233591   6.313   2.909   0.633
11212TIP3   OH233592   7.883   4.180   0.822
11212TIP3    H133593   7.870   4.229   0.741
11212TIP3    H233594   7.836   4.230   0.888
11213TIP3   OH233595   2.597   4.719   2.096
11213TIP3    H133596   2.595   4.711   2.001
11213TIP3    H233597   2.553   4.640   2.127
11214TIP3   OH233598   2.328   2.223   1.172
11214TIP3    H133599   2.299   2.235   1.082
11214TIP3    H233600   2.399   2.159   1.166
11215TIP3   OH233601   6.257   7.727   4.680
11215TIP3    H133602   6.272   7.729   4.585
11215TIP3    H233603   6.321   7.788   4.716
11216TIP3   OH233604   1.368   3.779   4.740
11216TIP3    H133605   1.336   3.853   4.793
11216TIP3    H233606   1.460   3.799   4.724
11217TIP3   OH233607   1.704   4.193   4.500
11217TIP3    H133608   1.670   4.177   4.412
11217TIP3    H233609   1.757   4.115   4.519
11218TIP3   OH233610   6.400   6.713   3.244
11218TIP3    H133611   6.480   6.663   3.228
11218TIP3    H233612   6.376   6.748   3.158
11219TIP3   OH233613   6.934   0.806   2.723
11219TIP3    H133614   6.974   0.760   2.797
11219TIP3    H233615   7.008   0.830   2.667
11220TIP3   OH233616   1.088   6.717   0.968
11220TIP3    H133617   1.120   6.786   1.026
11220TIP3    H233618   1.008   6.753   0.930
11221TIP3   OH233619   6.941   6.124   1.083
11221TIP3    H133620   6.971   6.033   1.085
11221TIP3    H233621   6.848   6.118   1.104
11222TIP3   OH233622   6.218   2.444   1.480
11222TIP3    H133623   6.285   2.421   1.545
11222TIP3    H233624   6.201   2.362   1.434
11223TIP3   OH233625   5.848   3.768   1.893
11223TIP3    H133626   5.918   3.714   1.857
11223TIP3    H233627   5.870   3.777   1.986
11224TIP3   OH233628   2.448   0.219   1.507
11224TIP3    H133629   2.532   0.263   1.499
11224TIP3    H233630   2.451   0.177   1.593
11225TIP3   OH233631   0.506   6.720   1.688
11225TIP3    H133632   0.479   6.700   1.778
11225TIP3    H233633   0.427   6.708   1.636
11226TIP3   OH233634   7.336   5.070   3.998
11226TIP3    H133635   7.270   5.055   3.930
11226TIP3    H233636   7.405   5.120   3.954
11227TIP3   OH233637   2.208   0.375   6.301
11227TIP3    H133638   2.259   0.422   6.368
11227TIP3    H233639   2.253   0.395   6.219
11228TIP3   OH233640   0.548   3.639   0.604
11228TIP3    H133641   0.621   3.676   0.653
11228TIP3    H233642   0.476   3.701   0.618
11229TIP3   OH233643   0.998   5.366   4.280
11229TIP3    H133644   1.055   5.437   4.249
11229TIP3    H233645   1.014   5.294   4.219
11230TIP3   OH233646   2.122   4.419   2.785
11230TIP3    H133647   2.036   4.408   2.745
11230TIP3    H233648   2.172   4.471   2.722
11231TIP3   OH233649   3.760   2.061   6.282
11231TIP3    H133650   3.704   2.053   6.205
11231TIP3    H233651   3.845   2.029   6.252
11232TIP3   OH233652   8.080   5.998   6.710
11232TIP3    H133653   8.001   5.999   6.655
11232TIP3    H233654   8.047   6.012   6.799
11233TIP3   OH233655   7.270   0.233   0.321
11233TIP3    H133656   7.199   0.293   0.341
11233TIP3    H233657   7.315   0.273   0.246
11234TIP3   OH233658   3.812   4.744   2.942
11234TIP3    H133659   3.881   4.790   2.989
11234TIP3    H233660   3.847   4.656   2.929
11235TIP3   OH233661   3.512   6.712   6.292
11235TIP3    H133662   3.545   6.794   6.256
11235TIP3    H233663   3.422   6.706   6.260
11236TIP3   OH233664   4.614   4.516   0.284
11236TIP3    H133665   4.532   4.473   0.309
11236TIP3    H233666   4.682   4.465   0.328
11237TIP3   OH233667   5.705   1.395   3.273
11237TIP3    H133668   5.652   1.461   3.318
11237TIP3    H233669   5.756   1.445   3.209
11238TIP3   OH233670   2.618   6.919   1.804
11238TIP3    H133671   2.615   6.969   1.886
11238TIP3    H233672   2.706   6.882   1.802
11239TIP3   OH233673   0.300   7.169   5.756
11239TIP3    H133674   0.327   7.248   5.803
11239TIP3    H233675   0.205   7.164   5.771
11240TIP3   OH233676   2.174   3.857   4.596
11240TIP3    H133677   2.098   3.899   4.638
11240TIP3    H233678   2.238   3.928   4.587
11241TIP3   OH233679   0.385   6.066   4.837
11241TIP3    H133680   0.433   6.039   4.758
11241TIP3    H233681   0.443   6.128   4.881
11242TIP3   OH233682   0.451   0.940   6.360
11242TIP3    H133683   0.445   0.919   6.454
11242TIP3    H233684   0.365   0.977   6.339
11243TIP3   OH233685   1.700   2.974   3.621
11243TIP3    H133686   1.719   2.882   3.636
11243TIP3    H233687   1.772   3.021   3.664
11244TIP3   OH233688   2.857   4.289   1.252
11244TIP3    H133689   2.904   4.224   1.200
11244TIP3    H233690   2.907   4.296   1.333
11245TIP3   OH233691   4.369   1.950   1.706
11245TIP3    H133692   4.294   2.007   1.717
11245TIP3    H233693   4.402   1.970   1.619
11246TIP3   OH233694   7.226   6.182   1.326
11246TIP3    H133695   7.254   6.128   1.400
11246TIP3    H233696   7.238   6.126   1.249
11247TIP3   OH233697   6.636   1.189   1.915
11247TIP3    H133698   6.589   1.130   1.857
11247TIP3    H233699   6.574   1.208   1.985
11248TIP3   OH233700   3.686   0.158   5.701
11248TIP3    H133701   3.719   0.210   5.627
11248TIP3    H233702   3.764   0.115   5.736
11249TIP3   OH233703   6.951   2.727   2.131
11249TIP3    H133704   7.002   2.751   2.208
11249TIP3    H233705   6.944   2.632   2.135
11250TIP3   OH233706   4.858   5.433   4.453
11250TIP3    H133707   4.844   5.362   4.516
11250TIP3    H233708   4.802   5.504   4.483
11251TIP3   OH233709   4.629   1.263   1.768
11251TIP3    H133710   4.603   1.260   1.676
11251TIP3    H233711   4.674   1.180   1.784
11252TIP3   OH233712   4.277   4.116   5.735
11252TIP3    H133713   4.324   4.167   5.801
11252TIP3    H233714   4.202   4.079   5.782
11253TIP3   OH233715   6.638   4.661   1.657
11253TIP3    H133716   6.632   4.635   1.749
11253TIP3    H233717   6.580   4.600   1.612
11254TIP3   OH233718   3.046   1.110   1.121
11254TIP3    H133719   3.073   1.121   1.030
11254TIP3    H233720   2.993   1.188   1.140
11255TIP3   OH233721   7.744   3.716   0.151
11255TIP3    H133722   7.804   3.683   0.083
11255TIP3    H233723   7.733   3.642   0.210
11256TIP3   OH233724   5.421   6.833   0.804
11256TIP3    H133725   5.510   6.800   0.795
11256TIP3    H233726   5.365   6.756   0.791
11257TIP3   OH233727   3.488   4.121   6.449
11257TIP3    H133728   3.463   4.033   6.478
11257TIP3    H233729   3.408   4.158   6.412
11258TIP3   OH233730   8.088   0.909   0.296
11258TIP3    H133731   8.055   0.869   0.376
11258TIP3    H233732   8.152   0.973   0.325
11259TIP3   OH233733   4.696   0.796   2.316
11259TIP3    H133734   4.670   0.877   2.361
11259TIP3    H233735   4.785   0.813   2.285
11260TIP3   OH233736   8.263   5.870   2.285
11260TIP3    H133737   8.348   5.853   2.245
11260TIP3    H233738   8.200   5.850   2.217
11261TIP3   OH233739   7.293   2.129   6.003
11261TIP3    H133740   7.228   2.130   6.074
11261TIP3    H233741   7.240   2.125   5.923
11262TIP3   OH233742   6.830   2.996   1.244
11262TIP3    H133743   6.886   2.967   1.173
11262TIP3    H233744   6.872   2.962   1.323
11263TIP3   OH233745   0.597   0.627   6.166
11263TIP3    H133746   0.679   0.663   6.200
11263TIP3    H233747   0.553   0.702   6.126
11264TIP3   OH233748   5.569   2.082   6.690
11264TIP3    H133749   5.525   2.008   6.648
11264TIP3    H233750   5.564   2.152   6.626
11265TIP3   OH233751   6.715   2.045   5.748
11265TIP3    H133752   6.793   1.991   5.733
11265TIP3    H233753   6.701   2.041   5.842
11266TIP3   OH233754   7.795   4.670   5.269
11266TIP3    H133755   7.784   4.623   5.186
11266TIP3    H233756   7.793   4.762   5.245
11267TIP3   OH233757   0.930   3.495   6.628
11267TIP3    H133758   0.898   3.407   6.605
11267TIP3    H233759   1.021   3.496   6.597
11268TIP3   OH233760   6.777   6.376   1.666
11268TIP3    H133761   6.755   6.467   1.682
11268TIP3    H233762   6.708   6.326   1.711
11269TIP3   OH233763   6.519   2.143   0.659
11269TIP3    H133764   6.556   2.113   0.576
11269TIP3    H233765   6.497   2.235   0.644
11270TIP3   OH233766   4.480   4.372   2.792
11270TIP3    H133767   4.508   4.312   2.723
11270TIP3    H233768   4.519   4.337   2.872
11271TIP3   OH233769   3.600   1.784   1.917
11271TIP3    H133770   3.574   1.874   1.899
11271TIP3    H233771   3.576   1.736   1.837
11272TIP3   OH233772   0.519   2.082   2.186
11272TIP3    H133773   0.467   2.004   2.165
11272TIP3    H233774   0.461   2.156   2.168
11273TIP3   OH233775   5.175   0.657   2.760
11273TIP3    H133776   5.169   0.580   2.817
11273TIP3    H233777   5.261   0.650   2.720
11274TIP3   OH233778   7.660   3.911   4.028
11274TIP3    H133779   7.680   3.837   4.085
11274TIP3    H233780   7.677   3.988   4.083
11275TIP3   OH233781   6.344   4.978   2.913
11275TIP3    H133782   6.336   4.929   2.831
11275TIP3    H233783   6.354   5.069   2.886
11276TIP3   OH233784   4.645   2.271   1.190
11276TIP3    H133785   4.695   2.284   1.271
11276TIP3    H233786   4.712   2.256   1.123
11277TIP3   OH233787   0.193   7.550   3.886
11277TIP3    H133788   0.106   7.588   3.900
11277TIP3    H233789   0.181   7.456   3.900
11278TIP3   OH233790   1.506   1.163   2.894
11278TIP3    H133791   1.498   1.107   2.971
11278TIP3    H233792   1.432   1.224   2.901
11279TIP3   OH233793   0.492   6.777   4.540
11279TIP3    H133794   0.564   6.805   4.483
11279TIP3    H233795   0.433   6.852   4.544
11280TIP3   OH233796   0.740   2.780   5.926
11280TIP3    H133797   0.810   2.724   5.958
11280TIP3    H233798   0.710   2.738   5.845
11281TIP3   OH233799   7.017   0.887   6.636
11281TIP3    H133800   6.929   0.850   6.642
11281TIP3    H233801   7.011   0.950   6.564
11282TIP3   OH233802   1.975   4.717   3.792
11282TIP3    H133803   1.946   4.722   3.701
11282TIP3    H233804   1.979   4.624   3.812
11283TIP3   OH233805   6.046   4.958   4.853
11283TIP3    H133806   6.086   4.884   4.807
11283TIP3    H233807   5.960   4.925   4.881
11284TIP3   OH233808   3.343   2.281   4.233
11284TIP3    H133809   3.331   2.191   4.262
11284TIP3    H233810   3.314   2.334   4.307
11285TIP3   OH233811   7.996   7.571   6.098
11285TIP3    H133812   7.976   7.637   6.032
11285TIP3    H233813   7.982   7.488   6.053
11286TIP3   OH233814   1.074   7.220   3.490
11286TIP3    H133815   1.168   7.211   3.475
11286TIP3    H233816   1.033   7.181   3.413
11287TIP3   OH233817   5.372   1.758   5.787
11287TIP3    H133818   5.276   1.756   5.789
11287TIP3    H233819   5.399   1.704   5.861
11288TIP3   OH233820   4.936   7.278   4.678
11288TIP3    H133821   4.947   7.184   4.663
11288TIP3    H233822   5.006   7.300   4.740
11289TIP3   OH233823   1.168   1.500   4.424
11289TIP3    H133824   1.076   1.510   4.449
11289TIP3    H233825   1.213   1.478   4.505
11290TIP3   OH233826   0.359   0.885   2.453
11290TIP3    H133827   0.333   0.802   2.492
11290TIP3    H233828   0.296   0.949   2.486
11291TIP3   OH233829   3.186   4.012   3.714
11291TIP3    H133830   3.095   3.985   3.718
11291TIP3    H233831   3.182   4.108   3.709
11292TIP3   OH233832   2.902   4.144   2.250
11292TIP3    H133833   2.982   4.123   2.202
11292TIP3    H233834   2.882   4.235   2.225
11293TIP3   OH233835   6.572   1.413   3.914
11293TIP3    H133836   6.496   1.397   3.858
11293TIP3    H233837   6.606   1.498   3.884
11294TIP3   OH233838   3.464   1.368   2.648
11294TIP3    H133839   3.537   1.367   2.711
11294TIP3    H233840   3.452   1.460   2.626
11295TIP3   OH233841   4.454   2.544   5.743
11295TIP3    H133842   4.484   2.561   5.654
11295TIP3    H233843   4.488   2.617   5.794
11296TIP3   OH233844   8.093   2.456   0.326
11296TIP3    H133845   8.121   2.367   0.347
11296TIP3    H233846   8.009   2.466   0.371
11297TIP3   OH233847   6.907   1.772   4.926
11297TIP3    H133848   6.843   1.714   4.968
11297TIP3    H233849   6.895   1.757   4.832
11298TIP3   OH233850   6.389   5.588   6.829
11298TIP3    H133851   6.458   5.640   6.787
11298TIP3    H233852   6.369   5.635   6.910
11299TIP3   OH233853   5.072   6.391   2.351
11299TIP3    H133854   5.156   6.385   2.304
11299TIP3    H233855   5.091   6.445   2.427
11300TIP3   OH233856   4.536   2.504   5.486
11300TIP3    H133857   4.493   2.432   5.439
11300TIP3    H233858   4.562   2.566   5.418
11301TIP3   OH233859   6.103   6.907   4.196
11301TIP3    H133860   6.118   6.864   4.280
11301TIP3    H233861   6.008   6.904   4.185
11302TIP3   OH233862   5.164   7.465   2.229
11302TIP3    H133863   5.089   7.476   2.170
11302TIP3    H233864   5.217   7.543   2.217
11303TIP3   OH233865   5.294   7.576   6.675
11303TIP3    H133866   5.305   7.481   6.670
11303TIP3    H233867   5.201   7.591   6.653
11304TIP3   OH233868   2.390   3.620   1.806
11304TIP3    H133869   2.302   3.658   1.796
11304TIP3    H233870   2.419   3.648   1.893
11305TIP3   OH233871   8.298   7.354   1.299
11305TIP3    H133872   8.222   7.307   1.263
11305TIP3    H233873   8.301   7.327   1.391
11306TIP3   OH233874   4.688   7.657   5.419
11306TIP3    H133875   4.593   7.655   5.426
11306TIP3    H233876   4.719   7.657   5.510
11307TIP3   OH233877   5.370   2.597   3.105
11307TIP3    H133878   5.303   2.541   3.068
11307TIP3    H233879   5.428   2.617   3.031
11308TIP3   OH233880   3.344   7.621   4.447
11308TIP3    H133881   3.411   7.590   4.508
11308TIP3    H233882   3.279   7.665   4.502
11309TIP3   OH233883   2.673   2.598   2.167
11309TIP3    H133884   2.644   2.559   2.084
11309TIP3    H233885   2.759   2.559   2.183
11310TIP3   OH233886   1.908   5.935   3.784
11310TIP3    H133887   1.832   5.954   3.839
11310TIP3    H233888   1.978   5.987   3.822
11311TIP3   OH233889   4.312   2.736  -0.035
11311TIP3    H133890   4.387   2.749   0.023
11311TIP3    H233891   4.239   2.718   0.024
11312TIP3   OH233892   4.588   2.888   4.510
11312TIP3    H133893   4.549   2.932   4.435
11312TIP3    H233894   4.682   2.908   4.504
11313TIP3   OH233895   1.764   2.975   4.817
11313TIP3    H133896   1.847   2.943   4.780
11313TIP3    H233897   1.704   2.902   4.808
11314TIP3   OH233898   5.903   1.688   6.286
11314TIP3    H133899   5.836   1.646   6.233
11314TIP3    H233900   5.874   1.676   6.377
11315TIP3   OH233901   7.859   1.348   2.578
11315TIP3    H133902   7.822   1.272   2.534
11315TIP3    H233903   7.882   1.408   2.508
11316TIP3   OH233904   3.261   0.387   2.488
11316TIP3    H133905   3.345   0.407   2.446
11316TIP3    H233906   3.260   0.441   2.567
11317TIP3   OH233907   3.088   5.462   0.080
11317TIP3    H133908   3.023   5.465   0.010
11317TIP3    H233909   3.137   5.544   0.071
11318TIP3   OH233910   3.395   6.818   6.783
11318TIP3    H133911   3.468   6.760   6.762
11318TIP3    H233912   3.422   6.862   6.864
11319TIP3   OH233913   6.849   4.005   5.470
11319TIP3    H133914   6.891   3.925   5.437
11319TIP3    H233915   6.881   4.014   5.559
11320TIP3   OH233916   3.844   4.227   0.172
11320TIP3    H133917   3.866   4.248   0.263
11320TIP3    H233918   3.749   4.227   0.170
11321TIP3   OH233919   6.933   7.171   6.587
11321TIP3    H133920   6.854   7.226   6.587
11321TIP3    H233921   6.927   7.121   6.669
11322TIP3   OH233922   3.174   6.794   6.612
11322TIP3    H133923   3.131   6.715   6.644
11322TIP3    H233924   3.253   6.802   6.666
11323TIP3   OH233925   1.036   3.311   3.657
11323TIP3    H133926   0.977   3.238   3.639
11323TIP3    H233927   1.038   3.361   3.576
11324TIP3   OH233928   4.401   3.741   3.376
11324TIP3    H133929   4.354   3.764   3.455
11324TIP3    H233930   4.493   3.762   3.395
11325TIP3   OH233931   7.501   0.305   2.314
11325TIP3    H133932   7.473   0.323   2.224
11325TIP3    H233933   7.591   0.337   2.318
11326TIP3   OH233934   0.564   2.335   0.983
11326TIP3    H133935   0.599   2.423   0.997
11326TIP3    H233936   0.553   2.299   1.070
11327TIP3   OH233937   3.896   3.605   2.412
11327TIP3    H133938   3.828   3.666   2.440
11327TIP3    H233939   3.856   3.518   2.421
11328TIP3   OH233940   6.088   7.064   6.657
11328TIP3    H133941   6.047   7.009   6.590
11328TIP3    H233942   6.042   7.041   6.738
11329TIP3   OH233943   4.068   5.365   1.863
11329TIP3    H133944   4.160   5.384   1.877
11329TIP3    H233945   4.023   5.407   1.936
11330TIP3   OH233946   1.127   4.874   1.785
11330TIP3    H133947   1.184   4.912   1.719
11330TIP3    H233948   1.181   4.872   1.865
11331TIP3   OH233949   2.577   0.770   1.052
11331TIP3    H133950   2.539   0.711   0.987
11331TIP3    H233951   2.609   0.844   1.001
11332TIP3   OH233952   6.796   0.876   1.168
11332TIP3    H133953   6.802   0.788   1.207
11332TIP3    H233954   6.712   0.910   1.197
11333TIP3   OH233955   8.278   0.122   2.236
11333TIP3    H133956   8.258   0.128   2.143
11333TIP3    H233957   8.338   0.196   2.252
11334TIP3   OH233958   4.312   1.297   1.006
11334TIP3    H133959   4.326   1.376   1.060
11334TIP3    H233960   4.354   1.227   1.055
11335TIP3   OH233961   1.790   2.571   2.369
11335TIP3    H133962   1.737   2.577   2.289
11335TIP3    H233963   1.879   2.557   2.337
11336TIP3   OH233964   1.407   2.710   1.900
11336TIP3    H133965   1.436   2.786   1.849
11336TIP3    H233966   1.467   2.640   1.876
11337TIP3   OH233967   4.250   3.021   5.205
11337TIP3    H133968   4.329   2.987   5.248
11337TIP3    H233969   4.186   2.950   5.213
11338TIP3   OH233970   2.718   5.662   6.061
11338TIP3    H133971   2.704   5.732   6.125
11338TIP3    H233972   2.760   5.592   6.110
11339TIP3   OH233973   7.419   6.275   1.084
11339TIP3    H133974   7.351   6.256   1.019
11339TIP3    H233975   7.501   6.274   1.034
11340TIP3   OH233976   8.099   2.046   2.418
11340TIP3    H133977   8.019   2.087   2.450
11340TIP3    H233978   8.158   2.046   2.493
11341TIP3   OH233979   5.168   3.067   4.573
11341TIP3    H133980   5.256   3.028   4.569
11341TIP3    H233981   5.135   3.060   4.483
11342TIP3   OH233982   7.356   6.349   3.684
11342TIP3    H133983   7.261   6.333   3.688
11342TIP3    H233984   7.386   6.291   3.613
11343TIP3   OH233985   1.532   6.920   3.532
11343TIP3    H133986   1.462   6.946   3.592
11343TIP3    H233987   1.534   6.824   3.538
11344TIP3   OH233988   2.296   2.288   6.744
11344TIP3    H133989   2.299   2.284   6.649
11344TIP3    H233990   2.220   2.342   6.764
11345TIP3   OH233991   0.292   2.521   3.699
11345TIP3    H133992   0.199   2.499   3.692
11345TIP3    H233993   0.335   2.437   3.712
11346TIP3   OH233994   7.568   6.061   4.687
11346TIP3    H133995   7.489   6.115   4.690
11346TIP3    H233996   7.552   5.998   4.617
11347TIP3   OH233997   4.059   2.113   5.252
11347TIP3    H133998   4.131   2.058   5.284
11347TIP3    H233999   4.101   2.177   5.195
11348TIP3   OH234000   2.869   1.812   6.126
11348TIP3    H134001   2.960   1.781   6.123
11348TIP3    H234002   2.875   1.906   6.109
11349TIP3   OH234003   6.398   1.465   4.126
11349TIP3    H134004   6.458   1.425   4.063
11349TIP3    H234005   6.316   1.416   4.116
11350TIP3   OH234006   7.272   5.911   3.178
11350TIP3    H134007   7.237   5.864   3.254
11350TIP3    H234008   7.326   5.981   3.216
11351TIP3   OH234009   3.098   6.351   4.292
11351TIP3    H134010   3.107   6.377   4.384
11351TIP3    H234011   3.038   6.276   4.295
11352TIP3   OH234012   0.569   1.217   4.099
11352TIP3    H134013   0.578   1.227   4.005
11352TIP3    H234014   0.653   1.182   4.128
11353TIP3   OH234015   1.768   6.368   6.723
11353TIP3    H134016   1.774   6.453   6.680
11353TIP3    H234017   1.685   6.372   6.770
11354TIP3   OH234018   4.613   1.121   4.007
11354TIP3    H134019   4.524   1.158   4.010
11354TIP3    H234020   4.603   1.040   3.957
11355TIP3   OH234021   3.515   6.607   2.846
11355TIP3    H134022   3.500   6.675   2.780
11355TIP3    H234023   3.495   6.651   2.929
11356TIP3   OH234024   0.582   2.839   1.386
11356TIP3    H134025   0.633   2.869   1.461
11356TIP3    H234026   0.499   2.808   1.423
11357TIP3   OH234027   7.189   5.643   4.151
11357TIP3    H134028   7.105   5.648   4.198
11357TIP3    H234029   7.190   5.721   4.096
11358TIP3   OH234030   1.799   3.201   5.127
11358TIP3    H134031   1.784   3.268   5.060
11358TIP3    H234032   1.831   3.250   5.203
11359TIP3   OH234033   1.587   0.887   6.751
11359TIP3    H134034   1.618   0.840   6.674
11359TIP3    H234035   1.566   0.819   6.815
11360TIP3   OH234036   7.193   5.830   2.024
11360TIP3    H134037   7.200   5.922   2.049
11360TIP3    H234038   7.268   5.814   1.967
11361TIP3   OH234039   4.437   0.279   2.737
11361TIP3    H134040   4.389   0.337   2.796
11361TIP3    H234041   4.368   0.226   2.696
11362TIP3   OH234042   3.871   3.701   5.679
11362TIP3    H134043   3.778   3.681   5.664
11362TIP3    H234044   3.881   3.695   5.774
11363TIP3   OH234045   0.547   0.081   1.505
11363TIP3    H134046   0.492   0.083   1.583
11363TIP3    H234047   0.526   0.162   1.459
11364TIP3   OH234048   1.179   3.554   5.356
11364TIP3    H134049   1.171   3.595   5.270
11364TIP3    H234050   1.219   3.469   5.339
11365TIP3   OH234051   0.399   1.524   4.526
11365TIP3    H134052   0.432   1.527   4.616
11365TIP3    H234053   0.452   1.588   4.479
11366TIP3   OH234054   7.851   2.830   4.820
11366TIP3    H134055   7.803   2.801   4.743
11366TIP3    H234056   7.905   2.903   4.789
11367TIP3   OH234057   8.096   4.828   1.181
11367TIP3    H134058   8.013   4.811   1.137
11367TIP3    H234059   8.115   4.920   1.161
11368TIP3   OH234060   4.674   1.562   3.054
11368TIP3    H134061   4.742   1.543   3.119
11368TIP3    H234062   4.596   1.582   3.106
11369TIP3   OH234063   3.458   4.810   0.948
11369TIP3    H134064   3.378   4.857   0.975
11369TIP3    H234065   3.446   4.794   0.855
11370TIP3   OH234066   8.141   4.026   5.214
11370TIP3    H134067   8.062   4.000   5.261
11370TIP3    H234068   8.147   3.964   5.141
11371TIP3   OH234069   3.147   4.563   4.341
11371TIP3    H134070   3.211   4.497   4.318
11371TIP3    H234071   3.181   4.644   4.302
11372TIP3   OH234072   6.232   4.669   5.347
11372TIP3    H134073   6.246   4.621   5.266
11372TIP3    H234074   6.316   4.712   5.364
11373TIP3   OH234075   2.553   6.980   5.631
11373TIP3    H134076   2.481   7.039   5.653
11373TIP3    H234077   2.578   7.004   5.542
11374TIP3   OH234078   8.155   6.713   1.626
11374TIP3    H134079   8.140   6.674   1.540
11374TIP3    H234080   8.068   6.721   1.665
11375TIP3   OH234081   3.386   2.571   6.123
11375TIP3    H134082   3.350   2.655   6.151
11375TIP3    H234083   3.474   2.569   6.161
11376TIP3   OH234084   2.392   4.573   0.456
11376TIP3    H134085   2.361   4.515   0.525
11376TIP3    H234086   2.326   4.642   0.451
11377TIP3   OH234087   2.323   3.093   1.971
11377TIP3    H134088   2.325   3.188   1.975
11377TIP3    H234089   2.238   3.069   2.008
11378TIP3   OH234090   6.620   5.036   2.054
11378TIP3    H134091   6.638   4.990   2.136
11378TIP3    H234092   6.610   4.966   1.990
11379TIP3   OH234093   4.647   6.333   1.664
11379TIP3    H134094   4.700   6.267   1.620
11379TIP3    H234095   4.593   6.283   1.726
11380TIP3   OH234096   6.137   5.720   1.187
11380TIP3    H134097   6.058   5.672   1.210
11380TIP3    H234098   6.206   5.681   1.242
11381TIP3   OH234099   1.011   2.816   0.157
11381TIP3    H134100   1.102   2.833   0.131
11381TIP3    H234101   0.968   2.788   0.076
11382TIP3   OH234102   1.929   3.818   6.371
11382TIP3    H134103   1.857   3.764   6.404
11382TIP3    H234104   1.954   3.872   6.445
11383TIP3   OH234105   1.995   5.544   4.261
11383TIP3    H134106   1.923   5.578   4.207
11383TIP3    H234107   1.970   5.567   4.351
11384TIP3   OH234108   2.228   6.222   5.029
11384TIP3    H134109   2.288   6.227   4.955
11384TIP3    H234110   2.224   6.129   5.051
11385TIP3   OH234111   1.155   7.495   2.622
11385TIP3    H134112   1.176   7.476   2.531
11385TIP3    H234113   1.142   7.409   2.662
11386TIP3   OH234114   6.351   5.836   1.363
11386TIP3    H134115   6.404   5.815   1.286
11386TIP3    H234116   6.411   5.880   1.423
11387TIP3   OH234117   2.149   2.427   2.068
11387TIP3    H134118   2.066   2.379   2.073
11387TIP3    H234119   2.198   2.381   2.000
11388TIP3   OH234120   5.360   2.516   5.838
11388TIP3    H134121   5.377   2.514   5.932
11388TIP3    H234122   5.384   2.429   5.808
11389TIP3   OH234123   4.736   0.466   1.239
11389TIP3    H134124   4.702   0.547   1.277
11389TIP3    H234125   4.676   0.446   1.168
11390TIP3   OH234126   2.887   2.341   2.727
11390TIP3    H134127   2.943   2.266   2.706
11390TIP3    H234128   2.924   2.377   2.807
11391TIP3   OH234129   0.775   0.898   4.956
11391TIP3    H134130   0.693   0.888   5.004
11391TIP3    H234131   0.832   0.831   4.993
11392TIP3   OH234132   7.605   6.585   0.999
11392TIP3    H134133   7.559   6.614   1.078
11392TIP3    H234134   7.543   6.529   0.954
11393TIP3   OH234135   1.788   6.677   3.231
11393TIP3    H134136   1.813   6.632   3.312
11393TIP3    H234137   1.719   6.622   3.193
11394TIP3   OH234138   2.230   1.061   2.502
11394TIP3    H134139   2.318   1.097   2.514
11394TIP3    H234140   2.174   1.115   2.558
11395TIP3   OH234141   5.314   5.814   0.331
11395TIP3    H134142   5.285   5.844   0.417
11395TIP3    H234143   5.370   5.738   0.349
11396TIP3   OH234144   2.873   2.295   4.764
11396TIP3    H134145   2.866   2.200   4.750
11396TIP3    H234146   2.944   2.305   4.827
11397TIP3   OH234147   2.706   0.308   1.437
11397TIP3    H134148   2.778   0.276   1.491
11397TIP3    H234149   2.737   0.391   1.401
11398TIP3   OH234150   1.796   5.545   0.072
11398TIP3    H134151   1.774   5.568  -0.019
11398TIP3    H234152   1.726   5.485   0.099
11399TIP3   OH234153   3.707   2.227   0.325
11399TIP3    H134154   3.745   2.197   0.242
11399TIP3    H234155   3.664   2.310   0.302
11400TIP3   OH234156   4.973   0.902   2.486
11400TIP3    H134157   4.931   0.987   2.479
11400TIP3    H234158   4.995   0.878   2.396
11401TIP3   OH234159   4.763   7.262   1.537
11401TIP3    H134160   4.713   7.309   1.470
11401TIP3    H234161   4.745   7.169   1.519
11402TIP3   OH234162   6.077   2.360   5.227
11402TIP3    H134163   6.126   2.343   5.147
11402TIP3    H234164   6.000   2.409   5.198
11403TIP3   OH234165   5.285   4.166   5.586
11403TIP3    H134166   5.219   4.166   5.656
11403TIP3    H234167   5.334   4.247   5.600
11404TIP3   OH234168   7.992   5.847   0.240
11404TIP3    H134169   7.911   5.836   0.291
11404TIP3    H234170   8.062   5.843   0.306
11405TIP3   OH234171   4.251   3.533   6.009
11405TIP3    H134172   4.205   3.536   6.092
11405TIP3    H234173   4.204   3.595   5.953
11406TIP3   OH234174   0.561   0.703   2.011
11406TIP3    H134175   0.635   0.749   1.971
11406TIP3    H234176   0.552   0.743   2.098
11407TIP3   OH234177   3.504   0.626   1.866
11407TIP3    H134178   3.514   0.670   1.782
11407TIP3    H234179   3.581   0.652   1.916
11408TIP3   OH234180   3.753   4.604   1.245
11408TIP3    H134181   3.685   4.594   1.179
11408TIP3    H234182   3.705   4.619   1.327
11409TIP3   OH234183   3.851   4.632   5.813
11409TIP3    H134184   3.861   4.537   5.816
11409TIP3    H234185   3.788   4.648   5.743
11410TIP3   OH234186   2.582   3.055   6.024
11410TIP3    H134187   2.645   2.982   6.027
11410TIP3    H234188   2.541   3.047   5.938
11411TIP3   OH234189   1.018   1.870   6.787
11411TIP3    H134190   1.070   1.924   6.728
11411TIP3    H234191   0.968   1.934   6.839
11412TIP3   OH234192   5.009   1.431   0.233
11412TIP3    H134193   5.030   1.379   0.311
11412TIP3    H234194   5.068   1.397   0.165
11413TIP3   OH234195   1.896   7.785   1.760
11413TIP3    H134196   1.840   7.720   1.716
11413TIP3    H234197   1.973   7.735   1.787
11414TIP3   OH234198   0.598   7.403   6.264
11414TIP3    H134199   0.678   7.358   6.239
11414TIP3    H234200   0.529   7.357   6.216
11415TIP3   OH234201   6.278   5.150   0.418
11415TIP3    H134202   6.303   5.065   0.454
11415TIP3    H234203   6.346   5.170   0.354
11416TIP3   OH234204   1.037   2.482   4.193
11416TIP3    H134205   1.102   2.459   4.259
11416TIP3    H234206   1.086   2.530   4.126
11417TIP3   OH234207   2.719   6.469   3.337
11417TIP3    H134208   2.699   6.494   3.247
11417TIP3    H234209   2.814   6.480   3.345
11418TIP3   OH234210   2.249   6.891   5.942
11418TIP3    H134211   2.327   6.928   5.983
11418TIP3    H234212   2.267   6.897   5.848
11419TIP3   OH234213   1.773   2.979   3.091
11419TIP3    H134214   1.826   2.920   3.038
11419TIP3    H234215   1.764   2.935   3.176
11420TIP3   OH234216   7.868   6.057   1.036
11420TIP3    H134217   7.928   6.114   1.083
11420TIP3    H234218   7.909   5.970   1.040
11421TIP3   OH234219   4.608   1.000   1.551
11421TIP3    H134220   4.543   0.930   1.545
11421TIP3    H234221   4.563   1.078   1.519
11422TIP3   OH234222   6.140   2.280   2.509
11422TIP3    H134223   6.049   2.251   2.500
11422TIP3    H234224   6.147   2.313   2.598
11423TIP3   OH234225   7.026   3.013   3.837
11423TIP3    H134226   7.023   2.917   3.838
11423TIP3    H234227   6.936   3.040   3.851
11424TIP3   OH234228   7.485   4.066   5.107
11424TIP3    H134229   7.536   4.097   5.182
11424TIP3    H234230   7.404   4.031   5.145
11425TIP3   OH234231   6.948   2.063   2.801
11425TIP3    H134232   6.900   2.145   2.808
11425TIP3    H234233   7.010   2.065   2.874
11426TIP3   OH234234   0.419   5.157   0.057
11426TIP3    H134235   0.486   5.213   0.018
11426TIP3    H234236   0.438   5.069   0.024
11427TIP3   OH234237   1.885   0.555   1.980
11427TIP3    H134238   1.827   0.562   2.056
11427TIP3    H234239   1.974   0.564   2.017
11428TIP3   OH234240   2.953   1.284   2.208
11428TIP3    H134241   2.989   1.335   2.135
11428TIP3    H234242   3.029   1.237   2.243
11429TIP3   OH234243   5.401   6.309   1.023
11429TIP3    H134244   5.485   6.354   1.018
11429TIP3    H234245   5.336   6.380   1.027
11430TIP3   OH234246   7.739   4.361   4.860
11430TIP3    H134247   7.781   4.291   4.810
11430TIP3    H234248   7.776   4.442   4.825
11431TIP3   OH234249   2.419   5.998   2.054
11431TIP3    H134250   2.496   6.022   2.105
11431TIP3    H234251   2.437   6.032   1.966
11432TIP3   OH234252   3.930   6.809   2.471
11432TIP3    H134253   3.919   6.760   2.553
11432TIP3    H234254   3.843   6.810   2.432
11433TIP3   OH234255   1.699   4.570   0.462
11433TIP3    H134256   1.647   4.641   0.425
11433TIP3    H234257   1.642   4.531   0.529
11434TIP3   OH234258   5.553   3.511   5.605
11434TIP3    H134259   5.466   3.490   5.570
11434TIP3    H234260   5.581   3.430   5.649
11435TIP3   OH234261   0.819   2.436   0.625
11435TIP3    H134262   0.876   2.367   0.661
11435TIP3    H234263   0.865   2.517   0.645
11436TIP3   OH234264   4.507   3.690   6.505
11436TIP3    H134265   4.596   3.694   6.470
11436TIP3    H234266   4.461   3.762   6.462
11437TIP3   OH234267   5.336   4.352   3.658
11437TIP3    H134268   5.257   4.356   3.712
11437TIP3    H234269   5.396   4.296   3.708
11438TIP3   OH234270   6.511   5.722   2.973
11438TIP3    H134271   6.418   5.731   2.951
11438TIP3    H234272   6.532   5.804   3.018
11439TIP3   OH234273   0.993   2.935   5.055
11439TIP3    H134274   0.905   2.959   5.024
11439TIP3    H234275   0.976   2.880   5.132
11440TIP3   OH234276   6.751   3.409   2.709
11440TIP3    H134277   6.839   3.445   2.697
11440TIP3    H234278   6.696   3.458   2.648
11441TIP3   OH234279   0.795   0.178   6.361
11441TIP3    H134280   0.765   0.087   6.369
11441TIP3    H234281   0.756   0.223   6.436
11442TIP3   OH234282   0.947   1.289   6.442
11442TIP3    H134283   0.999   1.266   6.520
11442TIP3    H234284   0.867   1.328   6.478
11443TIP3   OH234285   2.027   7.492   3.612
11443TIP3    H134286   1.968   7.567   3.618
11443TIP3    H234287   1.984   7.432   3.551
11444TIP3   OH234288   7.414   3.781   5.931
11444TIP3    H134289   7.387   3.698   5.891
11444TIP3    H234290   7.332   3.829   5.945
11445TIP3   OH234291   5.637   6.288   0.416
11445TIP3    H134292   5.581   6.211   0.401
11445TIP3    H234293   5.718   6.252   0.450
11446TIP3   OH234294   6.359   5.582   6.452
11446TIP3    H134295   6.419   5.652   6.426
11446TIP3    H234296   6.275   5.626   6.464
11447TIP3   OH234297   6.282   4.817   3.373
11447TIP3    H134298   6.323   4.754   3.432
11447TIP3    H234299   6.251   4.887   3.430
11448TIP3   OH234300   1.340   7.111   5.940
11448TIP3    H134301   1.332   7.096   5.846
11448TIP3    H234302   1.266   7.167   5.962
11449TIP3   OH234303   7.162   5.794   4.955
11449TIP3    H134304   7.154   5.771   5.047
11449TIP3    H234305   7.242   5.846   4.950
11450TIP3   OH234306   4.763   4.566   3.135
11450TIP3    H134307   4.854   4.545   3.158
11450TIP3    H234308   4.770   4.611   3.051
11451TIP3   OH234309   5.287   1.879   4.458
11451TIP3    H134310   5.232   1.866   4.381
11451TIP3    H234311   5.229   1.920   4.522
11452TIP3   OH234312   4.565   2.071   2.642
11452TIP3    H134313   4.539   1.991   2.688
11452TIP3    H234314   4.618   2.119   2.705
11453TIP3   OH234315   6.237   0.957   0.118
11453TIP3    H134316   6.300   1.020   0.152
11453TIP3    H234317   6.159   1.008   0.099
11454TIP3   OH234318   3.863   0.164   4.217
11454TIP3    H134319   3.816   0.094   4.173
11454TIP3    H234320   3.838   0.243   4.170
11455TIP3   OH234321   3.327   6.608   4.970
11455TIP3    H134322   3.360   6.538   4.914
11455TIP3    H234323   3.362   6.588   5.057
11456TIP3   OH234324   6.046   7.484   3.547
11456TIP3    H134325   6.012   7.563   3.505
11456TIP3    H234326   5.970   7.426   3.554
11457TIP3   OH234327   6.324   3.351   3.926
11457TIP3    H134328   6.264   3.414   3.887
11457TIP3    H234329   6.369   3.399   3.995
11458TIP3   OH234330   5.045   0.061   5.560
11458TIP3    H134331   5.092   0.104   5.489
11458TIP3    H234332   5.096  -0.018   5.578
11459TIP3   OH234333   7.181   5.973   5.959
11459TIP3    H134334   7.125   5.896   5.954
11459TIP3    H234335   7.175   6.001   6.051
11460TIP3   OH234336   4.205   4.516   5.162
11460TIP3    H134337   4.235   4.597   5.120
11460TIP3    H234338   4.246   4.516   5.248
11461TIP3   OH234339   0.165   7.470   0.154
11461TIP3    H134340   0.073   7.470   0.127
11461TIP3    H234341   0.195   7.559   0.138
11462TIP3   OH234342   1.524   2.193   2.927
11462TIP3    H134343   1.438   2.153   2.913
11462TIP3    H234344   1.548   2.229   2.842
11463TIP3   OH234345   7.134   5.745   1.620
11463TIP3    H134346   7.131   5.673   1.558
11463TIP3    H234347   7.061   5.802   1.594
11464TIP3   OH234348   0.276   0.456   4.747
11464TIP3    H134349   0.323   0.384   4.705
11464TIP3    H234350   0.228   0.498   4.676
11465TIP3   OH234351   4.155   7.561   6.498
11465TIP3    H134352   4.154   7.488   6.437
11465TIP3    H234353   4.095   7.535   6.568
11466TIP3   OH234354   2.196   3.024   4.566
11466TIP3    H134355   2.282   3.065   4.558
11466TIP3    H234356   2.134   3.094   4.547
11467TIP3   OH234357   0.791   0.378   3.457
11467TIP3    H134358   0.757   0.371   3.368
11467TIP3    H234359   0.776   0.292   3.496
11468TIP3   OH234360   0.614   2.935   4.310
11468TIP3    H134361   0.607   2.871   4.239
11468TIP3    H234362   0.614   3.020   4.266
11469TIP3   OH234363   6.717   4.899   6.055
11469TIP3    H134364   6.754   4.824   6.102
11469TIP3    H234365   6.649   4.861   5.999
11470TIP3   OH234366   4.123   2.300   2.700
11470TIP3    H134367   4.218   2.308   2.688
11470TIP3    H234368   4.090   2.389   2.687
11471TIP3   OH234369   2.748   7.613   1.119
11471TIP3    H134370   2.746   7.660   1.202
11471TIP3    H234371   2.707   7.673   1.057
11472TIP3   OH234372   7.781   0.526   0.093
11472TIP3    H134373   7.717   0.526   0.164
11472TIP3    H234374   7.839   0.599   0.113
11473TIP3   OH234375   2.624   7.696   5.451
11473TIP3    H134376   2.565   7.732   5.385
11473TIP3    H234377   2.577   7.708   5.534
11474TIP3   OH234378   6.634   1.231   2.802
11474TIP3    H134379   6.637   1.243   2.707
11474TIP3    H234380   6.644   1.136   2.814
11475TIP3   OH234381   1.162   2.640   0.962
11475TIP3    H134382   1.206   2.583   0.899
11475TIP3    H234383   1.220   2.716   0.970
11476TIP3   OH234384   8.204   0.234   1.652
11476TIP3    H134385   8.298   0.219   1.643
11476TIP3    H234386   8.196   0.291   1.728
11477TIP3   OH234387   1.659   4.129   5.629
11477TIP3    H134388   1.727   4.069   5.598
11477TIP3    H234389   1.589   4.072   5.660
11478TIP3   OH234390   7.112   1.846   2.735
11478TIP3    H134391   7.064   1.928   2.725
11478TIP3    H234392   7.044   1.779   2.739
11479TIP3   OH234393   5.498   7.784   4.809
11479TIP3    H134394   5.534   7.724   4.744
11479TIP3    H234395   5.415   7.745   4.834
11480TIP3   OH234396   3.380   0.940   0.252
11480TIP3    H134397   3.460   0.907   0.291
11480TIP3    H234398   3.356   1.016   0.306
11481TIP3   OH234399   4.395   2.007   0.969
11481TIP3    H134400   4.319   2.044   1.014
11481TIP3    H234401   4.446   2.083   0.941
11482TIP3   OH234402   1.798   5.320   6.485
11482TIP3    H134403   1.804   5.229   6.512
11482TIP3    H234404   1.852   5.368   6.548
11483TIP3   OH234405   7.912   7.511   6.367
11483TIP3    H134406   7.921   7.553   6.281
11483TIP3    H234407   8.003   7.500   6.397
11484TIP3   OH234408   7.707   6.358   2.520
11484TIP3    H134409   7.710   6.433   2.579
11484TIP3    H234410   7.774   6.299   2.553
11485TIP3   OH234411   5.400   2.571   2.633
11485TIP3    H134412   5.312   2.557   2.600
11485TIP3    H234413   5.454   2.508   2.586
11486TIP3   OH234414   4.735   6.982   0.924
11486TIP3    H134415   4.764   6.934   1.002
11486TIP3    H234416   4.803   7.049   0.911
11487TIP3   OH234417   6.711   6.034   4.458
11487TIP3    H134418   6.779   6.040   4.525
11487TIP3    H234419   6.634   6.001   4.504
11488TIP3   OH234420   1.988   3.969   6.619
11488TIP3    H134421   2.019   3.930   6.700
11488TIP3    H234422   1.902   4.005   6.642
11489TIP3   OH234423   2.318   0.801   5.049
11489TIP3    H134424   2.238   0.773   5.093
11489TIP3    H234425   2.373   0.723   5.047
11490TIP3   OH234426   6.673   2.204   3.888
11490TIP3    H134427   6.608   2.274   3.897
11490TIP3    H234428   6.684   2.194   3.793
11491TIP3   OH234429   0.990   3.373   1.740
11491TIP3    H134430   0.929   3.408   1.675
11491TIP3    H234431   0.935   3.347   1.813
11492TIP3   OH234432   3.800   0.433   2.779
11492TIP3    H134433   3.723   0.472   2.738
11492TIP3    H234434   3.785   0.339   2.775
11493TIP3   OH234435   6.899   4.004   4.489
11493TIP3    H134436   6.933   4.089   4.518
11493TIP3    H234437   6.848   4.025   4.411
11494TIP3   OH234438   4.218   3.697   3.770
11494TIP3    H134439   4.171   3.726   3.692
11494TIP3    H234440   4.149   3.669   3.830
11495TIP3   OH234441   2.996   5.265   5.949
11495TIP3    H134442   2.906   5.290   5.930
11495TIP3    H234443   3.041   5.272   5.865
11496TIP3   OH234444   3.227   5.572   3.872
11496TIP3    H134445   3.136   5.574   3.841
11496TIP3    H234446   3.220   5.559   3.966
11497TIP3   OH234447   6.570   2.394   3.103
11497TIP3    H134448   6.544   2.302   3.098
11497TIP3    H234449   6.499   2.436   3.151
11498TIP3   OH234450   5.864   7.673   2.267
11498TIP3    H134451   5.887   7.707   2.353
11498TIP3    H234452   5.855   7.579   2.280
11499TIP3   OH234453   2.623   5.567   4.594
11499TIP3    H134454   2.695   5.532   4.544
11499TIP3    H234455   2.631   5.526   4.680
11500TIP3   OH234456   4.808   5.111   4.400
11500TIP3    H134457   4.806   5.159   4.483
11500TIP3    H234458   4.844   5.025   4.424
11501TIP3   OH234459   2.421   1.274   0.313
11501TIP3    H134460   2.331   1.242   0.311
11501TIP3    H234461   2.456   1.241   0.396
11502TIP3   OH234462   3.460   6.051   3.810
11502TIP3    H134463   3.499   5.980   3.758
11502TIP3    H234464   3.523   6.123   3.802
11503TIP3   OH234465   4.593   5.016   3.151
11503TIP3    H134466   4.551   4.987   3.070
11503TIP3    H234467   4.685   5.029   3.127
11504TIP3   OH234468   3.505   5.206   4.680
11504TIP3    H134469   3.566   5.248   4.741
11504TIP3    H234470   3.460   5.140   4.733
11505TIP3   OH234471   6.911   0.284   2.012
11505TIP3    H134472   6.879   0.373   2.001
11505TIP3    H234473   6.906   0.245   1.924
11506TIP3   OH234474   0.532   5.548   1.775
11506TIP3    H134475   0.527   5.629   1.724
11506TIP3    H234476   0.625   5.536   1.792
11507TIP3   OH234477   3.267   3.955   4.445
11507TIP3    H134478   3.215   4.036   4.445
11507TIP3    H234479   3.344   3.976   4.391
11508TIP3   OH234480   1.953   5.415   3.206
11508TIP3    H134481   2.011   5.395   3.280
11508TIP3    H234482   2.013   5.430   3.132
11509TIP3   OH234483   4.444   1.522   0.057
11509TIP3    H134484   4.493   1.444   0.080
11509TIP3    H234485   4.352   1.499   0.074
11510TIP3   OH234486   4.478   7.511   1.081
11510TIP3    H134487   4.411   7.451   1.048
11510TIP3    H234488   4.467   7.590   1.030
11511TIP3   OH234489   3.604   5.939   5.859
11511TIP3    H134490   3.638   6.016   5.904
11511TIP3    H234491   3.568   5.972   5.777
11512TIP3   OH234492   7.498   7.655   3.877
11512TIP3    H134493   7.405   7.661   3.898
11512TIP3    H234494   7.532   7.589   3.936
11513TIP3   OH234495   3.800   4.153   3.536
11513TIP3    H134496   3.826   4.235   3.496
11513TIP3    H234497   3.708   4.165   3.559
11514TIP3   OH234498   7.911   4.005   4.984
11514TIP3    H134499   7.901   3.938   5.052
11514TIP3    H234500   7.822   4.017   4.950
11515TIP3   OH234501   3.359   1.238   2.065
11515TIP3    H134502   3.419   1.268   2.134
11515TIP3    H234503   3.330   1.151   2.095
11516TIP3   OH234504   1.413   1.856   6.498
11516TIP3    H134505   1.377   1.861   6.410
11516TIP3    H234506   1.413   1.763   6.519
11517TIP3   OH234507   4.748   5.478   0.955
11517TIP3    H134508   4.790   5.559   0.928
11517TIP3    H234509   4.737   5.487   1.050
11518TIP3   OH234510   7.057   4.301   4.898
11518TIP3    H134511   6.980   4.355   4.917
11518TIP3    H234512   7.128   4.342   4.947
11519TIP3   OH234513   0.800   1.699   1.838
11519TIP3    H134514   0.870   1.638   1.860
11519TIP3    H234515   0.771   1.672   1.750
11520TIP3   OH234516   3.441   4.910   1.306
11520TIP3    H134517   3.361   4.949   1.341
11520TIP3    H234518   3.411   4.855   1.234
11521TIP3   OH234519   1.110   6.399   6.011
11521TIP3    H134520   1.137   6.486   5.983
11521TIP3    H234521   1.052   6.414   6.085
11522TIP3   OH234522   2.799   6.213   1.081
11522TIP3    H134523   2.867   6.157   1.117
11522TIP3    H234524   2.829   6.302   1.098
11523TIP3   OH234525   6.243   4.668   0.659
11523TIP3    H134526   6.260   4.618   0.578
11523TIP3    H234527   6.153   4.698   0.650
11524TIP3   OH234528   4.851   3.598   3.350
11524TIP3    H134529   4.762   3.597   3.383
11524TIP3    H234530   4.884   3.686   3.370
11525TIP3   OH234531   6.008   6.862   6.144
11525TIP3    H134532   6.009   6.880   6.238
11525TIP3    H234533   5.924   6.819   6.127
11526TIP3   OH234534   6.212   1.898   2.276
11526TIP3    H134535   6.195   1.987   2.247
11526TIP3    H234536   6.237   1.852   2.195
11527TIP3   OH234537   0.169   5.736   1.243
11527TIP3    H134538   0.084   5.692   1.234
11527TIP3    H234539   0.223   5.675   1.292
11528TIP3   OH234540   1.682   1.032   3.518
11528TIP3    H134541   1.743   1.048   3.446
11528TIP3    H234542   1.733   0.980   3.581
11529TIP3   OH234543   7.430   2.395   6.652
11529TIP3    H134544   7.514   2.412   6.694
11529TIP3    H234545   7.449   2.402   6.558
11530TIP3   OH234546   2.009   7.772   4.273
11530TIP3    H134547   2.020   7.704   4.340
11530TIP3    H234548   1.937   7.825   4.305
11531TIP3   OH234549   5.359   4.422   0.522
11531TIP3    H134550   5.430   4.372   0.562
11531TIP3    H234551   5.404   4.494   0.477
11532TIP3   OH234552   8.254   6.084   1.856
11532TIP3    H134553   8.216   6.132   1.782
11532TIP3    H234554   8.331   6.134   1.880
11533TIP3   OH234555   0.333   1.525   3.687
11533TIP3    H134556   0.343   1.574   3.605
11533TIP3    H234557   0.421   1.522   3.724
11534TIP3   OH234558   5.064   4.228   4.390
11534TIP3    H134559   5.132   4.258   4.450
11534TIP3    H234560   5.073   4.132   4.390
11535TIP3   OH234561   6.444   4.060   1.244
11535TIP3    H134562   6.389   4.027   1.173
11535TIP3    H234563   6.422   4.154   1.250
11536TIP3   OH234564   1.164   6.058   3.184
11536TIP3    H134565   1.187   6.091   3.098
11536TIP3    H234566   1.183   5.964   3.180
11537TIP3   OH234567   1.225   0.629   2.328
11537TIP3    H134568   1.214   0.722   2.348
11537TIP3    H234569   1.146   0.587   2.362
11538TIP3   OH234570   6.121   1.975   0.456
11538TIP3    H134571   6.173   1.985   0.376
11538TIP3    H234572   6.102   1.881   0.461
11539TIP3   OH234573   6.709   1.377   2.473
11539TIP3    H134574   6.772   1.414   2.412
11539TIP3    H234575   6.716   1.431   2.552
11540TIP3   OH234576   8.379   5.045   2.062
11540TIP3    H134577   8.321   4.977   2.029
11540TIP3    H234578   8.327   5.093   2.126
11541TIP3   OH234579   7.051   5.737   0.540
11541TIP3    H134580   6.990   5.775   0.478
11541TIP3    H234581   7.079   5.811   0.595
11542TIP3   OH234582   2.556   2.525   2.448
11542TIP3    H134583   2.554   2.615   2.416
11542TIP3    H234584   2.551   2.471   2.369
11543TIP3   OH234585   7.416   1.899   4.074
11543TIP3    H134586   7.458   1.890   4.159
11543TIP3    H234587   7.391   1.991   4.069
11544TIP3   OH234588   8.236   4.910   5.670
11544TIP3    H134589   8.158   4.952   5.707
11544TIP3    H234590   8.204   4.828   5.634
11545TIP3   OH234591   0.884   0.606   3.135
11545TIP3    H134592   0.848   0.560   3.210
11545TIP3    H234593   0.847   0.694   3.141
11546TIP3   OH234594   3.069   1.614   6.054
11546TIP3    H134595   3.013   1.539   6.030
11546TIP3    H234596   3.157   1.587   6.028
11547TIP3   OH234597   0.729   6.807   4.414
11547TIP3    H134598   0.742   6.714   4.428
11547TIP3    H234599   0.745   6.820   4.320
11548TIP3   OH234600   6.997   3.144   3.559
11548TIP3    H134601   7.073   3.134   3.617
11548TIP3    H234602   6.936   3.075   3.586
11549TIP3   OH234603   0.640   5.614   5.208
11549TIP3    H134604   0.556   5.626   5.251
11549TIP3    H234605   0.629   5.654   5.122
11550TIP3   OH234606   7.063   2.073   2.094
11550TIP3    H134607   7.152   2.044   2.073
11550TIP3    H234608   7.067   2.095   2.187
11551TIP3   OH234609   8.090   4.200   1.502
11551TIP3    H134610   8.123   4.158   1.581
11551TIP3    H234611   8.137   4.158   1.430
11552TIP3   OH234612   6.509   6.291   0.448
11552TIP3    H134613   6.476   6.227   0.385
11552TIP3    H234614   6.580   6.245   0.492
11553TIP3   OH234615   6.507   3.376   3.350
11553TIP3    H134616   6.419   3.406   3.369
11553TIP3    H234617   6.564   3.442   3.391
11554TIP3   OH234618   3.830   5.015   2.800
11554TIP3    H134619   3.737   5.008   2.779
11554TIP3    H234620   3.843   5.106   2.826
11555TIP3   OH234621   3.095   2.252   4.579
11555TIP3    H134622   3.079   2.196   4.502
11555TIP3    H234623   3.012   2.298   4.591
11556TIP3   OH234624   5.487   4.067   4.292
11556TIP3    H134625   5.488   4.160   4.267
11556TIP3    H234626   5.418   4.029   4.239
11557TIP3   OH234627   4.126   0.802   4.605
11557TIP3    H134628   4.169   0.855   4.672
11557TIP3    H234629   4.167   0.716   4.613
11558TIP3   OH234630   7.551   4.785   2.805
11558TIP3    H134631   7.535   4.867   2.759
11558TIP3    H234632   7.531   4.805   2.897
11559TIP3   OH234633   4.639   3.002   5.615
11559TIP3    H134634   4.587   3.075   5.649
11559TIP3    H234635   4.693   3.041   5.546
11560TIP3   OH234636   2.631   7.868   2.881
11560TIP3    H134637   2.652   7.811   2.807
11560TIP3    H234638   2.567   7.819   2.932
11561TIP3   OH234639   5.661   3.915   2.483
11561TIP3    H134640   5.714   3.857   2.538
11561TIP3    H234641   5.696   4.003   2.500
11562TIP3   OH234642   4.950   0.524   1.829
11562TIP3    H134643   5.017   0.511   1.762
11562TIP3    H234644   4.892   0.448   1.820
11563TIP3   OH234645   7.870   5.570   6.147
11563TIP3    H134646   7.902   5.571   6.057
11563TIP3    H234647   7.785   5.614   6.143
11564TIP3   OH234648   2.175   4.908   1.832
11564TIP3    H134649   2.266   4.928   1.812
11564TIP3    H234650   2.139   4.991   1.864
11565TIP3   OH234651   2.315   0.744   6.078
11565TIP3    H134652   2.290   0.720   5.989
11565TIP3    H234653   2.238   0.789   6.113
11566TIP3   OH234654   5.208   3.521   0.363
11566TIP3    H134655   5.113   3.511   0.370
11566TIP3    H234656   5.226   3.514   0.269
11567TIP3   OH234657   4.198   2.330   4.752
11567TIP3    H134658   4.188   2.376   4.669
11567TIP3    H234659   4.273   2.371   4.795
11568TIP3   OH234660   0.516   3.218   4.785
11568TIP3    H134661   0.567   3.242   4.707
11568TIP3    H234662   0.425   3.232   4.759
11569TIP3   OH234663   1.357   0.001   2.368
11569TIP3    H134664   1.304   0.076   2.342
11569TIP3    H234665   1.305  -0.075   2.343
11570TIP3   OH234666   2.893   3.924   4.935
11570TIP3    H134667   2.935   3.844   4.966
11570TIP3    H234668   2.813   3.895   4.894
11571TIP3   OH234669   6.655   0.981   6.012
11571TIP3    H134670   6.654   0.966   5.918
11571TIP3    H234671   6.580   0.931   6.046
11572TIP3   OH234672   8.304   3.277   2.173
11572TIP3    H134673   8.298   3.263   2.079
11572TIP3    H234674   8.232   3.337   2.193
11573TIP3   OH234675   1.014   4.631   4.846
11573TIP3    H134676   0.928   4.627   4.805
11573TIP3    H234677   1.029   4.542   4.879
11574TIP3   OH234678   1.419   0.870   4.825
11574TIP3    H134679   1.506   0.885   4.862
11574TIP3    H234680   1.434   0.815   4.748
11575TIP3   OH234681   6.505   3.278   4.277
11575TIP3    H134682   6.531   3.302   4.366
11575TIP3    H234683   6.490   3.184   4.282
11576TIP3   OH234684   3.571   4.993   5.823
11576TIP3    H134685   3.662   5.014   5.803
11576TIP3    H234686   3.524   5.010   5.742
11577TIP3   OH234687   3.178   5.631   5.031
11577TIP3    H134688   3.133   5.712   5.057
11577TIP3    H234689   3.255   5.662   4.982
11578TIP3   OH234690   1.566   0.726   5.698
11578TIP3    H134691   1.591   0.786   5.628
11578TIP3    H234692   1.472   0.711   5.685
11579TIP3   OH234693   5.723   4.607   2.145
11579TIP3    H134694   5.705   4.701   2.148
11579TIP3    H234695   5.650   4.570   2.096
11580TIP3   OH234696   3.370   3.899   0.223
11580TIP3    H134697   3.319   3.823   0.252
11580TIP3    H234698   3.314   3.974   0.242
11581TIP3   OH234699   1.289   3.629   0.388
11581TIP3    H134700   1.196   3.610   0.391
11581TIP3    H234701   1.311   3.654   0.478
11582TIP3   OH234702   7.780   5.181   1.282
11582TIP3    H134703   7.828   5.221   1.210
11582TIP3    H234704   7.735   5.106   1.242
11583TIP3   OH234705   5.057   5.210   2.714
11583TIP3    H134706   5.083   5.211   2.806
11583TIP3    H234707   4.968   5.174   2.714
11584TIP3   OH234708   6.224   1.626   0.239
11584TIP3    H134709   6.315   1.657   0.241
11584TIP3    H234710   6.174   1.695   0.281
11585TIP3   OH234711   4.092   3.736   2.212
11585TIP3    H134712   4.107   3.822   2.250
11585TIP3    H234713   4.037   3.691   2.276
11586TIP3   OH234714   6.567   7.130   5.163
11586TIP3    H134715   6.661   7.118   5.151
11586TIP3    H234716   6.528   7.048   5.132
11587TIP3   OH234717   5.242   5.419   4.085
11587TIP3    H134718   5.293   5.347   4.121
11587TIP3    H234719   5.187   5.449   4.158
11588TIP3   OH234720   7.114   2.646   1.911
11588TIP3    H134721   7.055   2.692   1.971
11588TIP3    H234722   7.118   2.703   1.834
11589TIP3   OH234723   5.254   6.911   2.499
11589TIP3    H134724   5.246   6.851   2.573
11589TIP3    H234725   5.187   6.883   2.437
11590TIP3   OH234726   7.914   0.953   1.280
11590TIP3    H134727   7.829   0.991   1.261
11590TIP3    H234728   7.911   0.931   1.373
11591TIP3   OH234729   3.709   4.024   5.031
11591TIP3    H134730   3.763   4.076   4.971
11591TIP3    H234731   3.701   4.078   5.109
11592TIP3   OH234732   3.386   6.619   4.592
11592TIP3    H134733   3.384   6.523   4.593
11592TIP3    H234734   3.446   6.642   4.662
11593TIP3   OH234735   7.655   1.491   1.873
11593TIP3    H134736   7.585   1.460   1.930
11593TIP3    H234737   7.736   1.475   1.921
11594TIP3   OH234738   3.475   0.319   5.757
11594TIP3    H134739   3.536   0.390   5.737
11594TIP3    H234740   3.527   0.239   5.746
11595TIP3   OH234741   8.218   5.240   1.817
11595TIP3    H134742   8.280   5.168   1.822
11595TIP3    H234743   8.272   5.319   1.813
11596TIP3   OH234744   2.916   0.841   3.178
11596TIP3    H134745   2.903   0.889   3.260
11596TIP3    H234746   2.938   0.752   3.205
11597TIP3   OH234747   5.447   7.754   6.507
11597TIP3    H134748   5.378   7.699   6.544
11597TIP3    H234749   5.452   7.829   6.566
11598TIP3   OH234750   0.843   6.091   3.240
11598TIP3    H134751   0.930   6.052   3.251
11598TIP3    H234752   0.857   6.184   3.259
11599TIP3   OH234753   6.702   5.751   5.298
11599TIP3    H134754   6.762   5.803   5.245
11599TIP3    H234755   6.635   5.722   5.236
11600TIP3   OH234756   5.422   0.193   1.269
11600TIP3    H134757   5.341   0.238   1.294
11600TIP3    H234758   5.447   0.233   1.186
11601TIP3   OH234759   6.139   1.974   1.831
11601TIP3    H134760   6.062   2.029   1.819
11601TIP3    H234761   6.198   1.998   1.759
11602TIP3   OH234762   1.137   3.988   5.785
11602TIP3    H134763   1.126   4.072   5.740
11602TIP3    H234764   1.057   3.978   5.836
11603TIP3   OH234765   4.052   4.194   4.669
11603TIP3    H134766   4.048   4.109   4.625
11603TIP3    H234767   3.981   4.245   4.631
11604TIP3   OH234768   1.970   0.392   0.234
11604TIP3    H134769   2.009   0.430   0.155
11604TIP3    H234770   1.902   0.333   0.200
11605TIP3   OH234771   6.578   2.938   2.395
11605TIP3    H134772   6.510   2.963   2.458
11605TIP3    H234773   6.660   2.968   2.436
11606TIP3   OH234774   7.650   2.816   5.786
11606TIP3    H134775   7.667   2.909   5.769
11606TIP3    H234776   7.696   2.797   5.868
11607TIP3   OH234777   8.055   0.111   5.894
11607TIP3    H134778   7.968   0.082   5.922
11607TIP3    H234779   8.105   0.120   5.975
11608TIP3   OH234780   0.518   7.053   6.622
11608TIP3    H134781   0.601   7.018   6.588
11608TIP3    H234782   0.531   7.148   6.622
11609TIP3   OH234783   8.073   6.264   1.970
11609TIP3    H134784   8.162   6.233   1.954
11609TIP3    H234785   8.019   6.222   1.903
11610TIP3   OH234786   7.492   2.289   0.516
11610TIP3    H134787   7.420   2.350   0.531
11610TIP3    H234788   7.477   2.219   0.579
11611TIP3   OH234789   4.069   0.140   0.873
11611TIP3    H134790   4.002   0.126   0.939
11611TIP3    H234791   4.129   0.066   0.884
11612TIP3   OH234792   1.645   0.209   3.780
11612TIP3    H134793   1.706   0.182   3.712
11612TIP3    H234794   1.559   0.210   3.736
11613TIP3   OH234795   3.505   1.583   5.006
11613TIP3    H134796   3.491   1.675   4.983
11613TIP3    H234797   3.439   1.565   5.073
11614TIP3   OH234798   2.298   5.550   0.451
11614TIP3    H134799   2.283   5.600   0.532
11614TIP3    H234800   2.301   5.459   0.480
11615TIP3   OH234801   6.776   7.191   1.574
11615TIP3    H134802   6.735   7.106   1.562
11615TIP3    H234803   6.703   7.252   1.585
11616TIP3   OH234804   3.042   1.677   2.693
11616TIP3    H134805   3.057   1.599   2.639
11616TIP3    H234806   3.103   1.667   2.766
11617TIP3   OH234807   3.934   1.951   0.498
11617TIP3    H134808   4.018   1.959   0.544
11617TIP3    H234809   3.935   2.020   0.433
11618TIP3   OH234810   4.452   1.317   6.188
11618TIP3    H134811   4.530   1.272   6.218
11618TIP3    H234812   4.454   1.401   6.234
11619TIP3   OH234813   2.211   6.152   4.147
11619TIP3    H134814   2.198   6.244   4.171
11619TIP3    H234815   2.304   6.135   4.166
11620TIP3   OH234816   6.976   1.396   5.993
11620TIP3    H134817   6.979   1.399   6.089
11620TIP3    H234818   7.063   1.421   5.965
11621TIP3   OH234819   4.373   1.332   3.381
11621TIP3    H134820   4.310   1.404   3.390
11621TIP3    H234821   4.345   1.267   3.445
11622TIP3   OH234822   6.837   6.094   1.702
11622TIP3    H134823   6.921   6.108   1.745
11622TIP3    H234824   6.836   6.155   1.629
11623TIP3   OH234825   1.325   1.097   6.347
11623TIP3    H134826   1.411   1.061   6.329
11623TIP3    H234827   1.319   1.102   6.442
11624TIP3   OH234828   8.037   4.541   6.528
11624TIP3    H134829   7.944   4.522   6.532
11624TIP3    H234830   8.073   4.477   6.466
11625TIP3   OH234831   4.105   3.627   4.852
11625TIP3    H134832   4.068   3.574   4.782
11625TIP3    H234833   4.029   3.658   4.901
11626TIP3   OH234834   1.120   2.339   0.837
11626TIP3    H134835   1.048   2.310   0.781
11626TIP3    H234836   1.180   2.383   0.776
11627TIP3   OH234837   2.496   2.109   0.295
11627TIP3    H134838   2.542   2.149   0.368
11627TIP3    H234839   2.565   2.068   0.243
11628TIP3   OH234840   2.421   1.184   3.914
11628TIP3    H134841   2.510   1.149   3.908
11628TIP3    H234842   2.434   1.276   3.939
11629TIP3   OH234843   6.376   1.232   2.060
11629TIP3    H134844   6.317   1.282   2.004
11629TIP3    H234845   6.369   1.274   2.146
11630TIP3   OH234846   0.431   1.260   0.170
11630TIP3    H134847   0.415   1.334   0.228
11630TIP3    H234848   0.507   1.215   0.207
11631TIP3   OH234849   2.548   2.420   6.134
11631TIP3    H134850   2.591   2.335   6.122
11631TIP3    H234851   2.569   2.468   6.054
11632TIP3   OH234852   4.404   4.952   1.313
11632TIP3    H134853   4.397   5.030   1.368
11632TIP3    H234854   4.498   4.936   1.306
11633TIP3   OH234855   1.134   1.448   0.530
11633TIP3    H134856   1.090   1.522   0.571
11633TIP3    H234857   1.178   1.403   0.602
11634TIP3   OH234858   7.890   1.957   0.962
11634TIP3    H134859   7.870   1.927   0.873
11634TIP3    H234860   7.940   2.038   0.949
11635TIP3   OH234861   0.127   5.985   4.707
11635TIP3    H134862   0.151   6.022   4.622
11635TIP3    H234863   0.191   6.021   4.768
11636TIP3   OH234864   4.654   6.628   6.688
11636TIP3    H134865   4.699   6.570   6.627
11636TIP3    H234866   4.623   6.570   6.758
11637TIP3   OH234867   4.000   2.647   0.401
11637TIP3    H134868   4.038   2.718   0.453
11637TIP3    H234869   3.929   2.613   0.457
11638TIP3   OH234870   3.679   2.474   4.944
11638TIP3    H134871   3.646   2.431   4.865
11638TIP3    H234872   3.762   2.513   4.918
11639TIP3   OH234873   1.617   1.407   1.044
11639TIP3    H134874   1.696   1.402   0.990
11639TIP3    H234875   1.619   1.495   1.082
11640TIP3   OH234876   7.916   0.208   2.232
11640TIP3    H134877   7.919   0.190   2.138
11640TIP3    H234878   8.005   0.190   2.262
11641TIP3   OH234879   8.154   2.967   0.772
11641TIP3    H134880   8.229   2.936   0.722
11641TIP3    H234881   8.096   3.007   0.707
11642TIP3   OH234882   1.424   4.725   5.204
11642TIP3    H134883   1.439   4.729   5.110
11642TIP3    H234884   1.375   4.805   5.224
11643TIP3   OH234885   0.624   5.029   2.920
11643TIP3    H134886   0.550   5.058   2.973
11643TIP3    H234887   0.639   4.938   2.946
11644TIP3   OH234888   0.453   3.970   3.061
11644TIP3    H134889   0.413   4.049   3.026
11644TIP3    H234890   0.528   3.954   3.005
11645TIP3   OH234891   6.242   4.374   5.988
11645TIP3    H134892   6.333   4.367   5.961
11645TIP3    H234893   6.232   4.309   6.058
11646TIP3   OH234894   5.574   5.158   0.781
11646TIP3    H134895   5.627   5.122   0.852
11646TIP3    H234896   5.483   5.146   0.810
11647TIP3   OH234897   0.078   5.714   5.773
11647TIP3    H134898   0.036   5.780   5.828
11647TIP3    H234899   0.146   5.761   5.726
11648TIP3   OH234900   8.238   6.076   4.343
11648TIP3    H134901   8.252   5.993   4.390
11648TIP3    H234902   8.238   6.051   4.251
11649TIP3   OH234903   1.292   1.859   6.251
11649TIP3    H134904   1.329   1.827   6.168
11649TIP3    H234905   1.220   1.799   6.270
11650TIP3   OH234906   5.746   4.630   1.065
11650TIP3    H134907   5.781   4.643   0.977
11650TIP3    H234908   5.691   4.552   1.058
11651TIP3   OH234909   4.501   2.799   5.198
11651TIP3    H134910   4.479   2.810   5.291
11651TIP3    H234911   4.540   2.712   5.192
11652TIP3   OH234912   0.220   4.351   6.742
11652TIP3    H134913   0.161   4.381   6.673
11652TIP3    H234914   0.308   4.374   6.711
11653TIP3   OH234915   2.146   0.158   0.750
11653TIP3    H134916   2.108   0.073   0.771
11653TIP3    H234917   2.173   0.194   0.835
11654TIP3   OH234918   0.542   4.079   0.901
11654TIP3    H134919   0.599   4.151   0.928
11654TIP3    H234920   0.494   4.114   0.826
11655TIP3   OH234921   6.149   1.059   3.343
11655TIP3    H134922   6.179   0.999   3.274
11655TIP3    H234923   6.057   1.077   3.321
11656TIP3   OH234924   2.699   7.027   3.976
11656TIP3    H134925   2.760   6.992   3.911
11656TIP3    H234926   2.665   6.949   4.021
11657TIP3   OH234927   6.926   1.083   3.777
11657TIP3    H134928   6.937   1.178   3.772
11657TIP3    H234929   6.836   1.071   3.808
11658TIP3   OH234930   1.977   0.230   4.511
11658TIP3    H134931   2.047   0.292   4.531
11658TIP3    H234932   1.928   0.271   4.440
11659TIP3   OH234933   6.923   2.195   5.048
11659TIP3    H134934   6.982   2.120   5.049
11659TIP3    H234935   6.904   2.211   5.140
11660TIP3   OH234936   2.619   5.518   0.360
11660TIP3    H134937   2.529   5.486   0.347
11660TIP3    H234938   2.608   5.600   0.407
11661TIP3   OH234939   8.218   2.118   1.726
11661TIP3    H134940   8.312   2.126   1.711
11661TIP3    H234941   8.191   2.043   1.673
11662TIP3   OH234942   4.662   7.788   3.862
11662TIP3    H134943   4.595   7.735   3.905
11662TIP3    H234944   4.689   7.735   3.786
11663TIP3   OH234945   2.321   4.611   1.978
11663TIP3    H134946   2.226   4.621   1.970
11663TIP3    H234947   2.346   4.673   2.046
11664TIP3   OH234948   3.890   5.075   2.269
11664TIP3    H134949   3.889   5.127   2.350
11664TIP3    H234950   3.967   5.019   2.278
11665TIP3   OH234951   2.258   0.909   3.674
11665TIP3    H134952   2.173   0.932   3.711
11665TIP3    H234953   2.291   0.840   3.731
11666TIP3   OH234954   3.049   4.455   1.978
11666TIP3    H134955   3.041   4.383   1.916
11666TIP3    H234956   3.070   4.531   1.923
11667TIP3   OH234957   0.219   3.665   3.913
11667TIP3    H134958   0.215   3.571   3.899
11667TIP3    H234959   0.156   3.682   3.983
11668TIP3   OH234960   0.837   6.879   3.652
11668TIP3    H134961   0.785   6.947   3.609
11668TIP3    H234962   0.776   6.806   3.664
11669TIP3   OH234963   4.242   6.712   5.879
11669TIP3    H134964   4.168   6.662   5.912
11669TIP3    H234965   4.205   6.771   5.813
11670TIP3   OH234966   2.880   5.982   2.140
11670TIP3    H134967   2.899   6.016   2.228
11670TIP3    H234968   2.944   5.911   2.129
11671TIP3   OH234969   4.257   5.401   1.264
11671TIP3    H134970   4.299   5.376   1.181
11671TIP3    H234971   4.169   5.366   1.257
11672TIP3   OH234972   4.794   2.031   3.892
11672TIP3    H134973   4.713   2.061   3.933
11672TIP3    H234974   4.841   2.111   3.870
11673TIP3   OH234975   4.800   7.177   4.910
11673TIP3    H134976   4.843   7.201   4.827
11673TIP3    H234977   4.857   7.111   4.948
11674TIP3   OH234978   3.874   2.600   6.356
11674TIP3    H134979   3.918   2.658   6.418
11674TIP3    H234980   3.935   2.592   6.282
11675TIP3   OH234981   0.168   4.202   1.542
11675TIP3    H134982   0.261   4.222   1.552
11675TIP3    H234983   0.133   4.276   1.492
11676TIP3   OH234984   4.409   5.030   0.570
11676TIP3    H134985   4.405   5.107   0.515
11676TIP3    H234986   4.324   4.987   0.558
11677TIP3   OH234987   2.473   3.455   3.945
11677TIP3    H134988   2.408   3.498   4.001
11677TIP3    H234989   2.487   3.517   3.873
11678TIP3   OH234990   2.190   3.356   3.572
11678TIP3    H134991   2.227   3.331   3.487
11678TIP3    H234992   2.261   3.344   3.634
11679TIP3   OH234993   2.550   2.618   5.636
11679TIP3    H134994   2.477   2.679   5.624
11679TIP3    H234995   2.510   2.531   5.633
11680TIP3   OH234996   5.847   5.629   3.398
11680TIP3    H134997   5.757   5.646   3.371
11680TIP3    H234998   5.840   5.605   3.491
11681TIP3   OH234999   3.003   4.561   3.200
11681TIP3    H135000   2.965   4.574   3.113
11681TIP3    H235001   2.987   4.644   3.246
11682TIP3   OH235002   2.499   6.264   6.022
11682TIP3    H135003   2.583   6.307   6.039
11682TIP3    H235004   2.435   6.316   6.070
11683TIP3   OH235005   4.271   7.671   2.569
11683TIP3    H135006   4.356   7.630   2.554
11683TIP3    H235007   4.227   7.613   2.631
11684TIP3   OH235008   5.062   5.813   5.649
11684TIP3    H135009   5.093   5.876   5.715
11684TIP3    H235010   5.119   5.737   5.660
11685TIP3   OH235011   8.116   1.184   1.025
11685TIP3    H135012   8.057   1.112   1.006
11685TIP3    H235013   8.099   1.207   1.116
11686TIP3   OH235014   1.223   5.504   5.033
11686TIP3    H135015   1.299   5.480   5.086
11686TIP3    H235016   1.237   5.458   4.950
11687TIP3   OH235017   3.081   0.198   1.432
11687TIP3    H135018   3.029   0.157   1.363
11687TIP3    H235019   3.017   0.228   1.496
11688TIP3   OH235020   0.994   4.407   2.328
11688TIP3    H135021   0.964   4.419   2.238
11688TIP3    H235022   0.916   4.381   2.376
11689TIP3   OH235023   7.962   1.053   6.434
11689TIP3    H135024   8.031   0.994   6.465
11689TIP3    H235025   7.942   1.108   6.510
11690TIP3   OH235026   6.101   0.623   5.433
11690TIP3    H135027   6.193   0.646   5.417
11690TIP3    H235028   6.091   0.628   5.528
11691TIP3   OH235029   8.260   5.611   4.292
11691TIP3    H135030   8.261   5.695   4.338
11691TIP3    H235031   8.169   5.584   4.295
11692TIP3   OH235032   6.174   5.951   4.409
11692TIP3    H135033   6.242   5.886   4.391
11692TIP3    H235034   6.156   5.941   4.503
11693TIP3   OH235035   4.131   2.895   0.489
11693TIP3    H135036   4.219   2.891   0.450
11693TIP3    H235037   4.110   2.989   0.490
11694TIP3   OH235038   1.940   4.153   1.114
11694TIP3    H135039   1.933   4.100   1.034
11694TIP3    H235040   1.966   4.092   1.182
11695TIP3   OH235041   2.115   0.493   0.855
11695TIP3    H135042   2.113   0.500   0.951
11695TIP3    H235043   2.029   0.526   0.827
11696TIP3   OH235044   4.843   7.136   6.411
11696TIP3    H135045   4.785   7.086   6.354
11696TIP3    H235046   4.788   7.165   6.483
11697TIP3   OH235047   2.793   5.045   0.970
11697TIP3    H135048   2.717   5.000   0.934
11697TIP3    H235049   2.857   4.975   0.985
11698TIP3   OH235050   3.791   5.906   4.216
11698TIP3    H135051   3.881   5.919   4.245
11698TIP3    H235052   3.792   5.930   4.123
11699TIP3   OH235053   7.713   6.562   2.693
11699TIP3    H135054   7.666   6.639   2.660
11699TIP3    H235055   7.719   6.577   2.788
11700TIP3   OH235056   1.079   7.639   1.747
11700TIP3    H135057   1.144   7.692   1.702
11700TIP3    H235058   1.077   7.674   1.836
11701TIP3   OH235059   2.334   4.156   0.085
11701TIP3    H135060   2.274   4.164   0.159
11701TIP3    H235061   2.420   4.148   0.125
11702TIP3   OH235062   0.722   3.442   0.787
11702TIP3    H135063   0.777   3.482   0.720
11702TIP3    H235064   0.746   3.487   0.868
11703TIP3   OH235065   3.686   0.891   3.923
11703TIP3    H135066   3.643   0.807   3.937
11703TIP3    H235067   3.758   0.872   3.864
11704TIP3   OH235068   7.518   2.429   1.155
11704TIP3    H135069   7.476   2.479   1.225
11704TIP3    H235070   7.603   2.471   1.144
11705TIP3   OH235071   4.794   1.670   4.235
11705TIP3    H135072   4.849   1.592   4.247
11705TIP3    H235073   4.809   1.695   4.143
11706TIP3   OH235074   2.126   2.080   3.129
11706TIP3    H135075   2.096   2.149   3.187
11706TIP3    H235076   2.169   2.126   3.057
11707TIP3   OH235077   3.621   2.439   5.903
11707TIP3    H135078   3.584   2.422   5.990
11707TIP3    H235079   3.681   2.367   5.887
11708TIP3   OH235080   3.864   0.638   6.527
11708TIP3    H135081   3.797   0.644   6.459
11708TIP3    H235082   3.883   0.729   6.551
11709TIP3   OH235083   3.697   6.075   3.552
11709TIP3    H135084   3.712   6.021   3.630
11709TIP3    H235085   3.726   6.020   3.479
11710TIP3   OH235086   7.163   7.483   4.603
11710TIP3    H135087   7.225   7.445   4.541
11710TIP3    H235088   7.109   7.409   4.631
11711TIP3   OH235089   0.474   6.252   0.274
11711TIP3    H135090   0.432   6.267   0.190
11711TIP3    H235091   0.458   6.332   0.324
11712TIP3   OH235092   0.144   3.496   3.588
11712TIP3    H135093   0.117   3.485   3.496
11712TIP3    H235094   0.113   3.417   3.632
11713TIP3   OH235095   3.116   1.410   0.274
11713TIP3    H135096   3.163   1.340   0.228
11713TIP3    H235097   3.168   1.489   0.257
11714TIP3   OH235098   6.067   3.247   2.770
11714TIP3    H135099   5.995   3.306   2.791
11714TIP3    H235100   6.025   3.167   2.737
11715TIP3   OH235101   0.930   7.490   3.131
11715TIP3    H135102   0.897   7.518   3.216
11715TIP3    H235103   1.005   7.547   3.114
11716TIP3   OH235104   5.489   4.618   6.792
11716TIP3    H135105   5.540   4.685   6.837
11716TIP3    H235106   5.459   4.660   6.712
11717TIP3   OH235107   2.830   3.756   3.322
11717TIP3    H135108   2.887   3.711   3.259
11717TIP3    H235109   2.835   3.848   3.296
11718TIP3   OH235110   3.455   7.078   2.927
11718TIP3    H135111   3.517   7.115   2.990
11718TIP3    H235112   3.373   7.125   2.943
11719TIP3   OH235113   0.075   0.390   3.159
11719TIP3    H135114   0.046   0.464   3.105
11719TIP3    H235115   0.004   0.376   3.221
11720TIP3   OH235116   2.676   3.160   5.766
11720TIP3    H135117   2.762   3.136   5.801
11720TIP3    H235118   2.630   3.077   5.755
11721TIP3   OH235119   5.859   6.352   1.257
11721TIP3    H135120   5.794   6.292   1.293
11721TIP3    H235121   5.822   6.439   1.270
11722TIP3   OH235122   2.877   0.680   4.859
11722TIP3    H135123   2.905   0.731   4.935
11722TIP3    H235124   2.930   0.600   4.863
11723TIP3   OH235125   8.238   2.182   6.084
11723TIP3    H135126   8.172   2.128   6.039
11723TIP3    H235127   8.315   2.126   6.090
11724TIP3   OH235128   6.422   1.380   6.482
11724TIP3    H135129   6.332   1.409   6.496
11724TIP3    H235130   6.448   1.421   6.399
11725TIP3   OH235131   0.663   3.858   0.824
11725TIP3    H135132   0.600   3.927   0.845
11725TIP3    H235133   0.675   3.811   0.907
11726TIP3   OH235134   6.512   0.222   2.685
11726TIP3    H135135   6.465   0.139   2.675
11726TIP3    H235136   6.457   0.286   2.641
11727TIP3   OH235137   3.466   4.325   1.879
11727TIP3    H135138   3.395   4.379   1.845
11727TIP3    H235139   3.500   4.278   1.802
11728TIP3   OH235140   4.993   7.648   3.210
11728TIP3    H135141   5.017   7.564   3.171
11728TIP3    H235142   4.973   7.627   3.301
11729TIP3   OH235143   6.755   5.517   6.579
11729TIP3    H135144   6.741   5.551   6.668
11729TIP3    H235145   6.734   5.591   6.522
11730TIP3   OH235146   5.500   1.338   5.832
11730TIP3    H135147   5.519   1.271   5.898
11730TIP3    H235148   5.526   1.298   5.749
11731TIP3   OH235149   1.831   6.751   4.006
11731TIP3    H135150   1.746   6.716   3.980
11731TIP3    H235151   1.842   6.829   3.952
11732TIP3   OH235152   7.698   3.954   2.847
11732TIP3    H135153   7.671   4.022   2.909
11732TIP3    H235154   7.712   3.876   2.901
11733TIP3   OH235155   7.571   6.419   5.539
11733TIP3    H135156   7.594   6.327   5.543
11733TIP3    H235157   7.649   6.462   5.505
11734TIP3   OH235158   6.898   0.849   3.243
11734TIP3    H135159   6.875   0.760   3.217
11734TIP3    H235160   6.965   0.838   3.311
11735TIP3   OH235161   7.335   6.130   5.352
11735TIP3    H135162   7.344   6.090   5.438
11735TIP3    H235163   7.348   6.058   5.290
11736TIP3   OH235164   6.391   4.337   3.904
11736TIP3    H135165   6.481   4.306   3.893
11736TIP3    H235166   6.385   4.361   3.996
11737TIP3   OH235167   1.784   4.292   0.557
11737TIP3    H135168   1.703   4.275   0.604
11737TIP3    H235169   1.763   4.366   0.500
11738TIP3   OH235170   4.777   5.614   2.298
11738TIP3    H135171   4.712   5.544   2.286
11738TIP3    H235172   4.746   5.685   2.241
11739TIP3   OH235173   2.466   7.035   6.068
11739TIP3    H135174   2.420   7.114   6.096
11739TIP3    H235175   2.558   7.053   6.087
11740TIP3   OH235176   4.114   0.761   6.689
11740TIP3    H135177   4.118   0.667   6.669
11740TIP3    H235178   4.038   0.792   6.640
11741TIP3   OH235179   3.960   5.509   1.086
11741TIP3    H135180   3.966   5.440   1.152
11741TIP3    H235181   3.938   5.462   1.005
11742TIP3   OH235182   1.727   6.498   0.741
11742TIP3    H135183   1.810   6.546   0.735
11742TIP3    H235184   1.678   6.542   0.811
11743TIP3   OH235185   7.406   6.598   3.869
11743TIP3    H135186   7.319   6.637   3.876
11743TIP3    H235187   7.391   6.504   3.880
11744TIP3   OH235188   4.981   4.652   6.595
11744TIP3    H135189   4.977   4.683   6.504
11744TIP3    H235190   5.011   4.561   6.587
11745TIP3   OH235191   4.513   4.724   3.833
11745TIP3    H135192   4.492   4.788   3.765
11745TIP3    H235193   4.435   4.668   3.838
11746TIP3   OH235194   0.364   6.476   2.664
11746TIP3    H135195   0.403   6.490   2.578
11746TIP3    H235196   0.349   6.564   2.698
11747TIP3   OH235197   0.166   6.852   5.995
11747TIP3    H135198   0.114   6.783   5.954
11747TIP3    H235199   0.256   6.818   5.995
11748TIP3   OH235200   5.021   0.880   4.092
11748TIP3    H135201   4.964   0.820   4.140
11748TIP3    H235202   5.106   0.872   4.135
11749TIP3   OH235203   2.879   3.569   4.851
11749TIP3    H135204   2.949   3.506   4.870
11749TIP3    H235205   2.811   3.550   4.916
11750TIP3   OH235206   6.341   1.355   3.780
11750TIP3    H135207   6.334   1.264   3.812
11750TIP3    H235208   6.271   1.362   3.715
11751TIP3   OH235209   7.437   2.506   0.268
11751TIP3    H135210   7.501   2.515   0.339
11751TIP3    H235211   7.421   2.595   0.237
11752TIP3   OH235212   7.027   4.969   6.491
11752TIP3    H135213   7.011   4.984   6.584
11752TIP3    H235214   6.956   4.912   6.463
11753TIP3   OH235215   0.539   6.833   3.870
11753TIP3    H135216   0.576   6.777   3.801
11753TIP3    H235217   0.524   6.774   3.943
11754TIP3   OH235218   3.590   3.870   0.623
11754TIP3    H135219   3.667   3.822   0.591
11754TIP3    H235220   3.575   3.835   0.711
11755TIP3   OH235221   4.362   7.557   5.858
11755TIP3    H135222   4.358   7.467   5.892
11755TIP3    H235223   4.455   7.579   5.862
11756TIP3   OH235224   2.924   1.543   5.466
11756TIP3    H135225   2.950   1.463   5.512
11756TIP3    H235226   2.956   1.614   5.520
11757TIP3   OH235227   4.439   6.852   3.282
11757TIP3    H135228   4.441   6.837   3.188
11757TIP3    H235229   4.511   6.799   3.317
11758TIP3   OH235230   7.164   7.099   3.838
11758TIP3    H135231   7.195   7.026   3.892
11758TIP3    H235232   7.079   7.122   3.876
11759TIP3   OH235233   7.987   5.695   2.157
11759TIP3    H135234   7.951   5.743   2.232
11759TIP3    H235235   7.987   5.758   2.086
11760TIP3   OH235236   0.479   1.045   5.183
11760TIP3    H135237   0.471   1.116   5.119
11760TIP3    H235238   0.498   0.967   5.129
11761TIP3   OH235239   2.300   0.689   2.119
11761TIP3    H135240   2.346   0.762   2.161
11761TIP3    H235241   2.209   0.698   2.150
11762TIP3   OH235242   3.333   7.594   5.102
11762TIP3    H135243   3.243   7.589   5.070
11762TIP3    H235244   3.365   7.504   5.099
11763TIP3   OH235245   2.769   3.564   2.706
11763TIP3    H135246   2.697   3.624   2.726
11763TIP3    H235247   2.756   3.539   2.615
11764TIP3   OH235248   5.721   0.600   1.517
11764TIP3    H135249   5.666   0.549   1.457
11764TIP3    H235250   5.784   0.645   1.460
11765TIP3   OH235251   7.726   4.982   5.374
11765TIP3    H135252   7.786   5.042   5.330
11765TIP3    H235253   7.639   5.019   5.359
11766TIP3   OH235254   5.353   1.804   1.646
11766TIP3    H135255   5.264   1.795   1.679
11766TIP3    H235256   5.405   1.747   1.702
11767TIP3   OH235257   0.990   5.738   2.586
11767TIP3    H135258   0.930   5.813   2.576
11767TIP3    H235259   1.015   5.740   2.679
11768TIP3   OH235260   7.286   5.207   0.656
11768TIP3    H135261   7.319   5.276   0.598
11768TIP3    H235262   7.334   5.220   0.738
11769TIP3   OH235263   2.740   2.094   4.121
11769TIP3    H135264   2.781   2.163   4.173
11769TIP3    H235265   2.742   2.126   4.032
11770TIP3   OH235266   5.791   4.153   5.206
11770TIP3    H135267   5.816   4.075   5.257
11770TIP3    H235268   5.767   4.218   5.273
11771TIP3   OH235269   1.707   4.605   4.998
11771TIP3    H135270   1.772   4.673   5.012
11771TIP3    H235271   1.629   4.652   4.968
11772TIP3   OH235272   1.906   7.644   0.944
11772TIP3    H135273   1.848   7.595   0.886
11772TIP3    H235274   1.886   7.612   1.032
11773TIP3   OH235275   2.569  -0.014   0.773
11773TIP3    H135276   2.650   0.023   0.738
11773TIP3    H235277   2.573   0.005   0.867
11774TIP3   OH235278   5.801   0.227   2.339
11774TIP3    H135279   5.735   0.295   2.345
11774TIP3    H235280   5.864   0.260   2.274
11775TIP3   OH235281   7.349   6.710   5.935
11775TIP3    H135282   7.398   6.683   5.857
11775TIP3    H235283   7.298   6.633   5.959
11776TIP3   OH235284   1.955   7.569   5.377
11776TIP3    H135285   1.895   7.541   5.447
11776TIP3    H235286   1.990   7.487   5.342
11777TIP3   OH235287   7.972   2.857   6.176
11777TIP3    H135288   8.009   2.769   6.180
11777TIP3    H235289   7.975   2.889   6.266
11778TIP3   OH235290   3.851   1.572   4.445
11778TIP3    H135291   3.892   1.547   4.528
11778TIP3    H235292   3.901   1.648   4.415
11779TIP3   OH235293   1.640   7.025   3.855
11779TIP3    H135294   1.628   7.022   3.950
11779TIP3    H235295   1.557   6.992   3.820
11780TIP3   OH235296   4.859   5.322   5.981
11780TIP3    H135297   4.875   5.252   6.045
11780TIP3    H235298   4.925   5.388   6.001
11781TIP3   OH235299   0.046   4.640   2.001
11781TIP3    H135300  -0.016   4.704   2.036
11781TIP3    H235301   0.132   4.673   2.026
11782TIP3   OH235302   7.768   2.985   0.617
11782TIP3    H135303   7.706   2.913   0.633
11782TIP3    H235304   7.753   3.046   0.688
11783TIP3   OH235305   7.866   5.845   2.712
11783TIP3    H135306   7.955   5.864   2.740
11783TIP3    H235307   7.836   5.775   2.770
11784TIP3   OH235308   1.914   7.074   2.070
11784TIP3    H135309   1.896   7.019   2.146
11784TIP3    H235310   1.833   7.123   2.055
11785TIP3   OH235311   0.084   6.097   5.213
11785TIP3    H135312   0.096   6.116   5.306
11785TIP3    H235313   0.044   6.177   5.177
11786TIP3   OH235314   1.532   5.273   1.025
11786TIP3    H135315   1.599   5.284   0.957
11786TIP3    H235316   1.582   5.268   1.107
11787TIP3   OH235317   4.163   5.442   2.983
11787TIP3    H135318   4.173   5.470   3.074
11787TIP3    H235319   4.160   5.524   2.934
11788TIP3   OH235320   6.550   5.399   5.249
11788TIP3    H135321   6.479   5.335   5.238
11788TIP3    H235322   6.534   5.438   5.334
11789TIP3   OH235323   5.630   6.073   6.380
11789TIP3    H135324   5.700   6.103   6.322
11789TIP3    H235325   5.671   6.005   6.434
11790TIP3   OH235326   5.694   4.908   2.096
11790TIP3    H135327   5.630   4.879   2.031
11790TIP3    H235328   5.641   4.939   2.169
11791TIP3   OH235329   5.720   2.851   2.208
11791TIP3    H135330   5.645   2.892   2.167
11791TIP3    H235331   5.796   2.885   2.161
11792TIP3   OH235332   3.267   2.905   1.751
11792TIP3    H135333   3.248   2.814   1.730
11792TIP3    H235334   3.198   2.955   1.707
11793TIP3   OH235335   1.114   4.452   6.252
11793TIP3    H135336   1.115   4.516   6.324
11793TIP3    H235337   1.200   4.463   6.210
11794TIP3   OH235338   0.882   7.592   0.698
11794TIP3    H135339   0.954   7.653   0.683
11794TIP3    H235340   0.881   7.578   0.792
11795TIP3   OH235341   3.236   7.562   0.237
11795TIP3    H135342   3.303   7.601   0.294
11795TIP3    H235343   3.175   7.519   0.297
11796TIP3   OH235344   4.669   4.862   0.560
11796TIP3    H135345   4.614   4.939   0.572
11796TIP3    H235346   4.747   4.880   0.613
11797TIP3   OH235347   1.671   6.232   5.878
11797TIP3    H135348   1.714   6.258   5.959
11797TIP3    H235349   1.673   6.137   5.879
11798TIP3   OH235350   2.115   0.460   5.965
11798TIP3    H135351   2.045   0.447   6.030
11798TIP3    H235352   2.093   0.542   5.921
11799TIP3   OH235353   3.915   7.163   1.856
11799TIP3    H135354   3.992   7.116   1.824
11799TIP3    H235355   3.943   7.203   1.938
11800TIP3   OH235356   0.045   6.452   4.032
11800TIP3    H135357   0.052   6.380   4.094
11800TIP3    H235358  -0.019   6.512   4.071
11801TIP3   OH235359   7.279   1.918   1.279
11801TIP3    H135360   7.259   1.838   1.230
11801TIP3    H235361   7.349   1.960   1.229
11802TIP3   OH235362   2.705   0.379   3.153
11802TIP3    H135363   2.722   0.342   3.239
11802TIP3    H235364   2.626   0.333   3.123
11803TIP3   OH235365   4.233   2.411   4.273
11803TIP3    H135366   4.221   2.505   4.261
11803TIP3    H235367   4.276   2.403   4.358
11804TIP3   OH235368   1.105   6.626   2.850
11804TIP3    H135369   1.031   6.656   2.903
11804TIP3    H235370   1.078   6.540   2.818
11805TIP3   OH235371   5.777   2.712   1.313
11805TIP3    H135372   5.843   2.646   1.334
11805TIP3    H235373   5.814   2.794   1.345
11806TIP3   OH235374   8.009   1.341   1.742
11806TIP3    H135375   8.074   1.376   1.803
11806TIP3    H235376   7.949   1.414   1.728
11807TIP3   OH235377   2.571   6.205   5.525
11807TIP3    H135378   2.490   6.251   5.548
11807TIP3    H235379   2.639   6.249   5.576
11808TIP3   OH235380   0.635   1.796   6.015
11808TIP3    H135381   0.542   1.813   6.027
11808TIP3    H235382   0.650   1.710   6.056
11809TIP3   OH235383   2.771   1.002   0.608
11809TIP3    H135384   2.707   1.029   0.675
11809TIP3    H235385   2.747   0.912   0.588
11810TIP3   OH235386   6.554   3.401   2.911
11810TIP3    H135387   6.532   3.326   2.967
11810TIP3    H235388   6.635   3.375   2.867
11811TIP3   OH235389   0.669   0.397   2.553
11811TIP3    H135390   0.673   0.428   2.463
11811TIP3    H235391   0.727   0.321   2.555
11812TIP3   OH235392   2.814   5.784   2.992
11812TIP3    H135393   2.837   5.771   3.084
11812TIP3    H235394   2.840   5.875   2.974
11813TIP3   OH235395   5.241   7.007   3.562
11813TIP3    H135396   5.215   7.033   3.474
11813TIP3    H235397   5.311   7.068   3.585
11814TIP3   OH235398   0.818   5.041   5.217
11814TIP3    H135399   0.878   5.055   5.144
11814TIP3    H235400   0.742   5.096   5.198
11815TIP3   OH235401   5.352   2.453   1.531
11815TIP3    H135402   5.275   2.421   1.484
11815TIP3    H235403   5.366   2.541   1.497
11816TIP3   OH235404   5.014   1.413   0.600
11816TIP3    H135405   5.064   1.362   0.536
11816TIP3    H235406   5.050   1.387   0.685
11817TIP3   OH235407   5.582   5.922   5.694
11817TIP3    H135408   5.647   5.908   5.625
11817TIP3    H235409   5.503   5.949   5.646
11818TIP3   OH235410   5.717   7.472   4.942
11818TIP3    H135411   5.646   7.507   4.996
11818TIP3    H235412   5.718   7.378   4.961
11819TIP3   OH235413   1.023   0.264   3.239
11819TIP3    H135414   0.939   0.306   3.226
11819TIP3    H235415   1.083   0.311   3.180
11820TIP3   OH235416   2.822   2.137   3.851
11820TIP3    H135417   2.845   2.208   3.792
11820TIP3    H235418   2.806   2.062   3.793
11821TIP3   OH235419   2.957   5.634   2.195
11821TIP3    H135420   2.869   5.671   2.187
11821TIP3    H235421   2.945   5.558   2.251
11822TIP3   OH235422  -0.034   0.163   1.948
11822TIP3    H135423   0.047   0.199   1.912
11822TIP3    H235424  -0.100   0.231   1.933
11823TIP3   OH235425   0.382   1.202   3.366
11823TIP3    H135426   0.431   1.279   3.338
11823TIP3    H235427   0.342   1.229   3.449
11824TIP3   OH235428   4.784   5.159   5.189
11824TIP3    H135429   4.736   5.202   5.260
11824TIP3    H235430   4.715   5.129   5.129
11825TIP3   OH235431   7.815   6.056   5.163
11825TIP3    H135432   7.816   6.095   5.076
11825TIP3    H235433   7.907   6.054   5.189
11826TIP3   OH235434   1.367   3.567   2.714
11826TIP3    H135435   1.342   3.484   2.753
11826TIP3    H235436   1.299   3.628   2.742
11827TIP3   OH235437   2.210   6.052   3.232
11827TIP3    H135438   2.221   6.144   3.209
11827TIP3    H235439   2.144   6.051   3.301
11828TIP3   OH235440   1.213   3.327   6.315
11828TIP3    H135441   1.212   3.272   6.236
11828TIP3    H235442   1.133   3.379   6.309
11829TIP3   OH235443   3.811   2.840   6.596
11829TIP3    H135444   3.722   2.865   6.569
11829TIP3    H235445   3.854   2.923   6.618
11830TIP3   OH235446   2.174   3.636   5.296
11830TIP3    H135447   2.258   3.681   5.287
11830TIP3    H235448   2.190   3.568   5.361
11831TIP3   OH235449   3.610   6.919   0.724
11831TIP3    H135450   3.703   6.935   0.711
11831TIP3    H235451   3.591   6.951   0.812
11832TIP3   OH235452   6.688   4.725   3.157
11832TIP3    H135453   6.663   4.805   3.111
11832TIP3    H235454   6.724   4.669   3.088
11833TIP3   OH235455   2.402   4.237   5.354
11833TIP3    H135456   2.451   4.169   5.400
11833TIP3    H235457   2.333   4.190   5.307
11834TIP3   OH235458   1.836   0.087   6.144
11834TIP3    H135459   1.874  -0.001   6.140
11834TIP3    H235460   1.911   0.145   6.159
11835TIP3   OH235461   7.037   2.840   5.260
11835TIP3    H135462   7.092   2.918   5.260
11835TIP3    H235463   6.971   2.856   5.193
11836TIP3   OH235464   7.437   7.204   6.126
11836TIP3    H135465   7.433   7.274   6.191
11836TIP3    H235466   7.384   7.236   6.053
11837TIP3   OH235467   1.417   5.905   5.977
11837TIP3    H135468   1.353   5.974   5.963
11837TIP3    H235469   1.485   5.922   5.911
11838TIP3   OH235470   0.757   4.042   0.570
11838TIP3    H135471   0.737   4.049   0.477
11838TIP3    H235472   0.711   3.963   0.599
11839TIP3   OH235473   7.705   2.884   3.133
11839TIP3    H135474   7.787   2.930   3.113
11839TIP3    H235475   7.677   2.848   3.049
11840TIP3   OH235476   5.249   0.812   0.937
11840TIP3    H135477   5.265   0.869   0.862
11840TIP3    H235478   5.254   0.870   1.013
11841TIP3   OH235479   3.319   6.823   4.139
11841TIP3    H135480   3.368   6.784   4.212
11841TIP3    H235481   3.249   6.761   4.121
11842TIP3   OH235482   3.969   6.780   5.694
11842TIP3    H135483   3.903   6.772   5.763
11842TIP3    H235484   3.941   6.719   5.626
11843TIP3   OH235485   8.045   2.725   0.201
11843TIP3    H135486   8.091   2.804   0.174
11843TIP3    H235487   7.963   2.756   0.240
11844TIP3   OH235488   3.440   4.672   0.707
11844TIP3    H135489   3.484   4.594   0.674
11844TIP3    H235490   3.423   4.725   0.629
11845TIP3   OH235491   1.502   6.359   5.095
11845TIP3    H135492   1.499   6.440   5.044
11845TIP3    H235493   1.545   6.296   5.037
11846TIP3   OH235494   2.035   7.000   1.377
11846TIP3    H135495   1.971   6.955   1.432
11846TIP3    H235496   2.027   6.959   1.291
11847TIP3   OH235497   6.076   5.247   2.537
11847TIP3    H135498   6.060   5.318   2.599
11847TIP3    H235499   5.994   5.197   2.537
11848TIP3   OH235500   0.452   0.623   0.212
11848TIP3    H135501   0.455   0.574   0.294
11848TIP3    H235502   0.534   0.673   0.210
11849TIP3   OH235503   1.931   4.435   5.004
11849TIP3    H135504   1.966   4.424   4.915
11849TIP3    H235505   1.866   4.504   4.995
11850TIP3   OH235506   2.147   7.182   3.829
11850TIP3    H135507   2.230   7.213   3.793
11850TIP3    H235508   2.170   7.104   3.879
11851TIP3   OH235509   4.397   2.415   0.759
11851TIP3    H135510   4.390   2.408   0.664
11851TIP3    H235511   4.458   2.345   0.784
11852TIP3   OH235512   1.651   0.199   2.436
11852TIP3    H135513   1.586   0.256   2.476
11852TIP3    H235514   1.691   0.253   2.367
11853TIP3   OH235515   1.278   4.032   1.276
11853TIP3    H135516   1.252   4.092   1.206
11853TIP3    H235517   1.200   3.980   1.294
11854TIP3   OH235518   6.832   3.532   4.937
11854TIP3    H135519   6.884   3.561   5.011
11854TIP3    H235520   6.799   3.612   4.897
11855TIP3   OH235521   7.634   5.410   1.694
11855TIP3    H135522   7.627   5.330   1.642
11855TIP3    H235523   7.606   5.384   1.782
11856TIP3   OH235524   0.500   3.029   3.924
11856TIP3    H135525   0.533   3.105   3.876
11856TIP3    H235526   0.522   2.954   3.868
11857TIP3   OH235527   7.931   7.474   2.106
11857TIP3    H135528   8.004   7.450   2.049
11857TIP3    H235529   7.853   7.451   2.055
11858TIP3   OH235530   4.674   3.922   2.604
11858TIP3    H135531   4.648   3.845   2.655
11858TIP3    H235532   4.764   3.904   2.576
11859TIP3   OH235533   4.840   0.830   0.236
11859TIP3    H135534   4.824   0.915   0.195
11859TIP3    H235535   4.769   0.822   0.300
11860TIP3   OH235536   2.831   1.008   1.660
11860TIP3    H135537   2.781   1.023   1.580
11860TIP3    H235538   2.920   0.987   1.630
11861TIP3   OH235539   6.205   3.728   3.369
11861TIP3    H135540   6.120   3.751   3.331
11861TIP3    H235541   6.256   3.697   3.294
11862TIP3   OH235542   3.879   2.803   4.592
11862TIP3    H135543   3.927   2.760   4.521
11862TIP3    H235544   3.942   2.810   4.663
11863TIP3   OH235545   0.690   3.304   3.181
11863TIP3    H135546   0.713   3.278   3.091
11863TIP3    H235547   0.756   3.261   3.236
11864TIP3   OH235548   0.800   7.575   0.953
11864TIP3    H135549   0.772   7.654   0.999
11864TIP3    H235550   0.826   7.514   1.022
11865TIP3   OH235551   4.784   6.455   0.982
11865TIP3    H135552   4.767   6.376   1.032
11865TIP3    H235553   4.767   6.430   0.891
11866TIP3   OH235554   6.462   5.650   2.563
11866TIP3    H135555   6.501   5.572   2.524
11866TIP3    H235556   6.371   5.625   2.580
11867TIP3   OH235557   3.201   7.587   3.823
11867TIP3    H135558   3.129   7.613   3.880
11867TIP3    H235559   3.207   7.658   3.758
11868TIP3   OH235560   1.920   0.674   6.364
11868TIP3    H135561   1.998   0.633   6.401
11868TIP3    H235562   1.857   0.603   6.354
11869TIP3   OH235563   6.914   4.628   6.642
11869TIP3    H135564   6.836   4.681   6.623
11869TIP3    H235565   6.927   4.637   6.736
11870TIP3   OH235566   3.351   3.059   6.341
11870TIP3    H135567   3.381   2.973   6.312
11870TIP3    H235568   3.376   3.119   6.271
11871TIP3   OH235569   8.257   1.571   3.422
11871TIP3    H135570   8.288   1.551   3.333
11871TIP3    H235571   8.322   1.532   3.480
11872TIP3   OH235572   0.349   7.287   0.245
11872TIP3    H135573   0.294   7.209   0.254
11872TIP3    H235574   0.300   7.344   0.185
11873TIP3   OH235575   4.757   7.584   1.910
11873TIP3    H135576   4.700   7.660   1.915
11873TIP3    H235577   4.709   7.522   1.855
11874TIP3   OH235578   3.687   7.656   1.809
11874TIP3    H135579   3.700   7.571   1.852
11874TIP3    H235580   3.745   7.716   1.855
11875TIP3   OH235581   3.044   6.655   1.216
11875TIP3    H135582   2.989   6.730   1.237
11875TIP3    H235583   3.116   6.691   1.164
11876TIP3   OH235584   1.141   0.066   4.721
11876TIP3    H135585   1.223   0.058   4.771
11876TIP3    H235586   1.074   0.082   4.787
11877TIP3   OH235587   3.598   0.323   0.336
11877TIP3    H135588   3.683   0.363   0.358
11877TIP3    H235589   3.606   0.232   0.364
11878TIP3   OH235590   1.560   1.892   2.793
11878TIP3    H135591   1.504   1.965   2.818
11878TIP3    H235592   1.537   1.822   2.854
11879TIP3   OH235593   6.895   1.353   6.552
11879TIP3    H135594   6.983   1.379   6.581
11879TIP3    H235595   6.864   1.295   6.622
11880TIP3   OH235596   5.268   7.027   5.538
11880TIP3    H135597   5.226   7.074   5.466
11880TIP3    H235598   5.208   6.956   5.558
11881TIP3   OH235599   3.966   6.766   0.473
11881TIP3    H135600   4.030   6.716   0.423
11881TIP3    H235601   3.950   6.844   0.420
11882TIP3   OH235602   2.971   6.100   3.990
11882TIP3    H135603   3.040   6.035   3.975
11882TIP3    H235604   2.976   6.158   3.915
11883TIP3   OH235605   6.737   6.529   4.404
11883TIP3    H135606   6.743   6.605   4.462
11883TIP3    H235607   6.690   6.463   4.456
11884TIP3   OH235608   2.101   3.450   1.837
11884TIP3    H135609   2.114   3.441   1.931
11884TIP3    H235610   2.012   3.483   1.827
11885TIP3   OH235611   4.520   3.225   5.748
11885TIP3    H135612   4.529   3.310   5.705
11885TIP3    H235613   4.523   3.246   5.842
11886TIP3   OH235614   1.024   0.284   3.830
11886TIP3    H135615   1.049   0.284   3.738
11886TIP3    H235616   0.943   0.233   3.833
11887TIP3   OH235617   4.816   1.625   5.771
11887TIP3    H135618   4.838   1.662   5.686
11887TIP3    H235619   4.868   1.545   5.777
11888TIP3   OH235620   2.867   7.854   5.442
11888TIP3    H135621   2.779   7.881   5.417
11888TIP3    H235622   2.867   7.758   5.431
11889TIP3   OH235623   7.329   3.174   3.431
11889TIP3    H135624   7.337   3.134   3.518
11889TIP3    H235625   7.407   3.229   3.423
11890TIP3   OH235626   8.271   3.651   6.605
11890TIP3    H135627   8.258   3.637   6.699
11890TIP3    H235628   8.182   3.663   6.571
11891TIP3   OH235629   1.218   4.092   3.839
11891TIP3    H135630   1.295   4.036   3.850
11891TIP3    H235631   1.151   4.052   3.894
11892TIP3   OH235632   0.433   3.357   3.254
11892TIP3    H135633   0.396   3.413   3.186
11892TIP3    H235634   0.528   3.360   3.239
11893TIP3   OH235635   2.221   1.996   5.882
11893TIP3    H135636   2.252   2.039   5.962
11893TIP3    H235637   2.260   1.909   5.886
11894TIP3   OH235638   8.215   2.065   5.407
11894TIP3    H135639   8.170   1.985   5.434
11894TIP3    H235640   8.159   2.136   5.437
11895TIP3   OH235641   3.328   0.369   1.352
11895TIP3    H135642   3.349   0.350   1.444
11895TIP3    H235643   3.298   0.286   1.316
11896TIP3   OH235644   2.629   2.523   3.734
11896TIP3    H135645   2.700   2.537   3.671
11896TIP3    H235646   2.609   2.430   3.728
11897TIP3   OH235647   1.936   1.400   2.690
11897TIP3    H135648   1.954   1.493   2.677
11897TIP3    H235649   1.873   1.397   2.762
11898TIP3   OH235650   2.956   1.429   6.290
11898TIP3    H135651   3.032   1.372   6.298
11898TIP3    H235652   2.931   1.448   6.381
11899TIP3   OH235653   0.411   6.351   1.061
11899TIP3    H135654   0.383   6.440   1.039
11899TIP3    H235655   0.504   6.360   1.083
11900TIP3   OH235656   7.748   7.755   4.772
11900TIP3    H135657   7.828   7.749   4.720
11900TIP3    H235658   7.706   7.835   4.741
11901TIP3   OH235659   4.242   4.234   4.861
11901TIP3    H135660   4.177   4.209   4.795
11901TIP3    H235661   4.259   4.326   4.843
11902TIP3   OH235662   0.512   5.567   3.578
11902TIP3    H135663   0.439   5.626   3.555
11902TIP3    H235664   0.544   5.536   3.494
11903TIP3   OH235665   6.599   4.052   1.612
11903TIP3    H135666   6.694   4.060   1.624
11903TIP3    H235667   6.590   3.995   1.536
11904TIP3   OH235668   0.202   2.698   2.583
11904TIP3    H135669   0.157   2.690   2.667
11904TIP3    H235670   0.270   2.763   2.598
11905TIP3   OH235671   6.842   7.654   1.122
11905TIP3    H135672   6.850   7.596   1.198
11905TIP3    H235673   6.867   7.599   1.048
11906TIP3   OH235674   7.349   1.113   0.684
11906TIP3    H135675   7.306   1.197   0.698
11906TIP3    H235676   7.348   1.071   0.770
11907TIP3   OH235677   8.329   7.159   5.781
11907TIP3    H135678   8.344   7.226   5.847
11907TIP3    H235679   8.260   7.104   5.817
11908TIP3   OH235680   6.861   1.802   3.790
11908TIP3    H135681   6.953   1.827   3.791
11908TIP3    H235682   6.851   1.746   3.868
11909TIP3   OH235683   5.971   3.218   3.061
11909TIP3    H135684   6.026   3.286   3.101
11909TIP3    H235685   6.012   3.201   2.977
11910TIP3   OH235686   5.343   7.744   2.386
11910TIP3    H135687   5.398   7.813   2.350
11910TIP3    H235688   5.285   7.718   2.314
11911TIP3   OH235689   6.709   0.991   5.039
11911TIP3    H135690   6.629   0.951   5.072
11911TIP3    H235691   6.772   0.920   5.034
11912TIP3   OH235692   3.111   6.914   3.534
11912TIP3    H135693   3.191   6.937   3.488
11912TIP3    H235694   3.139   6.851   3.601
11913TIP3   OH235695   6.701   3.195   4.858
11913TIP3    H135696   6.651   3.116   4.836
11913TIP3    H235697   6.640   3.267   4.846
11914TIP3   OH235698   4.601   7.816   1.902
11914TIP3    H135699   4.576   7.907   1.916
11914TIP3    H235700   4.532   7.781   1.844
11915TIP3   OH235701   7.450   7.488   0.389
11915TIP3    H135702   7.443   7.439   0.471
11915TIP3    H235703   7.513   7.438   0.337
11916TIP3   OH235704   0.306   4.639   6.435
11916TIP3    H135705   0.359   4.675   6.365
11916TIP3    H235706   0.284   4.551   6.406
11917TIP3   OH235707   5.495   0.597   0.359
11917TIP3    H135708   5.559   0.543   0.313
11917TIP3    H235709   5.534   0.684   0.360
11918TIP3   OH235710   3.916   0.911   6.516
11918TIP3    H135711   3.876   0.995   6.494
11918TIP3    H235712   3.965   0.887   6.437
11919TIP3   OH235713   3.916   7.624   2.008
11919TIP3    H135714   3.889   7.536   1.985
11919TIP3    H235715   4.012   7.622   2.004
11920TIP3   OH235716   7.148   1.425   6.604
11920TIP3    H135717   7.202   1.373   6.544
11920TIP3    H235718   7.179   1.514   6.592
11921TIP3   OH235719   1.941   6.899   1.142
11921TIP3    H135720   1.886   6.957   1.088
11921TIP3    H235721   1.959   6.824   1.085
11922TIP3   OH235722   4.474   2.940   0.826
11922TIP3    H135723   4.467   3.017   0.883
11922TIP3    H235724   4.514   2.873   0.882
11923TIP3   OH235725   0.991   0.907   1.265
11923TIP3    H135726   0.948   0.894   1.350
11923TIP3    H235727   0.921   0.897   1.201
11924TIP3   OH235728   1.870   4.327   2.024
11924TIP3    H135729   1.808   4.375   1.969
11924TIP3    H235730   1.898   4.391   2.090
11925TIP3   OH235731   8.056   0.824   2.693
11925TIP3    H135732   8.093   0.756   2.750
11925TIP3    H235733   7.977   0.854   2.740
11926TIP3   OH235734   6.545   2.246   1.300
11926TIP3    H135735   6.550   2.268   1.207
11926TIP3    H235736   6.549   2.330   1.345
11927TIP3   OH235737   8.209   1.988   4.377
11927TIP3    H135738   8.237   1.912   4.428
11927TIP3    H235739   8.251   2.062   4.420
11928TIP3   OH235740   5.020   7.373   4.399
11928TIP3    H135741   5.008   7.327   4.482
11928TIP3    H235742   5.006   7.306   4.332
11929TIP3   OH235743   3.258  -0.019   1.491
11929TIP3    H135744   3.205   0.059   1.471
11929TIP3    H235745   3.200  -0.093   1.472
11930TIP3   OH235746   6.412   0.366   5.572
11930TIP3    H135747   6.349   0.328   5.632
11930TIP3    H235748   6.436   0.450   5.611
11931TIP3   OH235749   3.452   3.494   0.553
11931TIP3    H135750   3.477   3.573   0.505
11931TIP3    H235751   3.503   3.424   0.512
11932TIP3   OH235752   3.994   0.027   0.354
11932TIP3    H135753   4.049  -0.013   0.287
11932TIP3    H235754   4.055   0.082   0.404
11933TIP3   OH235755   0.247   4.369   0.008
11933TIP3    H135756   0.203   4.295   0.050
11933TIP3    H235757   0.190   4.444   0.026
11934TIP3   OH235758   7.719   7.303   4.311
11934TIP3    H135759   7.790   7.318   4.249
11934TIP3    H235760   7.706   7.388   4.354
11935TIP3   OH235761   0.758   0.801   4.040
11935TIP3    H135762   0.798   0.852   4.111
11935TIP3    H235763   0.803   0.716   4.043
11936TIP3   OH235764   6.243   1.224   4.468
11936TIP3    H135765   6.179   1.202   4.536
11936TIP3    H235766   6.326   1.228   4.515
11937TIP3   OH235767   7.940   1.631   6.253
11937TIP3    H135768   7.954   1.543   6.289
11937TIP3    H235769   7.994   1.633   6.173
11938TIP3   OH235770   7.522   1.864   3.566
11938TIP3    H135771   7.495   1.871   3.658
11938TIP3    H235772   7.534   1.770   3.552
11939TIP3   OH235773   7.179   3.543   2.129
11939TIP3    H135774   7.229   3.613   2.087
11939TIP3    H235775   7.088   3.572   2.123
11940TIP3   OH235776   1.068   2.165   1.584
11940TIP3    H135777   1.162   2.173   1.598
11940TIP3    H235778   1.035   2.254   1.593
11941TIP3   OH235779   2.171   3.381   1.584
11941TIP3    H135780   2.159   3.470   1.551
11941TIP3    H235781   2.145   3.385   1.676
11942TIP3   OH235782   7.916   1.065   5.047
11942TIP3    H135783   7.924   1.045   4.954
11942TIP3    H235784   8.006   1.058   5.080
11943TIP3   OH235785   1.913   6.136   5.545
11943TIP3    H135786   1.936   6.052   5.505
11943TIP3    H235787   1.969   6.141   5.623
11944TIP3   OH235788   1.578   3.244   3.829
11944TIP3    H135789   1.498   3.256   3.881
11944TIP3    H235790   1.548   3.234   3.739
11945TIP3   OH235791   5.943   2.927   1.070
11945TIP3    H135792   6.014   2.971   1.025
11945TIP3    H235793   5.982   2.846   1.103
11946TIP3   OH235794   2.332   2.447   5.619
11946TIP3    H135795   2.266   2.517   5.619
11946TIP3    H235796   2.282   2.368   5.638
11947TIP3   OH235797   4.482   0.715   2.166
11947TIP3    H135798   4.558   0.739   2.220
11947TIP3    H235799   4.420   0.785   2.180
11948TIP3   OH235800   1.506   1.590   6.541
11948TIP3    H135801   1.436   1.538   6.502
11948TIP3    H235802   1.576   1.528   6.558
11949TIP3   OH235803   7.761   3.757   3.037
11949TIP3    H135804   7.752   3.812   3.114
11949TIP3    H235805   7.848   3.719   3.044
11950TIP3   OH235806   7.900   3.458   2.517
11950TIP3    H135807   7.874   3.529   2.458
11950TIP3    H235808   7.875   3.378   2.470
11951TIP3   OH235809   6.295   7.388   2.527
11951TIP3    H135810   6.207   7.426   2.524
11951TIP3    H235811   6.333   7.420   2.608
11952TIP3   OH235812   3.470   3.879   5.347
11952TIP3    H135813   3.492   3.972   5.339
11952TIP3    H235814   3.553   3.836   5.365
11953TIP3   OH235815   5.968   6.174   0.821
11953TIP3    H135816   6.014   6.204   0.899
11953TIP3    H235817   5.909   6.246   0.799
11954TIP3   OH235818   1.519   5.025   3.508
11954TIP3    H135819   1.452   5.020   3.576
11954TIP3    H235820   1.592   5.070   3.549
11955TIP3   OH235821   6.357   0.692   5.364
11955TIP3    H135822   6.398   0.767   5.408
11955TIP3    H235823   6.421   0.664   5.298
11956TIP3   OH235824   7.129   5.625   2.722
11956TIP3    H135825   7.212   5.669   2.741
11956TIP3    H235826   7.154   5.537   2.694
11957TIP3   OH235827   6.576   2.515   1.497
11957TIP3    H135828   6.640   2.491   1.430
11957TIP3    H235829   6.571   2.439   1.554
11958TIP3   OH235830   6.067   7.637   0.866
11958TIP3    H135831   6.146   7.590   0.842
11958TIP3    H235832   6.006   7.619   0.795
11959TIP3   OH235833   7.676   5.924   1.176
11959TIP3    H135834   7.588   5.900   1.148
11959TIP3    H235835   7.705   5.987   1.110
11960TIP3   OH235836   1.756   0.645   0.194
11960TIP3    H135837   1.722   0.624   0.107
11960TIP3    H235838   1.771   0.560   0.235
11961TIP3   OH235839   3.858   2.366   5.714
11961TIP3    H135840   3.940   2.347   5.759
11961TIP3    H235841   3.830   2.450   5.749
11962TIP3   OH235842   0.300   2.598   2.247
11962TIP3    H135843   0.391   2.620   2.229
11962TIP3    H235844   0.249   2.659   2.193
11963TIP3   OH235845   5.497   7.071   2.099
11963TIP3    H135846   5.404   7.087   2.082
11963TIP3    H235847   5.507   7.082   2.193
11964TIP3   OH235848   6.678   5.342   1.401
11964TIP3    H135849   6.709   5.365   1.313
11964TIP3    H235850   6.708   5.252   1.413
11965TIP3   OH235851   7.670   4.349   6.261
11965TIP3    H135852   7.688   4.262   6.225
11965TIP3    H235853   7.738   4.405   6.224
11966TIP3   OH235854   5.736   1.104   1.547
11966TIP3    H135855   5.777   1.190   1.556
11966TIP3    H235856   5.650   1.115   1.587
11967TIP3   OH235857   7.963   3.285   4.576
11967TIP3    H135858   8.004   3.319   4.496
11967TIP3    H235859   7.908   3.213   4.547
11968TIP3   OH235860   6.892   7.225   3.966
11968TIP3    H135861   6.863   7.307   3.928
11968TIP3    H235862   6.833   7.210   4.040
11969TIP3   OH235863   5.146   7.626   4.516
11969TIP3    H135864   5.071   7.568   4.504
11969TIP3    H235865   5.214   7.588   4.461
11970TIP3   OH235866   5.405   5.159   1.694
11970TIP3    H135867   5.383   5.077   1.738
11970TIP3    H235868   5.337   5.220   1.723
11971TIP3   OH235869   2.703   4.884   4.709
11971TIP3    H135870   2.657   4.826   4.769
11971TIP3    H235871   2.784   4.837   4.688
11972TIP3   OH235872   4.220   2.277   3.333
11972TIP3    H135873   4.195   2.364   3.304
11972TIP3    H235874   4.151   2.219   3.301
11973TIP3   OH235875   0.483   7.408   5.109
11973TIP3    H135876   0.503   7.467   5.182
11973TIP3    H235877   0.510   7.322   5.139
11974TIP3   OH235878   5.403   3.318   4.536
11974TIP3    H135879   5.423   3.403   4.496
11974TIP3    H235880   5.421   3.255   4.467
11975TIP3   OH235881   1.263   1.084   2.100
11975TIP3    H135882   1.352   1.049   2.101
11975TIP3    H235883   1.251   1.124   2.186
11976TIP3   OH235884   6.679   3.375   6.035
11976TIP3    H135885   6.674   3.304   6.098
11976TIP3    H235886   6.589   3.386   6.003
11977TIP3   OH235887   2.864   5.752   4.678
11977TIP3    H135888   2.953   5.776   4.702
11977TIP3    H235889   2.822   5.727   4.760
11978TIP3   OH235890   4.993   4.095   6.089
11978TIP3    H135891   4.994   4.145   6.171
11978TIP3    H235892   4.999   4.003   6.117
11979TIP3   OH235893   3.987   6.415   0.875
11979TIP3    H135894   3.943   6.500   0.878
11979TIP3    H235895   4.077   6.433   0.904
11980TIP3   OH235896   6.959   6.447   4.173
11980TIP3    H135897   6.945   6.471   4.264
11980TIP3    H235898   6.874   6.415   4.143
11981TIP3   OH235899   6.753   6.084   5.166
11981TIP3    H135900   6.733   6.007   5.114
11981TIP3    H235901   6.845   6.073   5.191
11982TIP3   OH235902   0.066   3.563   6.065
11982TIP3    H135903   0.127   3.614   6.013
11982TIP3    H235904   0.054   3.481   6.017
11983TIP3   OH235905   4.691   2.916   3.236
11983TIP3    H135906   4.634   2.843   3.211
11983TIP3    H235907   4.649   2.993   3.197
11984TIP3   OH235908   6.504   0.893   4.474
11984TIP3    H135909   6.431   0.925   4.421
11984TIP3    H235910   6.470   0.894   4.564
11985TIP3   OH235911   7.184   2.395   0.282
11985TIP3    H135912   7.273   2.431   0.289
11985TIP3    H235913   7.147   2.439   0.205
11986TIP3   OH235914   3.198   4.320   3.837
11986TIP3    H135915   3.179   4.278   3.921
11986TIP3    H235916   3.135   4.391   3.830
11987TIP3   OH235917   6.389   0.465   0.079
11987TIP3    H135918   6.305   0.495   0.112
11987TIP3    H235919   6.400   0.378   0.118
11988TIP3   OH235920   6.756   0.760   6.306
11988TIP3    H135921   6.665   0.760   6.276
11988TIP3    H235922   6.752   0.797   6.394
11989TIP3   OH235923   0.189   5.572   3.728
11989TIP3    H135924   0.237   5.635   3.673
11989TIP3    H235925   0.121   5.538   3.670
11990TIP3   OH235926   6.397   6.330   4.300
11990TIP3    H135927   6.306   6.304   4.318
11990TIP3    H235928   6.391   6.423   4.277
11991TIP3   OH235929   3.089   4.041   6.156
11991TIP3    H135930   3.072   4.114   6.096
11991TIP3    H235931   3.131   3.975   6.101
11992TIP3   OH235932   4.119   6.391   3.160
11992TIP3    H135933   4.173   6.370   3.083
11992TIP3    H235934   4.162   6.467   3.198
11993TIP3   OH235935   1.095   6.896   6.046
11993TIP3    H135936   1.173   6.951   6.051
11993TIP3    H235937   1.038   6.928   6.116
11994TIP3   OH235938   6.708   5.119   4.856
11994TIP3    H135939   6.694   5.155   4.944
11994TIP3    H235940   6.692   5.025   4.867
11995TIP3   OH235941   2.105   4.016   5.084
11995TIP3    H135942   2.134   4.068   5.159
11995TIP3    H235943   2.028   4.063   5.051
11996TIP3   OH235944   5.579   5.645   3.301
11996TIP3    H135945   5.621   5.682   3.223
11996TIP3    H235946   5.513   5.584   3.266
11997TIP3   OH235947   6.422   6.136   1.167
11997TIP3    H135948   6.344   6.111   1.217
11997TIP3    H235949   6.395   6.130   1.076
11998TIP3   OH235950   6.946   2.047   5.960
11998TIP3    H135951   6.856   2.075   5.979
11998TIP3    H235952   6.983   2.118   5.910
11999TIP3   OH235953   6.311   1.361   2.446
11999TIP3    H135954   6.341   1.422   2.514
11999TIP3    H235955   6.217   1.353   2.460
12000TIP3   OH235956   3.148   3.466   6.520
12000TIP3    H135957   3.232   3.437   6.486
12000TIP3    H235958   3.089   3.464   6.445
12001TIP3   OH235959   4.056   6.027   0.914
12001TIP3    H135960   4.069   5.939   0.879
12001TIP3    H235961   4.044   6.081   0.836
12002TIP3   OH235962   3.182   2.894   0.351
12002TIP3    H135963   3.218   2.809   0.378
12002TIP3    H235964   3.106   2.871   0.297
12003TIP3   OH235965   8.202   3.595   4.978
12003TIP3    H135966   8.202   3.691   4.979
12003TIP3    H235967   8.131   3.571   5.038
12004TIP3   OH235968   2.412   4.209   4.199
12004TIP3    H135969   2.362   4.241   4.123
12004TIP3    H235970   2.499   4.188   4.163
12005TIP3   OH235971   0.337   2.733   2.897
12005TIP3    H135972   0.249   2.703   2.875
12005TIP3    H235973   0.393   2.658   2.877
12006TIP3   OH235974   2.804   1.053   3.052
12006TIP3    H135975   2.730   1.047   2.992
12006TIP3    H235976   2.818   0.963   3.082
12007TIP3   OH235977   5.858   1.327   4.289
12007TIP3    H135978   5.787   1.379   4.326
12007TIP3    H235979   5.847   1.334   4.194
12008TIP3   OH235980   7.610   4.756   5.763
12008TIP3    H135981   7.625   4.813   5.838
12008TIP3    H235982   7.599   4.816   5.689
12009TIP3   OH235983   4.291   6.288   2.038
12009TIP3    H135984   4.328   6.261   2.122
12009TIP3    H235985   4.197   6.288   2.052
12010TIP3   OH235986   4.531   0.613   5.324
12010TIP3    H135987   4.571   0.529   5.348
12010TIP3    H235988   4.564   0.631   5.236
12011TIP3   OH235989   6.040   0.783   6.430
12011TIP3    H135990   6.088   0.700   6.429
12011TIP3    H235991   6.025   0.803   6.337
12012TIP3   OH235992   8.139   2.139   0.702
12012TIP3    H135993   8.219   2.102   0.738
12012TIP3    H235994   8.096   2.180   0.777
12013TIP3   OH235995   3.543   4.894   2.168
12013TIP3    H135996   3.531   4.820   2.227
12013TIP3    H235997   3.590   4.857   2.093
12014TIP3   OH235998   0.185   0.556   0.053
12014TIP3    H135999   0.235   0.476   0.069
12014TIP3    H236000   0.251   0.624   0.040
12015TIP3   OH236001   0.167   0.121   1.605
12015TIP3    H136002   0.187   0.178   1.531
12015TIP3    H236003   0.247   0.120   1.657
12016TIP3   OH236004   4.948   7.390   3.480
12016TIP3    H136005   4.937   7.482   3.456
12016TIP3    H236006   4.922   7.386   3.572
12017TIP3   OH236007   4.618   0.450   4.996
12017TIP3    H136008   4.532   0.472   4.961
12017TIP3    H236009   4.638   0.523   5.055
12018TIP3   OH236010   3.917   6.705   4.382
12018TIP3    H136011   3.928   6.744   4.469
12018TIP3    H236012   3.859   6.765   4.336
12019TIP3   OH236013   5.915   0.652   1.002
12019TIP3    H136014   5.952   0.684   0.919
12019TIP3    H236015   5.822   0.641   0.984
12020TIP3   OH236016   7.379   1.212   6.456
12020TIP3    H136017   7.452   1.188   6.513
12020TIP3    H236018   7.409   1.293   6.413
12021TIP3   OH236019   1.905   0.316   3.388
12021TIP3    H136020   1.906   0.402   3.430
12021TIP3    H236021   1.812   0.297   3.375
12022TIP3   OH236022   4.053   0.923   0.266
12022TIP3    H136023   4.034   0.933   0.359
12022TIP3    H236024   4.106   0.999   0.243
12023TIP3   OH236025   7.752   3.099   5.360
12023TIP3    H136026   7.748   3.093   5.456
12023TIP3    H236027   7.767   3.009   5.332
12024TIP3   OH236028   1.195   0.919   2.353
12024TIP3    H136029   1.165   0.932   2.443
12024TIP3    H236030   1.210   1.007   2.320
12025TIP3   OH236031   4.043   1.521   1.189
12025TIP3    H136032   4.040   1.498   1.096
12025TIP3    H236033   3.956   1.497   1.221
12026TIP3   OH236034   6.480   0.630   5.669
12026TIP3    H136035   6.409   0.693   5.680
12026TIP3    H236036   6.519   0.652   5.584
12027TIP3   OH236037   2.942   6.860   5.608
12027TIP3    H136038   2.894   6.782   5.581
12027TIP3    H236039   2.902   6.886   5.691
12028TIP3   OH236040   3.562   3.774   6.307
12028TIP3    H136041   3.509   3.770   6.228
12028TIP3    H236042   3.609   3.690   6.309
12029TIP3   OH236043   2.511   6.580   0.935
12029TIP3    H136044   2.589   6.626   0.967
12029TIP3    H236045   2.438   6.634   0.962
12030TIP3   OH236046   6.310   1.740   0.531
12030TIP3    H136047   6.296   1.789   0.612
12030TIP3    H236048   6.403   1.717   0.532
12031TIP3   OH236049   0.352   5.077   6.445
12031TIP3    H136050   0.290   5.045   6.379
12031TIP3    H236051   0.399   5.148   6.401
12032TIP3   OH236052   6.589   7.598   0.234
12032TIP3    H136053   6.613   7.541   0.161
12032TIP3    H236054   6.563   7.537   0.303
12033TIP3   OH236055   5.539   3.808   6.655
12033TIP3    H136056   5.567   3.892   6.692
12033TIP3    H236057   5.513   3.756   6.731
12034TIP3   OH236058   2.295   3.704   0.856
12034TIP3    H136059   2.254   3.789   0.842
12034TIP3    H236060   2.222   3.642   0.858
12035TIP3   OH236061   8.069   1.795   4.996
12035TIP3    H136062   8.111   1.807   4.911
12035TIP3    H236063   8.008   1.723   4.983
12036TIP3   OH236064   5.639   5.927   5.411
12036TIP3    H136065   5.653   6.021   5.422
12036TIP3    H236066   5.547   5.914   5.435
12037TIP3   OH236067   2.442   6.641   1.630
12037TIP3    H136068   2.530   6.675   1.617
12037TIP3    H236069   2.386   6.718   1.619
12038TIP3   OH236070   4.268   7.257   6.721
12038TIP3    H136071   4.334   7.246   6.653
12038TIP3    H236072   4.199   7.309   6.680
12039TIP3   OH236073   1.774   4.165   6.448
12039TIP3    H136074   1.739   4.230   6.387
12039TIP3    H236075   1.822   4.103   6.393
12040TIP3   OH236076   4.906   1.362   5.778
12040TIP3    H136077   5.001   1.372   5.778
12040TIP3    H236078   4.890   1.287   5.721
12041TIP3   OH236079   2.448   2.710   6.675
12041TIP3    H136080   2.357   2.691   6.650
12041TIP3    H236081   2.445   2.800   6.708
12042TIP3   OH236082   5.566   7.149   5.317
12042TIP3    H136083   5.622   7.163   5.394
12042TIP3    H236084   5.540   7.238   5.292
12043TIP3   OH236085   7.501   1.283   1.162
12043TIP3    H136086   7.494   1.303   1.068
12043TIP3    H236087   7.447   1.350   1.205
12044TIP3   OH236088   4.708   3.027   4.212
12044TIP3    H136089   4.787   3.078   4.193
12044TIP3    H236090   4.641   3.065   4.156
12045TIP3   OH236091   3.114   6.063   0.627
12045TIP3    H136092   3.172   6.137   0.644
12045TIP3    H236093   3.057   6.059   0.704
12046TIP3   OH236094   5.989   4.787   6.389
12046TIP3    H136095   6.070   4.831   6.414
12046TIP3    H236096   5.923   4.822   6.448
12047TIP3   OH236097   2.941   4.892   6.155
12047TIP3    H136098   2.961   4.819   6.214
12047TIP3    H236099   2.847   4.907   6.166
12048TIP3   OH236100   2.218   3.552   4.956
12048TIP3    H136101   2.220   3.636   5.001
12048TIP3    H236102   2.273   3.565   4.879
12049TIP3   OH236103   1.919   3.025   6.426
12049TIP3    H136104   1.864   3.000   6.352
12049TIP3    H236105   1.926   3.121   6.419
12050TIP3   OH236106   0.318   3.552   3.070
12050TIP3    H136107   0.353   3.580   2.986
12050TIP3    H236108   0.242   3.609   3.085
12051TIP3   OH236109   6.638   0.932   5.750
12051TIP3    H136110   6.695   0.937   5.674
12051TIP3    H236111   6.550   0.921   5.714
12052TIP3   OH236112   0.522   7.319   4.830
12052TIP3    H136113   0.498   7.395   4.777
12052TIP3    H236114   0.497   7.344   4.919
12053TIP3   OH236115   5.514   4.911   3.921
12053TIP3    H136116   5.526   4.912   3.826
12053TIP3    H236117   5.576   4.845   3.952
12054TIP3   OH236118   7.061   5.932   3.621
12054TIP3    H136119   7.032   6.021   3.641
12054TIP3    H236120   7.011   5.906   3.544
12055TIP3   OH236121   7.440   5.921   5.941
12055TIP3    H136122   7.346   5.904   5.947
12055TIP3    H236123   7.451   6.006   5.983
12056TIP3   OH236124   7.529   1.454   3.149
12056TIP3    H136125   7.483   1.381   3.108
12056TIP3    H236126   7.461   1.517   3.170
12057TIP3   OH236127   4.037   0.453   2.521
12057TIP3    H136128   3.977   0.526   2.537
12057TIP3    H236129   4.061   0.422   2.608
12058TIP3   OH236130   0.499   3.298   1.078
12058TIP3    H136131   0.557   3.232   1.118
12058TIP3    H236132   0.540   3.382   1.098
12059TIP3   OH236133   7.007   3.244   0.256
12059TIP3    H136134   6.937   3.308   0.267
12059TIP3    H236135   7.047   3.238   0.343
12060TIP3   OH236136   2.794   1.203   3.991
12060TIP3    H136137   2.755   1.267   3.932
12060TIP3    H236138   2.887   1.203   3.968
12061TIP3   OH236139   3.157   6.520   1.466
12061TIP3    H136140   3.122   6.561   1.387
12061TIP3    H236141   3.157   6.589   1.532
12062TIP3   OH236142   2.981   0.339   2.783
12062TIP3    H136143   2.976   0.251   2.745
12062TIP3    H236144   2.963   0.326   2.876
12063TIP3   OH236145   5.260   6.094   3.781
12063TIP3    H136146   5.207   6.092   3.860
12063TIP3    H236147   5.344   6.057   3.808
12064TIP3   OH236148   8.006   1.354   5.012
12064TIP3    H136149   8.080   1.342   4.953
12064TIP3    H236150   7.966   1.267   5.019
12065TIP3   OH236151   7.961   7.166   0.311
12065TIP3    H136152   7.900   7.112   0.262
12065TIP3    H236153   7.943   7.145   0.403
12066TIP3   OH236154   7.811   2.665   2.668
12066TIP3    H136155   7.849   2.743   2.628
12066TIP3    H236156   7.825   2.595   2.604
12067TIP3   OH236157   5.838   5.883   6.022
12067TIP3    H136158   5.870   5.969   5.997
12067TIP3    H236159   5.850   5.829   5.944
12068TIP3   OH236160   0.034   3.775   5.657
12068TIP3    H136161  -0.001   3.710   5.596
12068TIP3    H236162   0.070   3.844   5.602
12069TIP3   OH236163   6.478   4.285   5.923
12069TIP3    H136164   6.459   4.202   5.879
12069TIP3    H236165   6.574   4.292   5.922
12070TIP3   OH236166   7.401   3.352   1.148
12070TIP3    H136167   7.306   3.351   1.155
12070TIP3    H236168   7.422   3.440   1.115
12071TIP3   OH236169   6.265   3.370   5.350
12071TIP3    H136170   6.223   3.442   5.397
12071TIP3    H236171   6.310   3.319   5.418
12072TIP3   OH236172   5.611   4.956   4.733
12072TIP3    H136173   5.649   4.935   4.818
12072TIP3    H236174   5.656   5.035   4.705
12073TIP3   OH236175   4.600   7.286   5.718
12073TIP3    H136176   4.670   7.327   5.668
12073TIP3    H236177   4.527   7.280   5.657
12074TIP3   OH236178   2.195   0.455   2.417
12074TIP3    H136179   2.127   0.481   2.356
12074TIP3    H236180   2.191   0.359   2.418
12075TIP3   OH236181   4.034   7.328   4.573
12075TIP3    H136182   4.080   7.258   4.526
12075TIP3    H236183   3.988   7.377   4.505
12076TIP3   OH236184   7.024   3.511   1.652
12076TIP3    H136185   7.118   3.494   1.657
12076TIP3    H236186   6.989   3.439   1.599
12077TIP3   OH236187   5.795   5.348   3.684
12077TIP3    H136188   5.802   5.316   3.594
12077TIP3    H236189   5.841   5.431   3.684
12078TIP3   OH236190   5.544   0.860   5.704
12078TIP3    H136191   5.635   0.842   5.681
12078TIP3    H236192   5.513   0.779   5.746
12079TIP3   OH236193   0.874   0.486   6.056
12079TIP3    H136194   0.794   0.446   6.090
12079TIP3    H236195   0.864   0.579   6.075
12080TIP3   OH236196   0.700   4.801   4.688
12080TIP3    H136197   0.683   4.892   4.663
12080TIP3    H236198   0.646   4.786   4.765
12081TIP3   OH236199   2.343   5.313   1.894
12081TIP3    H136200   2.306   5.398   1.917
12081TIP3    H236201   2.335   5.308   1.798
12082TIP3   OH236202   4.018   4.545   2.766
12082TIP3    H136203   4.112   4.527   2.773
12082TIP3    H236204   3.977   4.460   2.755
12083TIP3   OH236205   2.755   1.767   2.628
12083TIP3    H136206   2.846   1.792   2.644
12083TIP3    H236207   2.711   1.848   2.603
12084TIP3   OH236208   2.636   1.549   4.661
12084TIP3    H136209   2.627   1.643   4.642
12084TIP3    H236210   2.627   1.543   4.756
12085TIP3   OH236211   2.184   5.954   1.268
12085TIP3    H136212   2.248   5.995   1.326
12085TIP3    H236213   2.126   6.025   1.242
12086TIP3   OH236214   6.548   6.722   0.683
12086TIP3    H136215   6.642   6.723   0.701
12086TIP3    H236216   6.508   6.684   0.761
12087TIP3   OH236217   4.841   0.383   3.260
12087TIP3    H136218   4.805   0.396   3.172
12087TIP3    H236219   4.931   0.413   3.254
12088TIP3   OH236220   6.689   3.126   2.731
12088TIP3    H136221   6.707   3.219   2.741
12088TIP3    H236222   6.652   3.100   2.816
12089TIP3   OH236223   4.092   6.804   6.477
12089TIP3    H136224   4.129   6.891   6.464
12089TIP3    H236225   4.010   6.819   6.524
12090TIP3   OH236226   2.290   7.061   4.346
12090TIP3    H136227   2.240   7.124   4.294
12090TIP3    H236228   2.233   6.985   4.353
12091TIP3   OH236229   4.150   4.257   2.989
12091TIP3    H136230   4.188   4.264   3.077
12091TIP3    H236231   4.086   4.186   2.997
12092TIP3   OH236232   4.988   6.548   5.859
12092TIP3    H136233   5.010   6.570   5.950
12092TIP3    H236234   4.894   6.530   5.861
12093TIP3   OH236235   8.104   4.260   1.086
12093TIP3    H136236   8.025   4.219   1.121
12093TIP3    H236237   8.073   4.319   1.018
12094TIP3   OH236238   8.123   2.745   2.682
12094TIP3    H136239   8.108   2.692   2.604
12094TIP3    H236240   8.156   2.828   2.649
12095TIP3   OH236241   6.385   1.669   6.323
12095TIP3    H136242   6.430   1.585   6.313
12095TIP3    H236243   6.360   1.694   6.234
12096TIP3   OH236244   4.140  -0.006   5.975
12096TIP3    H136245   4.176   0.059   6.036
12096TIP3    H236246   4.217  -0.052   5.941
12097TIP3   OH236247   3.491   4.672   4.354
12097TIP3    H136248   3.430   4.661   4.427
12097TIP3    H236249   3.541   4.591   4.351
12098TIP3   OH236250   0.655   2.136   0.810
12098TIP3    H136251   0.624   2.214   0.855
12098TIP3    H236252   0.668   2.072   0.880
12099TIP3   OH236253   0.099   4.835   0.173
12099TIP3    H136254   0.192   4.829   0.152
12099TIP3    H236255   0.096   4.884   0.255
12100TIP3   OH236256   4.545   6.840   0.751
12100TIP3    H136257   4.504   6.926   0.752
12100TIP3    H236258   4.625   6.850   0.803
12101TIP3   OH236259   6.396   0.051   3.542
12101TIP3    H136260   6.368   0.142   3.555
12101TIP3    H236261   6.314   0.004   3.524
12102TIP3   OH236262   7.846   2.616   1.624
12102TIP3    H136263   7.902   2.546   1.657
12102TIP3    H236264   7.895   2.696   1.642
12103TIP3   OH236265   4.704   7.023   1.429
12103TIP3    H136266   4.722   6.941   1.384
12103TIP3    H236267   4.638   7.067   1.374
12104TIP3   OH236268   2.965   5.226   6.656
12104TIP3    H136269   2.894   5.163   6.665
12104TIP3    H236270   3.035   5.177   6.613
12105TIP3   OH236271   7.622   4.126   0.526
12105TIP3    H136272   7.549   4.174   0.486
12105TIP3    H236273   7.699   4.157   0.479
12106TIP3   OH236274   6.480   6.360   6.791
12106TIP3    H136275   6.495   6.295   6.723
12106TIP3    H236276   6.568   6.383   6.822
12107TIP3   OH236277   6.512   6.404   3.140
12107TIP3    H136278   6.606   6.389   3.132
12107TIP3    H236279   6.491   6.459   3.064
12108TIP3   OH236280   0.198   7.757   2.212
12108TIP3    H136281   0.241   7.694   2.155
12108TIP3    H236282   0.195   7.838   2.161
12109TIP3   OH236283   7.351   3.275   6.254
12109TIP3    H136284   7.295   3.350   6.233
12109TIP3    H236285   7.360   3.227   6.172
12110TIP3   OH236286   5.350   1.949   1.416
12110TIP3    H136287   5.328   1.904   1.497
12110TIP3    H236288   5.354   1.880   1.350
12111TIP3   OH236289   5.461   4.806   3.649
12111TIP3    H136290   5.437   4.746   3.578
12111TIP3    H236291   5.480   4.749   3.724
12112TIP3   OH236292   0.570   4.163   4.342
12112TIP3    H136293   0.540   4.099   4.277
12112TIP3    H236294   0.622   4.111   4.404
12113TIP3   OH236295   5.368   6.161   4.991
12113TIP3    H136296   5.339   6.193   4.906
12113TIP3    H236297   5.335   6.226   5.053
12114TIP3   OH236298   4.811   5.921   3.017
12114TIP3    H136299   4.826   5.887   3.105
12114TIP3    H236300   4.891   5.899   2.969
12115TIP3   OH236301   6.996   6.988   1.556
12115TIP3    H136302   6.955   7.069   1.526
12115TIP3    H236303   6.939   6.919   1.524
12116TIP3   OH236304   6.349   6.080   0.915
12116TIP3    H136305   6.318   6.115   0.831
12116TIP3    H236306   6.441   6.060   0.899
12117TIP3   OH236307   8.264   6.866   3.874
12117TIP3    H136308   8.246   6.953   3.910
12117TIP3    H236309   8.270   6.879   3.780
12118TIP3   OH236310   5.339   5.892   0.036
12118TIP3    H136311   5.291   5.944   0.101
12118TIP3    H236312   5.389   5.829   0.089
12119TIP3   OH236313   4.301   3.178   6.375
12119TIP3    H136314   4.278   3.178   6.282
12119TIP3    H236315   4.348   3.260   6.389
12120TIP3   OH236316   4.727   6.751   5.184
12120TIP3    H136317   4.632   6.749   5.176
12120TIP3    H236318   4.744   6.810   5.257
12121TIP3   OH236319   2.411   1.221   0.965
12121TIP3    H136320   2.370   1.169   0.896
12121TIP3    H236321   2.417   1.161   1.040
12122TIP3   OH236322   2.316   1.962   5.224
12122TIP3    H136323   2.263   1.902   5.171
12122TIP3    H236324   2.260   2.039   5.235
12123TIP3   OH236325   5.676   0.930   1.942
12123TIP3    H136326   5.671   1.008   1.998
12123TIP3    H236327   5.744   0.951   1.878
12124TIP3   OH236328   1.386   2.800   5.281
12124TIP3    H136329   1.356   2.783   5.192
12124TIP3    H236330   1.427   2.718   5.308
12125TIP3   OH236331   1.106   5.249   6.725
12125TIP3    H136332   1.165   5.259   6.650
12125TIP3    H236333   1.031   5.201   6.690
12126TIP3   OH236334   5.852   1.543   0.853
12126TIP3    H136335   5.888   1.624   0.817
12126TIP3    H236336   5.906   1.525   0.930
12127TIP3   OH236337   1.008   4.033   1.378
12127TIP3    H136338   1.029   3.940   1.373
12127TIP3    H236339   0.927   4.041   1.328
12128TIP3   OH236340   2.341   5.791   4.650
12128TIP3    H136341   2.255   5.754   4.632
12128TIP3    H236342   2.336   5.881   4.619
12129TIP3   OH236343   5.073   6.330   3.489
12129TIP3    H136344   5.006   6.364   3.430
12129TIP3    H236345   5.070   6.388   3.565
12130TIP3   OH236346   7.065   6.629   2.246
12130TIP3    H136347   7.087   6.582   2.165
12130TIP3    H236348   6.993   6.686   2.222
12131TIP3   OH236349   3.074   7.082   6.007
12131TIP3    H136350   3.090   7.175   5.997
12131TIP3    H236351   3.046   7.072   6.098
12132TIP3   OH236352   4.666   0.370   5.399
12132TIP3    H136353   4.742   0.370   5.458
12132TIP3    H236354   4.628   0.282   5.411
12133TIP3   OH236355   6.861   7.376   3.095
12133TIP3    H136356   6.957   7.378   3.087
12133TIP3    H236357   6.844   7.313   3.165
12134TIP3   OH236358   7.740   3.595   4.000
12134TIP3    H136359   7.808   3.620   3.937
12134TIP3    H236360   7.767   3.509   4.031
12135TIP3   OH236361   7.839   0.313   6.133
12135TIP3    H136362   7.921   0.272   6.161
12135TIP3    H236363   7.821   0.274   6.047
12136TIP3   OH236364   6.923   7.489   5.530
12136TIP3    H136365   6.903   7.426   5.462
12136TIP3    H236366   7.018   7.485   5.540
12137TIP3   OH236367   0.183   7.444   2.354
12137TIP3    H136368   0.175   7.531   2.392
12137TIP3    H236369   0.270   7.414   2.382
12138TIP3   OH236370   0.713   0.757   6.590
12138TIP3    H136371   0.747   0.681   6.637
12138TIP3    H236372   0.625   0.769   6.624
12139TIP3   OH236373   7.741   6.080   6.259
12139TIP3    H136374   7.685   6.020   6.209
12139TIP3    H236375   7.680   6.135   6.307
12140TIP3   OH236376   5.973   0.287   6.376
12140TIP3    H136377   5.947   0.205   6.336
12140TIP3    H236378   6.050   0.265   6.429
12141TIP3   OH236379   1.522   3.199   1.842
12141TIP3    H136380   1.602   3.170   1.887
12141TIP3    H236381   1.544   3.286   1.808
12142TIP3   OH236382   0.406   5.524   2.592
12142TIP3    H136383   0.473   5.551   2.529
12142TIP3    H236384   0.455   5.477   2.660
12143TIP3   OH236385   2.281   5.120   6.404
12143TIP3    H136386   2.199   5.170   6.394
12143TIP3    H236387   2.268   5.068   6.483
12144TIP3   OH236388   1.911   6.793   0.521
12144TIP3    H136389   1.877   6.768   0.607
12144TIP3    H236390   1.976   6.726   0.501
12145TIP3   OH236391   4.483   3.122   3.210
12145TIP3    H136392   4.452   3.032   3.200
12145TIP3    H236393   4.412   3.167   3.256
12146TIP3   OH236394   3.091   0.694   2.209
12146TIP3    H136395   3.058   0.710   2.120
12146TIP3    H236396   3.017   0.656   2.256
12147TIP3   OH236397   2.726   7.050   3.063
12147TIP3    H136398   2.734   6.971   3.118
12147TIP3    H236399   2.684   7.114   3.120
12148TIP3   OH236400   4.494   4.521   3.087
12148TIP3    H136401   4.581   4.495   3.118
12148TIP3    H236402   4.499   4.515   2.992
12149TIP3   OH236403   0.666   6.409   1.156
12149TIP3    H136404   0.675   6.350   1.231
12149TIP3    H236405   0.751   6.406   1.112
12150TIP3   OH236406   4.374   5.161   3.978
12150TIP3    H136407   4.456   5.113   3.969
12150TIP3    H236408   4.364   5.172   4.073
12151TIP3   OH236409   4.608   1.703   1.265
12151TIP3    H136410   4.641   1.784   1.227
12151TIP3    H236411   4.514   1.717   1.275
12152TIP3   OH236412   1.587   1.686   1.074
12152TIP3    H136413   1.594   1.756   1.010
12152TIP3    H236414   1.675   1.676   1.109
12153TIP3   OH236415   6.479   5.059   6.092
12153TIP3    H136416   6.435   4.974   6.085
12153TIP3    H236417   6.570   5.041   6.068
12154TIP3   OH236418   0.422   7.818   0.205
12154TIP3    H136419   0.372   7.762   0.146
12154TIP3    H236420   0.360   7.845   0.272
12155TIP3   OH236421   1.361   0.479   4.601
12155TIP3    H136422   1.266   0.464   4.593
12155TIP3    H236423   1.398   0.443   4.520
12156TIP3   OH236424   2.984   0.223   1.075
12156TIP3    H136425   2.936   0.285   1.021
12156TIP3    H236426   3.076   0.238   1.053
12157TIP3   OH236427   0.988   4.486   5.289
12157TIP3    H136428   0.967   4.577   5.268
12157TIP3    H236429   1.061   4.492   5.351
12158TIP3   OH236430   4.943   3.636   6.394
12158TIP3    H136431   5.002   3.655   6.467
12158TIP3    H236432   4.990   3.572   6.341
12159TIP3   OH236433   7.687   6.561   3.898
12159TIP3    H136434   7.593   6.580   3.900
12159TIP3    H236435   7.697   6.500   3.825
12160TIP3   OH236436   6.130   1.449   5.664
12160TIP3    H136437   6.121   1.405   5.748
12160TIP3    H236438   6.041   1.477   5.642
12161TIP3   OH236439   6.632   1.800   2.789
12161TIP3    H136440   6.702   1.793   2.854
12161TIP3    H236441   6.551   1.788   2.839
12162TIP3   OH236442   5.984   1.839   4.593
12162TIP3    H136443   5.984   1.773   4.524
12162TIP3    H236444   6.056   1.898   4.571
12163TIP3   OH236445   6.766   0.193   4.402
12163TIP3    H136446   6.807   0.199   4.316
12163TIP3    H236447   6.785   0.105   4.432
12164TIP3   OH236448   7.199   0.359   4.892
12164TIP3    H136449   7.114   0.331   4.857
12164TIP3    H236450   7.188   0.356   4.987
12165TIP3   OH236451   1.630   7.524   1.961
12165TIP3    H136452   1.584   7.486   1.887
12165TIP3    H236453   1.654   7.613   1.933
12166TIP3   OH236454   1.392   4.766   1.859
12166TIP3    H136455   1.475   4.785   1.815
12166TIP3    H236456   1.349   4.701   1.802
12167TIP3   OH236457   4.653   1.328   2.508
12167TIP3    H136458   4.575   1.380   2.492
12167TIP3    H236459   4.674   1.344   2.600
12168TIP3   OH236460   0.405   5.317   3.326
12168TIP3    H136461   0.404   5.274   3.240
12168TIP3    H236462   0.487   5.366   3.326
12169TIP3   OH236463   1.921   3.853   3.090
12169TIP3    H136464   1.914   3.783   3.155
12169TIP3    H236465   1.839   3.901   3.097
12170TIP3   OH236466   3.528   2.787   5.245
12170TIP3    H136467   3.453   2.756   5.296
12170TIP3    H236468   3.522   2.740   5.162
12171TIP3   OH236469   4.003   3.350   4.936
12171TIP3    H136470   3.978   3.370   5.026
12171TIP3    H236471   4.098   3.364   4.933
12172TIP3   OH236472   1.389   5.060   1.799
12172TIP3    H136473   1.349   5.029   1.717
12172TIP3    H236474   1.319   5.108   1.843
12173TIP3   OH236475   5.734   5.305   3.398
12173TIP3    H136476   5.640   5.319   3.388
12173TIP3    H236477   5.769   5.315   3.310
12174TIP3   OH236478   2.556  -0.019   4.180
12174TIP3    H136479   2.471  -0.041   4.218
12174TIP3    H236480   2.608   0.015   4.253
12175TIP3   OH236481   6.212   4.705   2.078
12175TIP3    H136482   6.130   4.753   2.087
12175TIP3    H236483   6.191   4.617   2.110
12176TIP3   OH236484   0.380   1.926   0.756
12176TIP3    H136485   0.299   1.971   0.736
12176TIP3    H236486   0.365   1.885   0.842
12177TIP3   OH236487   7.487   2.795   1.051
12177TIP3    H136488   7.505   2.742   1.129
12177TIP3    H236489   7.534   2.877   1.066
12178TIP3   OH236490   6.221   4.019   0.376
12178TIP3    H136491   6.224   3.928   0.406
12178TIP3    H236492   6.313   4.041   0.360
12179TIP3   OH236493   4.814   0.268   2.288
12179TIP3    H136494   4.740   0.212   2.264
12179TIP3    H236495   4.774   0.348   2.320
12180TIP3   OH236496   0.474   4.614   0.529
12180TIP3    H136497   0.412   4.681   0.500
12180TIP3    H236498   0.460   4.606   0.623
12181TIP3   OH236499   6.584   6.206   5.824
12181TIP3    H136500   6.662   6.151   5.829
12181TIP3    H236501   6.601   6.278   5.885
12182TIP3   OH236502   0.332   7.109   2.897
12182TIP3    H136503   0.252   7.133   2.944
12182TIP3    H236504   0.395   7.176   2.923
12183TIP3   OH236505   1.539   1.965   4.467
12183TIP3    H136506   1.561   1.882   4.510
12183TIP3    H236507   1.458   1.948   4.420
12184TIP3   OH236508   5.719   6.584   0.026
12184TIP3    H136509   5.653   6.597   0.093
12184TIP3    H236510   5.788   6.532   0.068
12185TIP3   OH236511   2.068   6.455   5.773
12185TIP3    H136512   1.975   6.440   5.755
12185TIP3    H236513   2.088   6.538   5.729
12186TIP3   OH236514   1.762   3.862   3.931
12186TIP3    H136515   1.771   3.957   3.926
12186TIP3    H236516   1.748   3.844   4.024
12187TIP3   OH236517   0.535   3.839   5.005
12187TIP3    H136518   0.592   3.909   4.973
12187TIP3    H236519   0.571   3.759   4.965
12188TIP3   OH236520   3.948   4.896   3.996
12188TIP3    H136521   3.862   4.930   4.019
12188TIP3    H236522   3.995   4.890   4.080
12189TIP3   OH236523   2.845   4.628   0.322
12189TIP3    H136524   2.900   4.552   0.303
12189TIP3    H236525   2.777   4.595   0.380
12190TIP3   OH236526   6.116   0.121   1.646
12190TIP3    H136527   6.176   0.151   1.715
12190TIP3    H236528   6.082   0.202   1.608
12191TIP3   OH236529   5.781   2.987   4.953
12191TIP3    H136530   5.720   3.062   4.958
12191TIP3    H236531   5.735   2.916   4.998
12192TIP3   OH236532   3.489   5.280   4.396
12192TIP3    H136533   3.507   5.277   4.490
12192TIP3    H236534   3.558   5.336   4.360
12193TIP3   OH236535   5.241   6.221   1.543
12193TIP3    H136536   5.202   6.262   1.620
12193TIP3    H236537   5.255   6.294   1.482
12194TIP3   OH236538   7.509   7.589   5.944
12194TIP3    H136539   7.556   7.668   5.970
12194TIP3    H236540   7.577   7.533   5.905
12195TIP3   OH236541   5.200   2.146   6.637
12195TIP3    H136542   5.265   2.112   6.575
12195TIP3    H236543   5.205   2.086   6.712
12196TIP3   OH236544   6.027   7.585   4.693
12196TIP3    H136545   6.079   7.663   4.710
12196TIP3    H236546   6.052   7.524   4.762
12197TIP3   OH236547   7.273   2.776   1.483
12197TIP3    H136548   7.268   2.869   1.507
12197TIP3    H236549   7.272   2.730   1.567
12198TIP3   OH236550   5.728   4.436   2.347
12198TIP3    H136551   5.792   4.489   2.394
12198TIP3    H236552   5.727   4.473   2.258
12199TIP3   OH236553   2.243   0.268   5.658
12199TIP3    H136554   2.329   0.238   5.689
12199TIP3    H236555   2.218   0.203   5.591
12200TIP3   OH236556   1.949   5.464   0.925
12200TIP3    H136557   1.981   5.417   1.002
12200TIP3    H236558   2.022   5.463   0.864
12201TIP3   OH236559   6.644   2.731   1.661
12201TIP3    H136560   6.630   2.702   1.570
12201TIP3    H236561   6.627   2.652   1.713
12202TIP3   OH236562   3.139   2.545   3.483
12202TIP3    H136563   3.168   2.475   3.541
12202TIP3    H236564   3.052   2.519   3.455
12203TIP3   OH236565   3.996   1.855   5.693
12203TIP3    H136566   4.070   1.864   5.632
12203TIP3    H236567   4.036   1.859   5.780
12204TIP3   OH236568   5.972   1.952   1.312
12204TIP3    H136569   6.013   1.879   1.359
12204TIP3    H236570   5.892   1.970   1.362
12205TIP3   OH236571   5.142   2.537   1.323
12205TIP3    H136572   5.220   2.499   1.282
12205TIP3    H236573   5.068   2.492   1.280
12206TIP3   OH236574   7.124   1.601   1.441
12206TIP3    H136575   7.103   1.515   1.404
12206TIP3    H236576   7.093   1.664   1.376
12207TIP3   OH236577   6.702   1.526   0.148
12207TIP3    H136578   6.686   1.459   0.082
12207TIP3    H236579   6.735   1.478   0.224
12208TIP3   OH236580   3.092   2.862   4.868
12208TIP3    H136581   3.110   2.769   4.884
12208TIP3    H236582   3.174   2.906   4.889
12209TIP3   OH236583   2.353   6.973   1.364
12209TIP3    H136584   2.270   6.934   1.393
12209TIP3    H236585   2.373   7.039   1.430
12210TIP3   OH236586   5.851   6.156   2.329
12210TIP3    H136587   5.913   6.225   2.304
12210TIP3    H236588   5.775   6.170   2.273
12211TIP3   OH236589   4.253   3.830   4.602
12211TIP3    H136590   4.264   3.744   4.562
12211TIP3    H236591   4.257   3.814   4.696
12212TIP3   OH236592   1.599   4.878   5.625
12212TIP3    H136593   1.645   4.817   5.567
12212TIP3    H236594   1.668   4.935   5.659
12213TIP3   OH236595   2.089   1.966   0.754
12213TIP3    H136596   2.165   1.996   0.802
12213TIP3    H236597   2.125   1.914   0.682
12214TIP3   OH236598   7.702   2.744   2.905
12214TIP3    H136599   7.647   2.807   2.859
12214TIP3    H236600   7.755   2.703   2.837
12215TIP3   OH236601   4.444   3.831   3.697
12215TIP3    H136602   4.468   3.883   3.774
12215TIP3    H236603   4.362   3.789   3.722
12216TIP3   OH236604   2.159   7.574   1.264
12216TIP3    H136605   2.230   7.525   1.306
12216TIP3    H236606   2.182   7.575   1.171
12217TIP3   OH236607   6.619   7.143   6.048
12217TIP3    H136608   6.615   7.102   6.134
12217TIP3    H236609   6.561   7.090   5.993
12218TIP3   OH236610   1.538   0.298   3.068
12218TIP3    H136611   1.589   0.219   3.088
12218TIP3    H236612   1.466   0.297   3.130
12219TIP3   OH236613   7.404   4.753   1.885
12219TIP3    H136614   7.373   4.785   1.801
12219TIP3    H236615   7.374   4.818   1.949
12220TIP3   OH236616   5.399   3.180   2.796
12220TIP3    H136617   5.424   3.152   2.884
12220TIP3    H236618   5.359   3.103   2.757
12221TIP3   OH236619   3.535   5.106   1.806
12221TIP3    H136620   3.618   5.135   1.843
12221TIP3    H236621   3.552   5.097   1.712
12222TIP3   OH236622   2.293   1.375   5.542
12222TIP3    H136623   2.247   1.402   5.621
12222TIP3    H236624   2.308   1.281   5.555
12223TIP3   OH236625   6.365   0.204   1.827
12223TIP3    H136626   6.437   0.184   1.767
12223TIP3    H236627   6.338   0.120   1.862
12224TIP3   OH236628   0.261   2.612   4.180
12224TIP3    H136629   0.344   2.576   4.210
12224TIP3    H236630   0.255   2.698   4.222
12225TIP3   OH236631   2.116   6.631   3.530
12225TIP3    H136632   2.108   6.709   3.585
12225TIP3    H236633   2.026   6.606   3.510
12226TIP3   OH236634   3.202   3.140   0.521
12226TIP3    H136635   3.108   3.127   0.513
12226TIP3    H236636   3.240   3.078   0.460
12227TIP3   OH236637   4.293   6.006   6.115
12227TIP3    H136638   4.357   6.038   6.179
12227TIP3    H236639   4.303   5.911   6.118
12228TIP3   OH236640   5.915   6.259   6.635
12228TIP3    H136641   5.954   6.240   6.720
12228TIP3    H236642   5.823   6.275   6.654
12229TIP3   OH236643   4.928   1.021   4.340
12229TIP3    H136644   4.849   1.069   4.316
12229TIP3    H236645   4.907   0.929   4.324
12230TIP3   OH236646   4.553   0.296   0.820
12230TIP3    H136647   4.648   0.285   0.814
12230TIP3    H236648   4.523   0.224   0.875
12231TIP3   OH236649   1.617   5.697   4.415
12231TIP3    H136650   1.633   5.790   4.399
12231TIP3    H236651   1.704   5.660   4.428
12232TIP3   OH236652   1.796   5.690   2.070
12232TIP3    H136653   1.837   5.776   2.068
12232TIP3    H236654   1.853   5.637   2.126
12233TIP3   OH236655   7.081   4.388   1.397
12233TIP3    H136656   7.026   4.399   1.320
12233TIP3    H236657   7.147   4.457   1.389
12234TIP3   OH236658   7.805   4.266   4.473
12234TIP3    H136659   7.878   4.305   4.424
12234TIP3    H236660   7.839   4.253   4.561
12235TIP3   OH236661   4.932   6.185   3.223
12235TIP3    H136662   4.948   6.093   3.246
12235TIP3    H236663   4.837   6.193   3.225
12236TIP3   OH236664   5.610   0.490   1.299
12236TIP3    H136665   5.675   0.480   1.230
12236TIP3    H236666   5.537   0.536   1.257
12237TIP3   OH236667   2.268   0.169   2.420
12237TIP3    H136668   2.180   0.131   2.415
12237TIP3    H236669   2.323   0.100   2.456
12238TIP3   OH236670   0.091   1.482   1.409
12238TIP3    H136671   0.126   1.566   1.381
12238TIP3    H236672   0.010   1.472   1.359
12239TIP3   OH236673   4.076   3.505   0.188
12239TIP3    H136674   4.130   3.565   0.240
12239TIP3    H236675   4.029   3.561   0.126
12240TIP3   OH236676   0.659   1.715   4.621
12240TIP3    H136677   0.664   1.802   4.660
12240TIP3    H236678   0.596   1.668   4.675
12241TIP3   OH236679   8.055   6.248   2.903
12241TIP3    H136680   8.147   6.225   2.913
12241TIP3    H236681   8.041   6.247   2.808
12242TIP3   OH236682   0.293   2.579   6.615
12242TIP3    H136683   0.324   2.568   6.705
12242TIP3    H236684   0.208   2.622   6.625
12243TIP3   OH236685   1.421   3.101   6.018
12243TIP3    H136686   1.470   3.070   5.942
12243TIP3    H236687   1.484   3.151   6.069
12244TIP3   OH236688   8.045   3.168   5.272
12244TIP3    H136689   7.965   3.144   5.318
12244TIP3    H236690   8.115   3.155   5.336
12245TIP3   OH236691   4.254   0.734   5.265
12245TIP3    H136692   4.346   0.737   5.293
12245TIP3    H236693   4.232   0.641   5.267
12246TIP3   OH236694   0.576   1.644   1.080
12246TIP3    H136695   0.671   1.653   1.086
12246TIP3    H236696   0.559   1.553   1.106
12247TIP3   OH236697   5.936   6.478   3.658
12247TIP3    H136698   5.977   6.402   3.699
12247TIP3    H236699   5.886   6.519   3.728
12248TIP3   OH236700   1.587   0.338   5.301
12248TIP3    H136701   1.627   0.420   5.326
12248TIP3    H236702   1.493   0.351   5.315
12249TIP3   OH236703   5.597   4.603   3.883
12249TIP3    H136704   5.646   4.554   3.949
12249TIP3    H236705   5.663   4.625   3.817
12250TIP3   OH236706   0.194   6.098   0.699
12250TIP3    H136707   0.152   6.014   0.681
12250TIP3    H236708   0.188   6.146   0.616
12251TIP3   OH236709   2.140   6.503   6.372
12251TIP3    H136710   2.202   6.525   6.441
12251TIP3    H236711   2.089   6.583   6.358
12252TIP3   OH236712   2.351   2.655   0.106
12252TIP3    H136713   2.347   2.750   0.111
12252TIP3    H236714   2.442   2.635   0.086
12253TIP3   OH236715   7.498   2.168   4.702
12253TIP3    H136716   7.561   2.175   4.630
12253TIP3    H236717   7.552   2.170   4.781
12254TIP3   OH236718   1.790   2.401   4.869
12254TIP3    H136719   1.851   2.455   4.920
12254TIP3    H236720   1.722   2.376   4.931
12255TIP3   OH236721   2.057   7.295   5.351
12255TIP3    H136722   1.981   7.285   5.292
12255TIP3    H236723   2.077   7.206   5.379
12256TIP3   OH236724   4.204   7.328   3.054
12256TIP3    H136725   4.173   7.239   3.065
12256TIP3    H236726   4.278   7.336   3.114
12257TIP3   OH236727   1.233   7.239   2.232
12257TIP3    H136728   1.325   7.211   2.230
12257TIP3    H236729   1.206   7.240   2.141
12258TIP3   OH236730   1.505   1.988   3.806
12258TIP3    H136731   1.545   2.047   3.742
12258TIP3    H236732   1.451   1.929   3.754
12259TIP3   OH236733   5.925   7.243   3.598
12259TIP3    H136734   5.865   7.179   3.560
12259TIP3    H236735   6.012   7.217   3.567
12260TIP3   OH236736   5.759   6.592   1.320
12260TIP3    H136737   5.784   6.579   1.411
12260TIP3    H236738   5.800   6.674   1.295
12261TIP3   OH236739   3.232   2.061   1.047
12261TIP3    H136740   3.255   1.972   1.020
12261TIP3    H236741   3.296   2.082   1.116
12262TIP3   OH236742   7.886   1.065   2.403
12262TIP3    H136743   7.971   1.037   2.369
12262TIP3    H236744   7.843   0.985   2.432
12263TIP3   OH236745   3.546   3.504   2.363
12263TIP3    H136746   3.599   3.492   2.442
12263TIP3    H236747   3.475   3.441   2.372
12264TIP3   OH236748   3.551   6.759   3.744
12264TIP3    H136749   3.477   6.710   3.779
12264TIP3    H236750   3.551   6.841   3.794
12265TIP3   OH236751   0.284   6.030   6.005
12265TIP3    H136752   0.357   6.079   5.966
12265TIP3    H236753   0.234   6.095   6.053
12266TIP3   OH236754   2.398   5.471   4.443
12266TIP3    H136755   2.374   5.534   4.376
12266TIP3    H236756   2.478   5.507   4.483
12267TIP3   OH236757   0.111   2.784   3.506
12267TIP3    H136758   0.106   2.697   3.547
12267TIP3    H236759   0.037   2.786   3.445
12268TIP3   OH236760   4.253   5.186   3.461
12268TIP3    H136761   4.246   5.163   3.554
12268TIP3    H236762   4.303   5.268   3.461
12269TIP3   OH236763   8.078   2.795   1.649
12269TIP3    H136764   8.111   2.856   1.715
12269TIP3    H236765   8.126   2.714   1.666
12270TIP3   OH236766   7.326   2.690   4.460
12270TIP3    H136767   7.238   2.717   4.433
12270TIP3    H236768   7.355   2.759   4.519
12271TIP3   OH236769   1.499   4.620   5.517
12271TIP3    H136770   1.562   4.615   5.445
12271TIP3    H236771   1.414   4.608   5.475
12272TIP3   OH236772   1.302   2.474   2.060
12272TIP3    H136773   1.375   2.478   2.121
12272TIP3    H236774   1.306   2.558   2.013
12273TIP3   OH236775   3.795   4.913   5.204
12273TIP3    H136776   3.794   4.818   5.192
12273TIP3    H236777   3.714   4.932   5.252
12274TIP3   OH236778   7.239   3.228   0.889
12274TIP3    H136779   7.201   3.143   0.912
12274TIP3    H236780   7.207   3.288   0.958
12275TIP3   OH236781   0.817   6.985   1.503
12275TIP3    H136782   0.866   6.904   1.487
12275TIP3    H236783   0.878   7.042   1.550
12276TIP3   OH236784   3.293   4.422   1.636
12276TIP3    H136785   3.284   4.517   1.642
12276TIP3    H236786   3.356   4.408   1.565
12277TIP3   OH236787   7.823   5.402   5.102
12277TIP3    H136788   7.918   5.414   5.105
12277TIP3    H236789   7.810   5.322   5.052
12278TIP3   OH236790   5.886   6.782   0.244
12278TIP3    H136791   5.860   6.699   0.284
12278TIP3    H236792   5.890   6.762   0.151
12279TIP3   OH236793   6.104   7.363   5.746
12279TIP3    H136794   6.172   7.296   5.752
12279TIP3    H236795   6.144   7.440   5.786
12280TIP3   OH236796   1.729   2.265   3.918
12280TIP3    H136797   1.799   2.284   3.981
12280TIP3    H236798   1.752   2.179   3.882
12281TIP3   OH236799   3.021   2.085   0.423
12281TIP3    H136800   3.059   2.056   0.339
12281TIP3    H236801   2.988   2.005   0.463
12282TIP3   OH236802   1.300   0.840   4.368
12282TIP3    H136803   1.284   0.747   4.382
12282TIP3    H236804   1.359   0.865   4.440
12283TIP3   OH236805   7.864   4.504   6.129
12283TIP3    H136806   7.852   4.475   6.038
12283TIP3    H236807   7.781   4.545   6.152
12284TIP3   OH236808   3.844   2.266   3.800
12284TIP3    H136809   3.831   2.356   3.830
12284TIP3    H236810   3.880   2.220   3.876
12285TIP3   OH236811   4.779   0.134   4.053
12285TIP3    H136812   4.777   0.114   3.959
12285TIP3    H236813   4.791   0.049   4.096
12286TIP3   OH236814   0.978   1.005   6.094
12286TIP3    H136815   0.992   1.012   6.189
12286TIP3    H236816   0.908   0.941   6.085
12287TIP3   OH236817   0.080   0.779   1.136
12287TIP3    H136818   0.084   0.687   1.110
12287TIP3    H236819   0.088   0.828   1.054
12288TIP3   OH236820   2.832   1.668   0.244
12288TIP3    H136821   2.858   1.653   0.336
12288TIP3    H236822   2.756   1.610   0.231
12289TIP3   OH236823   0.098   2.359   2.220
12289TIP3    H136824   0.113   2.425   2.152
12289TIP3    H236825   0.181   2.312   2.227
12290TIP3   OH236826   6.301   3.514   0.522
12290TIP3    H136827   6.251   3.433   0.514
12290TIP3    H236828   6.384   3.488   0.562
12291TIP3   OH236829   7.444   5.640   6.098
12291TIP3    H136830   7.450   5.552   6.137
12291TIP3    H236831   7.393   5.627   6.018
12292TIP3   OH236832   7.236   0.113   6.479
12292TIP3    H136833   7.288   0.049   6.528
12292TIP3    H236834   7.167   0.062   6.438
12293TIP3   OH236835   7.865   4.459   1.693
12293TIP3    H136836   7.829   4.547   1.707
12293TIP3    H236837   7.940   4.473   1.636
12294TIP3   OH236838   6.972   3.885   0.119
12294TIP3    H136839   6.963   3.980   0.117
12294TIP3    H236840   6.947   3.860   0.207
12295TIP3   OH236841   0.994   6.368   5.584
12295TIP3    H136842   0.919   6.370   5.523
12295TIP3    H236843   1.047   6.443   5.558
12296TIP3   OH236844   6.494   7.163   2.554
12296TIP3    H136845   6.505   7.157   2.649
12296TIP3    H236846   6.416   7.217   2.542
12297TIP3   OH236847   2.575   0.451   4.409
12297TIP3    H136848   2.531   0.368   4.394
12297TIP3    H236849   2.555   0.473   4.500
12298TIP3   OH236850   5.283   1.052   4.689
12298TIP3    H136851   5.244   1.076   4.605
12298TIP3    H236852   5.270   0.958   4.696
12299TIP3   OH236853   4.656   2.257   4.385
12299TIP3    H136854   4.704   2.179   4.356
12299TIP3    H236855   4.573   2.253   4.337
12300TIP3   OH236856   4.615   0.076   2.243
12300TIP3    H136857   4.636  -0.001   2.295
12300TIP3    H236858   4.520   0.087   2.251
12301TIP3   OH236859   0.178   4.877   1.146
12301TIP3    H136860   0.145   4.842   1.064
12301TIP3    H236861   0.220   4.803   1.189
12302TIP3   OH236862   4.510   6.912   2.727
12302TIP3    H136863   4.432   6.903   2.672
12302TIP3    H236864   4.495   6.994   2.776
12303TIP3   OH236865   7.377   5.058   1.403
12303TIP3    H136866   7.313   5.104   1.456
12303TIP3    H236867   7.326   5.021   1.331
12304TIP3   OH236868   5.697   4.159   0.289
12304TIP3    H136869   5.654   4.074   0.277
12304TIP3    H236870   5.788   4.137   0.308
12305TIP3   OH236871   6.471   7.282   3.696
12305TIP3    H136872   6.378   7.268   3.677
12305TIP3    H236873   6.510   7.194   3.689
12306TIP3   OH236874   1.855   1.334   3.927
12306TIP3    H136875   1.847   1.250   3.973
12306TIP3    H236876   1.942   1.366   3.952
12307TIP3   OH236877   8.029   4.834   3.281
12307TIP3    H136878   8.102   4.777   3.259
12307TIP3    H236879   8.061   4.923   3.264
12308TIP3   OH236880   4.003   3.500   4.613
12308TIP3    H136881   3.970   3.550   4.538
12308TIP3    H236882   4.049   3.425   4.574
12309TIP3   OH236883   2.867   6.956   2.332
12309TIP3    H136884   2.776   6.985   2.328
12309TIP3    H236885   2.897   6.986   2.419
12310TIP3   OH236886   2.640   4.893   3.194
12310TIP3    H136887   2.593   4.810   3.185
12310TIP3    H236888   2.663   4.897   3.287
12311TIP3   OH236889   2.904   6.953   5.377
12311TIP3    H136890   2.995   6.953   5.348
12311TIP3    H236891   2.907   6.920   5.466
12312TIP3   OH236892   7.999   5.329   5.611
12312TIP3    H136893   8.071   5.294   5.664
12312TIP3    H236894   8.040   5.390   5.551
12313TIP3   OH236895   6.693   2.054   6.047
12313TIP3    H136896   6.648   1.970   6.058
12313TIP3    H236897   6.639   2.117   6.094
12314TIP3   OH236898   4.584   3.988   1.481
12314TIP3    H136899   4.585   4.058   1.417
12314TIP3    H236900   4.644   3.922   1.446
12315TIP3   OH236901   1.472   3.650   5.707
12315TIP3    H136902   1.475   3.555   5.720
12315TIP3    H236903   1.557   3.671   5.668
12316TIP3   OH236904   4.172   1.774   5.500
12316TIP3    H136905   4.259   1.742   5.524
12316TIP3    H236906   4.178   1.789   5.405
12317TIP3   OH236907   1.865   1.378   3.438
12317TIP3    H136908   1.848   1.298   3.389
12317TIP3    H236909   1.879   1.348   3.528
12318TIP3   OH236910   7.241   7.216   5.856
12318TIP3    H136911   7.269   7.124   5.850
12318TIP3    H236912   7.228   7.243   5.765
12319TIP3   OH236913   0.439   3.384   2.772
12319TIP3    H136914   0.384   3.399   2.695
12319TIP3    H236915   0.442   3.469   2.817
12320TIP3   OH236916   7.583   7.833   2.464
12320TIP3    H136917   7.521   7.849   2.535
12320TIP3    H236918   7.528   7.816   2.388
12321TIP3   OH236919   1.858   0.025   4.886
12321TIP3    H136920   1.928   0.088   4.905
12321TIP3    H236921   1.793   0.039   4.955
12322TIP3   OH236922   3.456   7.354   5.076
12322TIP3    H136923   3.384   7.302   5.114
12322TIP3    H236924   3.511   7.290   5.032
12323TIP3   OH236925   0.727   0.489   4.236
12323TIP3    H136926   0.657   0.546   4.204
12323TIP3    H236927   0.806   0.541   4.224
12324TIP3   OH236928   2.153   0.909   4.458
12324TIP3    H136929   2.167   0.924   4.551
12324TIP3    H236930   2.234   0.868   4.428
12325TIP3   OH236931   3.088   6.304   3.703
12325TIP3    H136932   3.167   6.350   3.674
12325TIP3    H236933   3.057   6.258   3.625
12326TIP3   OH236934   3.880   2.200   6.696
12326TIP3    H136935   3.842   2.248   6.770
12326TIP3    H236936   3.967   2.175   6.727
12327TIP3   OH236937   4.525   4.000   0.528
12327TIP3    H136938   4.465   4.058   0.480
12327TIP3    H236939   4.609   4.013   0.484
12328TIP3   OH236940   4.740   6.433   5.072
12328TIP3    H136941   4.746   6.489   4.994
12328TIP3    H236942   4.766   6.490   5.144
12329TIP3   OH236943   0.063   0.845   4.703
12329TIP3    H136944   0.141   0.848   4.647
12329TIP3    H236945   0.057   0.753   4.731
12330TIP3   OH236946   5.513   2.655   3.731
12330TIP3    H136947   5.434   2.688   3.773
12330TIP3    H236948   5.524   2.711   3.653
12331TIP3   OH236949   3.992   3.055   0.825
12331TIP3    H136950   4.005   3.146   0.798
12331TIP3    H236951   4.080   3.017   0.821
12332TIP3   OH236952   0.793   6.283   1.649
12332TIP3    H136953   0.750   6.362   1.615
12332TIP3    H236954   0.845   6.250   1.576
12333TIP3   OH236955   1.967   7.124   6.299
12333TIP3    H136956   2.010   7.177   6.232
12333TIP3    H236957   1.874   7.143   6.288
12334TIP3   OH236958   5.582   6.984   6.083
12334TIP3    H136959   5.665   7.011   6.121
12334TIP3    H236960   5.589   7.005   5.990
12335TIP3   OH236961   3.010   3.218   2.842
12335TIP3    H136962   2.934   3.274   2.859
12335TIP3    H236963   3.076   3.249   2.904
12336TIP3   OH236964   0.488   6.501   3.760
12336TIP3    H136965   0.557   6.473   3.821
12336TIP3    H236966   0.411   6.449   3.785
12337TIP3   OH236967   3.984   3.709   5.409
12337TIP3    H136968   4.074   3.694   5.380
12337TIP3    H236969   3.994   3.744   5.498
12338TIP3   OH236970   1.488   1.063   2.538
12338TIP3    H136971   1.561   1.054   2.477
12338TIP3    H236972   1.507   1.002   2.608
12339TIP3   OH236973   5.309   3.397   1.721
12339TIP3    H136974   5.378   3.407   1.786
12339TIP3    H236975   5.323   3.310   1.684
12340TIP3   OH236976   0.889   7.136   0.332
12340TIP3    H136977   0.861   7.085   0.256
12340TIP3    H236978   0.905   7.071   0.400
12341TIP3   OH236979   3.941   7.759   4.473
12341TIP3    H136980   3.850   7.773   4.497
12341TIP3    H236981   3.978   7.708   4.546
12342TIP3   OH236982   7.446   5.784   1.921
12342TIP3    H136983   7.461   5.870   1.880
12342TIP3    H236984   7.473   5.721   1.854
12343TIP3   OH236985   4.154   2.173   1.035
12343TIP3    H136986   4.078   2.131   1.076
12343TIP3    H236987   4.120   2.257   1.003
12344TIP3   OH236988   8.096   5.438   2.193
12344TIP3    H136989   8.069   5.528   2.174
12344TIP3    H236990   8.099   5.395   2.108
12345TIP3   OH236991   4.584   3.066   6.494
12345TIP3    H136992   4.563   3.053   6.586
12345TIP3    H236993   4.506   3.107   6.456
12346TIP3   OH236994   4.984   0.240   0.064
12346TIP3    H136995   5.077   0.215   0.063
12346TIP3    H236996   4.937   0.157   0.061
12347TIP3   OH236997   6.296   2.655   0.804
12347TIP3    H136998   6.299   2.640   0.898
12347TIP3    H236999   6.270   2.570   0.768
12348TIP3   OH237000   7.829   3.252   4.869
12348TIP3    H137001   7.909   3.305   4.868
12348TIP3    H237002   7.796   3.257   4.779
12349TIP3   OH237003   1.478   0.736   2.286
12349TIP3    H137004   1.512   0.724   2.374
12349TIP3    H237005   1.392   0.693   2.287
12350TIP3   OH237006   6.071   5.839   4.912
12350TIP3    H137007   6.065   5.747   4.938
12350TIP3    H237008   6.027   5.886   4.982
12351TIP3   OH237009   0.189   6.895   2.527
12351TIP3    H137010   0.184   6.988   2.549
12351TIP3    H237011   0.099   6.864   2.532
12352TIP3   OH237012   1.877   7.291   1.721
12352TIP3    H137013   1.898   7.340   1.800
12352TIP3    H237014   1.957   7.293   1.669
12353TIP3   OH237015   2.830   0.355   4.035
12353TIP3    H137016   2.872   0.421   3.980
12353TIP3    H237017   2.848   0.382   4.125
12354TIP3   OH237018   4.489   0.941   5.892
12354TIP3    H137019   4.486   0.955   5.797
12354TIP3    H237020   4.443   1.016   5.929
12355TIP3   OH237021   1.202   2.637   3.974
12355TIP3    H137022   1.155   2.709   3.933
12355TIP3    H237023   1.249   2.677   4.047
12356TIP3   OH237024   2.347   5.406   3.812
12356TIP3    H137025   2.261   5.448   3.808
12356TIP3    H237026   2.328   5.312   3.809
12357TIP3   OH237027   7.377   6.406   1.357
12357TIP3    H137028   7.404   6.362   1.276
12357TIP3    H237029   7.338   6.335   1.410
12358TIP3   OH237030   5.867   1.267   0.767
12358TIP3    H137031   5.851   1.357   0.796
12358TIP3    H237032   5.963   1.260   0.764
12359TIP3   OH237033   0.613   6.805   4.787
12359TIP3    H137034   0.602   6.779   4.695
12359TIP3    H237035   0.560   6.884   4.796
12360TIP3   OH237036   0.917   5.187   5.432
12360TIP3    H137037   0.904   5.133   5.354
12360TIP3    H237038   0.837   5.174   5.484
12361TIP3   OH237039   0.529   1.562   2.360
12361TIP3    H137040   0.543   1.469   2.377
12361TIP3    H237041   0.446   1.566   2.312
12362TIP3   OH237042   1.210   6.317   3.250
12362TIP3    H137043   1.151   6.249   3.282
12362TIP3    H237044   1.193   6.322   3.156
12363TIP3   OH237045   5.445   5.263   4.203
12363TIP3    H137046   5.471   5.241   4.113
12363TIP3    H237047   5.486   5.195   4.257
12364TIP3   OH237048   3.219   3.089   0.149
12364TIP3    H137049   3.294   3.135   0.187
12364TIP3    H237050   3.194   3.025   0.216
12365TIP3   OH237051   1.686   0.670   3.331
12365TIP3    H137052   1.593   0.676   3.352
12365TIP3    H237053   1.695   0.715   3.247
12366TIP3   OH237054   7.289   3.621   4.797
12366TIP3    H137055   7.294   3.556   4.727
12366TIP3    H237056   7.226   3.686   4.765
12367TIP3   OH237057   3.634   3.836   1.166
12367TIP3    H137058   3.561   3.776   1.184
12367TIP3    H237059   3.666   3.809   1.080
12368TIP3   OH237060   6.257   6.403   0.530
12368TIP3    H137061   6.274   6.314   0.500
12368TIP3    H237062   6.343   6.442   0.543
12369TIP3   OH237063   5.565   4.072   1.821
12369TIP3    H137064   5.509   4.113   1.755
12369TIP3    H237065   5.579   3.983   1.789
12370TIP3   OH237066   6.168   7.094   3.480
12370TIP3    H137067   6.155   7.007   3.444
12370TIP3    H237068   6.218   7.080   3.560
12371TIP3   OH237069   7.316   7.212   0.846
12371TIP3    H137070   7.397   7.169   0.822
12371TIP3    H237071   7.249   7.170   0.791
12372TIP3   OH237072   2.821   5.768   1.441
12372TIP3    H137073   2.888   5.769   1.372
12372TIP3    H237074   2.778   5.854   1.434
12373TIP3   OH237075   2.478   2.537   1.072
12373TIP3    H137076   2.463   2.489   1.154
12373TIP3    H237077   2.571   2.557   1.072
12374TIP3   OH237078   1.010   3.389   5.589
12374TIP3    H137079   0.931   3.427   5.552
12374TIP3    H237080   1.067   3.463   5.606
12375TIP3   OH237081   4.550   0.389   3.039
12375TIP3    H137082   4.575   0.300   3.015
12375TIP3    H237083   4.458   0.396   3.014
12376TIP3   OH237084   7.312   6.342   2.946
12376TIP3    H137085   7.264   6.350   2.863
12376TIP3    H237086   7.263   6.395   3.008
12377TIP3   OH237087   7.852   6.871   5.885
12377TIP3    H137088   7.765   6.901   5.910
12377TIP3    H237089   7.852   6.777   5.903
12378TIP3   OH237090   7.864   1.336   6.329
12378TIP3    H137091   7.903   1.348   6.416
12378TIP3    H237092   7.778   1.379   6.335
12379TIP3   OH237093   6.880   7.123   0.381
12379TIP3    H137094   6.847   7.056   0.441
12379TIP3    H237095   6.806   7.141   0.322
12380TIP3   OH237096   3.728   7.794   3.221
12380TIP3    H137097   3.780   7.804   3.301
12380TIP3    H237098   3.648   7.843   3.239
12381TIP3   OH237099   2.060   2.590   2.268
12381TIP3    H137100   2.037   2.675   2.232
12381TIP3    H237101   2.113   2.548   2.201
12382TIP3   OH237102   5.128   3.861   1.561
12382TIP3    H137103   5.100   3.952   1.556
12382TIP3    H237104   5.165   3.852   1.649
12383TIP3   OH237105   2.109   1.485   1.648
12383TIP3    H137106   2.071   1.513   1.565
12383TIP3    H237107   2.131   1.393   1.634
12384TIP3   OH237108   8.096   2.811   4.980
12384TIP3    H137109   8.052   2.742   4.931
12384TIP3    H237110   8.039   2.887   4.971
12385TIP3   OH237111   4.473   3.580   4.331
12385TIP3    H137112   4.500   3.618   4.247
12385TIP3    H237113   4.499   3.488   4.326
12386TIP3   OH237114   0.912   6.505   1.400
12386TIP3    H137115   0.825   6.515   1.437
12386TIP3    H237116   0.939   6.416   1.424
12387TIP3   OH237117   7.496   1.821   5.614
12387TIP3    H137118   7.584   1.853   5.594
12387TIP3    H237119   7.445   1.900   5.633
12388TIP3   OH237120   2.117   2.783   4.251
12388TIP3    H137121   2.094   2.697   4.217
12388TIP3    H237122   2.131   2.770   4.345
12389TIP3   OH237123   0.217   7.161   2.595
12389TIP3    H137124   0.150   7.223   2.626
12389TIP3    H237125   0.278   7.154   2.669
12390TIP3   OH237126   0.548   7.066   3.999
12390TIP3    H137127   0.533   6.990   3.943
12390TIP3    H237128   0.503   7.045   4.081
12391TIP3   OH237129   1.357   0.395   5.901
12391TIP3    H137130   1.383   0.462   5.964
12391TIP3    H237131   1.395   0.314   5.934
12392TIP3   OH237132   7.106   1.794   4.468
12392TIP3    H137133   7.079   1.855   4.399
12392TIP3    H237134   7.072   1.709   4.439
12393TIP3   OH237135   0.059   7.280   1.559
12393TIP3    H137136   0.098   7.197   1.587
12393TIP3    H237137   0.071   7.339   1.634
12394TIP3   OH237138   2.543   4.935   3.657
12394TIP3    H137139   2.456   4.908   3.687
12394TIP3    H237140   2.554   4.893   3.571
12395TIP3   OH237141   2.761   2.160   0.766
12395TIP3    H137142   2.676   2.173   0.808
12395TIP3    H237143   2.802   2.091   0.817
12396TIP3   OH237144   4.483   7.421   1.332
12396TIP3    H137145   4.521   7.335   1.314
12396TIP3    H237146   4.465   7.458   1.245
12397TIP3   OH237147   1.239   4.075   2.698
12397TIP3    H137148   1.163   4.112   2.655
12397TIP3    H237149   1.313   4.096   2.640
12398TIP3   OH237150   3.957   2.321   3.063
12398TIP3    H137151   3.882   2.306   3.006
12398TIP3    H237152   4.025   2.263   3.029
12399TIP3   OH237153   2.249   2.321   2.516
12399TIP3    H137154   2.340   2.348   2.510
12399TIP3    H237155   2.200   2.403   2.519
12400TIP3   OH237156   4.816   2.248   0.949
12400TIP3    H137157   4.797   2.167   0.901
12400TIP3    H237158   4.862   2.303   0.887
12401TIP3   OH237159   0.611   0.171   6.595
12401TIP3    H137160   0.552   0.217   6.654
12401TIP3    H237161   0.697   0.179   6.637
12402TIP3   OH237162   2.588   4.348   1.157
12402TIP3    H137163   2.681   4.339   1.175
12402TIP3    H237164   2.560   4.259   1.134
12403TIP3   OH237165   7.661   4.992   5.637
12403TIP3    H137166   7.704   5.070   5.672
12403TIP3    H237167   7.713   4.968   5.561
12404TIP3   OH237168   4.019   0.016   3.045
12404TIP3    H137169   3.987   0.028   3.135
12404TIP3    H237170   3.977  -0.065   3.015
12405TIP3   OH237171   4.982   4.402   1.458
12405TIP3    H137172   4.965   4.344   1.532
12405TIP3    H237173   4.985   4.490   1.496
12406TIP3   OH237174   0.414   1.063   1.186
12406TIP3    H137175   0.424   1.022   1.272
12406TIP3    H237176   0.379   1.150   1.206
12407TIP3   OH237177   7.656   4.895   4.998
12407TIP3    H137178   7.658   4.889   4.902
12407TIP3    H237179   7.591   4.830   5.024
12408TIP3   OH237180   0.379   2.294   3.003
12408TIP3    H137181   0.400   2.355   3.074
12408TIP3    H237182   0.320   2.342   2.946
12409TIP3   OH237183   2.548   3.999   2.427
12409TIP3    H137184   2.587   3.963   2.506
12409TIP3    H237185   2.462   4.031   2.454
12410TIP3   OH237186   7.415   1.911   0.359
12410TIP3    H137187   7.408   1.816   0.366
12410TIP3    H237188   7.461   1.925   0.276
12411TIP3   OH237189   4.219   1.968   0.507
12411TIP3    H137190   4.195   1.998   0.594
12411TIP3    H237191   4.311   1.991   0.497
12412TIP3   OH237192   6.580   6.917   2.212
12412TIP3    H137193   6.585   6.999   2.262
12412TIP3    H237194   6.512   6.933   2.147
12413TIP3   OH237195   7.312   4.583   1.397
12413TIP3    H137196   7.240   4.639   1.426
12413TIP3    H237197   7.324   4.606   1.305
12414TIP3   OH237198   5.496   4.346   1.069
12414TIP3    H137199   5.464   4.356   0.979
12414TIP3    H237200   5.439   4.278   1.107
12415TIP3   OH237201   0.814   4.553   4.640
12415TIP3    H137202   0.818   4.572   4.547
12415TIP3    H237203   0.769   4.628   4.678
12416TIP3   OH237204   1.690   3.598   0.661
12416TIP3    H137205   1.625   3.629   0.598
12416TIP3    H237206   1.771   3.643   0.637
12417TIP3   OH237207   3.105   7.631   4.854
12417TIP3    H137208   3.159   7.557   4.828
12417TIP3    H237209   3.105   7.689   4.778
12418TIP3   OH237210   7.500   7.071   0.429
12418TIP3    H137211   7.553   7.142   0.464
12418TIP3    H237212   7.425   7.115   0.387
12419TIP3   OH237213   1.625   4.662   6.237
12419TIP3    H137214   1.645   4.737   6.182
12419TIP3    H237215   1.561   4.611   6.187
12420TIP3   OH237216   4.322   0.559   3.708
12420TIP3    H137217   4.418   0.560   3.707
12420TIP3    H237218   4.297   0.648   3.684
12421TIP3   OH237219   8.256   3.721   4.731
12421TIP3    H137220   8.189   3.783   4.763
12421TIP3    H237221   8.277   3.667   4.807
12422TIP3   OH237222   0.321   0.850   2.113
12422TIP3    H137223   0.299   0.943   2.101
12422TIP3    H237224   0.305   0.834   2.206
12423TIP3   OH237225   2.713   3.432   1.778
12423TIP3    H137226   2.715   3.510   1.833
12423TIP3    H237227   2.680   3.463   1.694
12424TIP3   OH237228   0.357   2.729   3.863
12424TIP3    H137229   0.315   2.811   3.836
12424TIP3    H237230   0.340   2.668   3.792
12425TIP3   OH237231   2.554   6.272   4.446
12425TIP3    H137232   2.593   6.228   4.522
12425TIP3    H237233   2.534   6.360   4.476
12426TIP3   OH237234   7.254   2.391   2.770
12426TIP3    H137235   7.332   2.335   2.774
12426TIP3    H237236   7.288   2.480   2.780
12427TIP3   OH237237   4.421   7.052   3.067
12427TIP3    H137238   4.508   7.088   3.047
12427TIP3    H237239   4.407   7.072   3.160
12428TIP3   OH237240   3.851   2.422   3.292
12428TIP3    H137241   3.782   2.357   3.311
12428TIP3    H237242   3.872   2.408   3.200
12429TIP3   OH237243   3.413   7.556   1.755
12429TIP3    H137244   3.496   7.514   1.732
12429TIP3    H237245   3.374   7.497   1.820
12430TIP3   OH237246   0.321   7.422   0.466
12430TIP3    H137247   0.337   7.372   0.386
12430TIP3    H237248   0.365   7.505   0.451
12431TIP3   OH237249   6.344   7.071   6.755
12431TIP3    H137250   6.361   7.137   6.688
12431TIP3    H237251   6.258   7.035   6.733
12432TIP3   OH237252   8.220   6.878   5.156
12432TIP3    H137253   8.179   6.793   5.172
12432TIP3    H237254   8.283   6.888   5.227
12433TIP3   OH237255   1.145   6.729   5.810
12433TIP3    H137256   1.090   6.750   5.734
12433TIP3    H237257   1.100   6.770   5.884
12434TIP3   OH237258   1.153   7.357   6.738
12434TIP3    H137259   1.165   7.322   6.827
12434TIP3    H237260   1.239   7.390   6.714
12435TIP3   OH237261   3.720   2.845   1.160
12435TIP3    H137262   3.741   2.850   1.067
12435TIP3    H237263   3.699   2.935   1.185
12436TIP3   OH237264   7.037   6.876   6.561
12436TIP3    H137265   6.983   6.915   6.491
12436TIP3    H237266   6.974   6.836   6.620
12437TIP3   OH237267   1.672   3.167   4.409
12437TIP3    H137268   1.732   3.239   4.390
12437TIP3    H237269   1.626   3.151   4.327
12438TIP3   OH237270   5.080   5.493   0.514
12438TIP3    H137271   5.049   5.569   0.465
12438TIP3    H237272   5.003   5.436   0.523
12439TIP3   OH237273   7.509   4.238   0.797
12439TIP3    H137274   7.430   4.191   0.771
12439TIP3    H237275   7.544   4.274   0.715
12440TIP3   OH237276   7.474   6.454   2.374
12440TIP3    H137277   7.463   6.547   2.351
12440TIP3    H237278   7.565   6.447   2.403
12441TIP3   OH237279   5.530   5.962   4.579
12441TIP3    H137280   5.512   6.034   4.639
12441TIP3    H237281   5.443   5.935   4.548
12442TIP3   OH237282   6.661   7.028   1.011
12442TIP3    H137283   6.573   7.013   0.976
12442TIP3    H237284   6.711   7.062   0.936
12443TIP3   OH237285   2.713   2.624   5.429
12443TIP3    H137286   2.674   2.684   5.366
12443TIP3    H237287   2.655   2.627   5.505
12444TIP3   OH237288   2.861   1.569   3.640
12444TIP3    H137289   2.917   1.495   3.617
12444TIP3    H237290   2.921   1.636   3.672
12445TIP3   OH237291   2.747   7.239   1.748
12445TIP3    H137292   2.798   7.183   1.807
12445TIP3    H237293   2.669   7.262   1.799
12446TIP3   OH237294   5.293   4.980   5.071
12446TIP3    H137295   5.238   4.968   5.148
12446TIP3    H237296   5.383   4.982   5.105
12447TIP3   OH237297   7.839   4.354   2.064
12447TIP3    H137298   7.837   4.444   2.032
12447TIP3    H237299   7.768   4.310   2.016
12448TIP3   OH237300   7.415   3.689   6.361
12448TIP3    H137301   7.415   3.750   6.287
12448TIP3    H237302   7.490   3.716   6.414
12449TIP3   OH237303   6.894   1.619  -0.029
12449TIP3    H137304   6.900   1.715  -0.030
12449TIP3    H237305   6.834   1.599   0.043
12450TIP3   OH237306   2.503   4.339   4.414
12450TIP3    H137307   2.457   4.291   4.345
12450TIP3    H237308   2.596   4.326   4.395
12451TIP3   OH237309   3.282   5.832   0.751
12451TIP3    H137310   3.301   5.775   0.826
12451TIP3    H237311   3.187   5.843   0.754
12452TIP3   OH237312   2.337   5.787   5.182
12452TIP3    H137313   2.402   5.717   5.186
12452TIP3    H237314   2.355   5.833   5.100
12453TIP3   OH237315   1.490   4.772   4.932
12453TIP3    H137316   1.540   4.830   4.875
12453TIP3    H237317   1.409   4.755   4.883
12454TIP3   OH237318   2.983   1.261   3.110
12454TIP3    H137319   2.935   1.178   3.108
12454TIP3    H237320   2.920   1.326   3.139
12455TIP3   OH237321   3.167   2.593   4.924
12455TIP3    H137322   3.169   2.498   4.917
12455TIP3    H237323   3.225   2.614   4.997
12456TIP3   OH237324   7.353   4.449   0.109
12456TIP3    H137325   7.409   4.474   0.035
12456TIP3    H237326   7.387   4.363   0.136
12457TIP3   OH237327   3.732   5.519   0.104
12457TIP3    H137328   3.745   5.613   0.093
12457TIP3    H237329   3.817   5.480   0.084
12458TIP3   OH237330   6.884   3.233   1.896
12458TIP3    H137331   6.819   3.303   1.898
12458TIP3    H237332   6.848   3.165   1.953
12459TIP3   OH237333   0.767   5.116   0.110
12459TIP3    H137334   0.727   5.182   0.053
12459TIP3    H237335   0.768   5.157   0.196
12460TIP3   OH237336   3.217   4.390   2.977
12460TIP3    H137337   3.283   4.326   2.949
12460TIP3    H237338   3.140   4.337   2.998
12461TIP3   OH237339   2.047   6.659   4.602
12461TIP3    H137340   2.057   6.580   4.654
12461TIP3    H237341   2.107   6.722   4.642
12462TIP3   OH237342   7.597  -0.003   2.524
12462TIP3    H137343   7.657   0.010   2.450
12462TIP3    H237344   7.516   0.039   2.497
12463TIP3   OH237345   3.739   1.982   6.564
12463TIP3    H137346   3.729   2.019   6.477
12463TIP3    H237347   3.787   2.048   6.613
12464TIP3   OH237348   1.221   6.599   1.845
12464TIP3    H137349   1.304   6.555   1.829
12464TIP3    H237350   1.202   6.582   1.938
12465TIP3   OH237351   7.289   1.088   1.634
12465TIP3    H137352   7.283   1.084   1.539
12465TIP3    H237353   7.201   1.068   1.665
12466TIP3   OH237354   6.483   2.158   6.130
12466TIP3    H137355   6.400   2.113   6.117
12466TIP3    H237356   6.465   2.249   6.109
12467TIP3   OH237357   0.468   7.154   0.795
12467TIP3    H137358   0.530   7.227   0.793
12467TIP3    H237359   0.518   7.079   0.764
12468TIP3   OH237360   1.726   1.696   3.659
12468TIP3    H137361   1.669   1.620   3.670
12468TIP3    H237362   1.807   1.672   3.704
12469TIP3   OH237363   8.308   7.243   6.259
12469TIP3    H137364   8.288   7.189   6.336
12469TIP3    H237365   8.373   7.306   6.291
12470TIP3   OH237366   7.276   0.984   4.496
12470TIP3    H137367   7.247   1.006   4.585
12470TIP3    H237368   7.367   0.955   4.508
12471TIP3   OH237369   6.141   7.682   6.709
12471TIP3    H137370   6.127   7.752   6.773
12471TIP3    H237371   6.054   7.663   6.674
12472TIP3   OH237372   6.359   0.714   1.518
12472TIP3    H137373   6.342   0.706   1.424
12472TIP3    H237374   6.317   0.797   1.543
12473TIP3   OH237375   1.807   0.176   0.157
12473TIP3    H137376   1.804   0.156   0.064
12473TIP3    H237377   1.850   0.101   0.197
12474TIP3   OH237378   5.618   0.405   5.542
12474TIP3    H137379   5.617   0.335   5.478
12474TIP3    H237380   5.710   0.425   5.556
12475TIP3   OH237381   3.907   0.454   1.183
12475TIP3    H137382   3.873   0.415   1.102
12475TIP3    H237383   3.997   0.421   1.189
12476TIP3   OH237384   3.200   3.857   4.718
12476TIP3    H137385   3.234   3.940   4.751
12476TIP3    H237386   3.211   3.863   4.623
12477TIP3   OH237387   2.662   0.599   1.574
12477TIP3    H137388   2.689   0.514   1.540
12477TIP3    H237389   2.735   0.657   1.554
12478TIP3   OH237390   1.610   3.292   0.389
12478TIP3    H137391   1.581   3.275   0.478
12478TIP3    H237392   1.531   3.324   0.344
12479TIP3   OH237393   0.293   4.192   3.699
12479TIP3    H137394   0.384   4.166   3.714
12479TIP3    H237395   0.248   4.112   3.674
12480TIP3   OH237396   0.939   6.537   4.225
12480TIP3    H137397   0.970   6.471   4.286
12480TIP3    H237398   0.954   6.620   4.269
12481TIP3   OH237399   4.501   6.269   5.419
12481TIP3    H137400   4.547   6.276   5.335
12481TIP3    H237401   4.408   6.268   5.395
12482TIP3   OH237402   3.844   1.190   6.764
12482TIP3    H137403   3.884   1.276   6.775
12482TIP3    H237404   3.918   1.129   6.764
12483TIP3   OH237405   5.209   5.779   6.328
12483TIP3    H137406   5.288   5.830   6.350
12483TIP3    H237407   5.149   5.796   6.400
12484TIP3   OH237408   4.114   2.442   1.972
12484TIP3    H137409   4.111   2.458   2.067
12484TIP3    H237410   4.036   2.389   1.955
12485TIP3   OH237411   4.845   7.592   5.680
12485TIP3    H137412   4.792   7.532   5.733
12485TIP3    H237413   4.927   7.602   5.729
12486TIP3   OH237414   7.517   3.116   1.070
12486TIP3    H137415   7.469   3.092   1.149
12486TIP3    H237416   7.508   3.211   1.064
12487TIP3   OH237417   7.320   6.654   4.234
12487TIP3    H137418   7.248   6.635   4.293
12487TIP3    H237419   7.334   6.571   4.187
12488TIP3   OH237420   3.001   3.212   0.030
12488TIP3    H137421   3.070   3.187   0.091
12488TIP3    H237422   2.924   3.225   0.085
12489TIP3   OH237423   5.913   1.740   2.450
12489TIP3    H137424   5.897   1.656   2.494
12489TIP3    H237425   5.930   1.717   2.359
12490TIP3   OH237426   2.686   5.977   5.424
12490TIP3    H137427   2.617   5.910   5.420
12490TIP3    H237428   2.640   6.058   5.446
12491TIP3   OH237429   1.960   5.064   0.752
12491TIP3    H137430   2.007   4.981   0.760
12491TIP3    H237431   1.964   5.103   0.839
12492TIP3   OH237432   0.311   5.121   1.267
12492TIP3    H137433   0.271   5.163   1.343
12492TIP3    H237434   0.249   5.052   1.242
12493TIP3   OH237435   7.644   6.454   0.592
12493TIP3    H137436   7.731   6.495   0.588
12493TIP3    H237437   7.662   6.360   0.596
12494TIP3   OH237438   6.707   4.812   3.430
12494TIP3    H137439   6.717   4.884   3.368
12494TIP3    H237440   6.702   4.734   3.375
12495TIP3   OH237441   5.297   7.361   5.461
12495TIP3    H137442   5.322   7.278   5.502
12495TIP3    H237443   5.202   7.366   5.473
12496TIP3   OH237444   1.202   4.798   5.511
12496TIP3    H137445   1.141   4.843   5.569
12496TIP3    H237446   1.150   4.777   5.433
12497TIP3   OH237447   3.488   5.820   6.587
12497TIP3    H137448   3.566   5.766   6.579
12497TIP3    H237449   3.415   5.758   6.583
12498TIP3   OH237450   7.976   1.796   3.193
12498TIP3    H137451   7.886   1.769   3.179
12498TIP3    H237452   7.976   1.838   3.279
12499TIP3   OH237453   1.202   6.275   1.164
12499TIP3    H137454   1.182   6.363   1.195
12499TIP3    H237455   1.170   6.217   1.233
12500TIP3   OH237456   1.739   7.393   0.296
12500TIP3    H137457   1.727   7.314   0.349
12500TIP3    H237458   1.795   7.365   0.224
12501TIP3   OH237459   0.574   4.557   2.530
12501TIP3    H137460   0.619   4.619   2.472
12501TIP3    H237461   0.561   4.479   2.476
12502TIP3   OH237462   2.789   0.713   0.361
12502TIP3    H137463   2.693   0.709   0.357
12502TIP3    H237464   2.813   0.761   0.282
12503TIP3   OH237465   4.526   4.601   1.636
12503TIP3    H137466   4.447   4.638   1.598
12503TIP3    H237467   4.535   4.515   1.596
12504TIP3   OH237468   1.093   7.185   1.267
12504TIP3    H137469   1.044   7.266   1.251
12504TIP3    H237470   1.140   7.200   1.348
12505TIP3   OH237471   6.829   3.999   5.086
12505TIP3    H137472   6.867   4.030   5.005
12505TIP3    H237473   6.823   4.077   5.142
12506TIP3   OH237474   1.419   0.883   2.840
12506TIP3    H137475   1.424   0.974   2.812
12506TIP3    H237476   1.507   0.862   2.871
12507TIP3   OH237477   4.417   2.359   2.306
12507TIP3    H137478   4.406   2.415   2.230
12507TIP3    H237479   4.403   2.270   2.273
12508TIP3   OH237480   0.084   7.088   4.709
12508TIP3    H137481   0.080   7.183   4.723
12508TIP3    H237482   0.101   7.052   4.796
12509TIP3   OH237483   2.775   3.107   6.422
12509TIP3    H137484   2.738   3.025   6.388
12509TIP3    H237485   2.860   3.081   6.458
12510TIP3   OH237486   5.530   4.473   3.184
12510TIP3    H137487   5.501   4.384   3.204
12510TIP3    H237488   5.520   4.520   3.267
12511TIP3   OH237489   2.880   1.664   3.988
12511TIP3    H137490   2.900   1.651   4.081
12511TIP3    H237491   2.941   1.607   3.942
12512TIP3   OH237492   3.071   2.557   3.867
12512TIP3    H137493   2.992   2.537   3.917
12512TIP3    H237494   3.143   2.540   3.928
12513TIP3   OH237495   5.345   6.688   5.149
12513TIP3    H137496   5.372   6.771   5.188
12513TIP3    H237497   5.270   6.660   5.201
12514TIP3   OH237498   5.595   5.074   4.297
12514TIP3    H137499   5.688   5.067   4.321
12514TIP3    H237500   5.565   4.983   4.291
12515TIP3   OH237501   4.604   3.699   4.854
12515TIP3    H137502   4.521   3.745   4.849
12515TIP3    H237503   4.670   3.768   4.845
12516TIP3   OH237504   7.997   6.617   4.803
12516TIP3    H137505   8.086   6.651   4.789
12516TIP3    H237506   7.970   6.656   4.886
12517TIP3   OH237507   2.979   4.678   1.549
12517TIP3    H137508   2.954   4.711   1.635
12517TIP3    H237509   2.922   4.603   1.534
12518TIP3   OH237510   2.515   1.075   5.370
12518TIP3    H137511   2.532   1.059   5.277
12518TIP3    H237512   2.594   1.118   5.402
12519TIP3   OH237513   5.416   2.168   3.415
12519TIP3    H137514   5.370   2.197   3.336
12519TIP3    H237515   5.386   2.079   3.429
12520TIP3   OH237516   4.221   6.168   0.488
12520TIP3    H137517   4.132   6.164   0.453
12520TIP3    H237518   4.214   6.220   0.568
12521TIP3   OH237519   0.368   3.345   2.508
12521TIP3    H137520   0.412   3.307   2.431
12521TIP3    H237521   0.311   3.413   2.471
12522TIP3   OH237522   8.075   3.293   5.703
12522TIP3    H137523   8.143   3.257   5.645
12522TIP3    H237524   8.035   3.217   5.743
12523TIP3   OH237525   5.857   0.749   2.432
12523TIP3    H137526   5.820   0.668   2.466
12523TIP3    H237527   5.948   0.727   2.413
12524TIP3   OH237528   1.706   6.356   4.563
12524TIP3    H137529   1.763   6.281   4.579
12524TIP3    H237530   1.763   6.423   4.525
12525TIP3   OH237531   6.717   4.653   1.236
12525TIP3    H137532   6.731   4.720   1.169
12525TIP3    H237533   6.805   4.620   1.255
12526TIP3   OH237534   8.388   2.283   4.559
12526TIP3    H137535   8.429   2.216   4.503
12526TIP3    H237536   8.361   2.352   4.499
12527TIP3   OH237537   0.837   6.683   5.236
12527TIP3    H137538   0.832   6.742   5.161
12527TIP3    H237539   0.888   6.608   5.205
12528TIP3   OH237540   4.796   2.033   3.610
12528TIP3    H137541   4.770   1.941   3.605
12528TIP3    H237542   4.812   2.049   3.703
12529TIP3   OH237543   8.062   2.076   3.708
12529TIP3    H137544   7.980   2.125   3.710
12529TIP3    H237545   8.092   2.082   3.617
12530TIP3   OH237546   0.058   2.263   6.403
12530TIP3    H137547   0.022   2.197   6.463
12530TIP3    H237548  -0.019   2.294   6.355
12531TIP3   OH237549   7.222   2.733   6.111
12531TIP3    H137550   7.144   2.784   6.129
12531TIP3    H237551   7.256   2.767   6.029
12532TIP3   OH237552   7.984   5.570   1.603
12532TIP3    H137553   7.974   5.661   1.577
12532TIP3    H237554   7.957   5.568   1.695
12533TIP3   OH237555   4.103   3.385   6.637
12533TIP3    H137556   4.157   3.454   6.599
12533TIP3    H237557   4.165   3.320   6.669
12534TIP3   OH237558   3.438   7.701   4.024
12534TIP3    H137559   3.522   7.743   4.005
12534TIP3    H237560   3.412   7.662   3.940
12535TIP3   OH237561   0.377   2.593   5.848
12535TIP3    H137562   0.399   2.666   5.790
12535TIP3    H237563   0.440   2.524   5.825
12536TIP3   OH237564   3.928   0.374   5.854
12536TIP3    H137565   3.988   0.316   5.807
12536TIP3    H237566   3.844   0.366   5.807
12537TIP3   OH237567   5.273   0.291   5.544
12537TIP3    H137568   5.322   0.297   5.626
12537TIP3    H237569   5.201   0.353   5.554
12538TIP3   OH237570   1.998   3.735   5.097
12538TIP3    H137571   2.048   3.677   5.155
12538TIP3    H237572   2.045   3.819   5.102
12539TIP3   OH237573   8.039   0.525   0.410
12539TIP3    H137574   8.102   0.533   0.338
12539TIP3    H237575   8.087   0.481   0.480
12540TIP3   OH237576   0.574   3.136   2.793
12540TIP3    H137577   0.514   3.209   2.808
12540TIP3    H237578   0.649   3.155   2.850
12541TIP3   OH237579   0.266   3.027   4.764
12541TIP3    H137580   0.201   2.966   4.728
12541TIP3    H237581   0.325   3.045   4.691
12542TIP3   OH237582   1.937   3.405   4.168
12542TIP3    H137583   1.969   3.492   4.144
12542TIP3    H237584   1.898   3.416   4.254
12543TIP3   OH237585   0.889   5.464   3.122
12543TIP3    H137586   0.850   5.447   3.036
12543TIP3    H237587   0.957   5.398   3.132
12544TIP3   OH237588   1.113   6.873   3.649
12544TIP3    H137589   1.024   6.880   3.615
12544TIP3    H237590   1.106   6.894   3.742
12545TIP3   OH237591   4.337   6.406   6.743
12545TIP3    H137592   4.418   6.363   6.716
12545TIP3    H237593   4.270   6.366   6.689
12546TIP3   OH237594   7.962   6.570   3.102
12546TIP3    H137595   8.039   6.593   3.050
12546TIP3    H237596   7.902   6.531   3.039
12547TIP3   OH237597   0.254   7.378   4.209
12547TIP3    H137598   0.179   7.346   4.259
12547TIP3    H237599   0.232   7.357   4.118
12548TIP3   OH237600   2.922   4.361   0.317
12548TIP3    H137601   2.827   4.367   0.317
12548TIP3    H237602   2.941   4.281   0.268
12549TIP3   OH237603   5.687   5.163   1.987
12549TIP3    H137604   5.592   5.175   1.997
12549TIP3    H237605   5.704   5.077   2.024
12550TIP3   OH237606   3.214   4.159   6.375
12550TIP3    H137607   3.238   4.244   6.339
12550TIP3    H237608   3.169   4.115   6.303
12551TIP3   OH237609   6.351   3.611   3.671
12551TIP3    H137610   6.441   3.634   3.696
12551TIP3    H237611   6.353   3.516   3.661
12552TIP3   OH237612   4.048   4.173   4.341
12552TIP3    H137613   4.131   4.134   4.314
12552TIP3    H237614   4.029   4.133   4.426
12553TIP3   OH237615   7.094   6.191   4.424
12553TIP3    H137616   7.159   6.130   4.391
12553TIP3    H237617   7.145   6.265   4.458
12554TIP3   OH237618   5.351   2.032   6.358
12554TIP3    H137619   5.339   2.126   6.345
12554TIP3    H237620   5.352   1.995   6.270
12555TIP3   OH237621   6.162   5.598   3.500
12555TIP3    H137622   6.154   5.614   3.406
12555TIP3    H237623   6.231   5.532   3.508
12556TIP3   OH237624   7.804   2.938   1.685
12556TIP3    H137625   7.890   2.938   1.725
12556TIP3    H237626   7.743   2.942   1.759
12557TIP3   OH237627   2.563   4.586   0.038
12557TIP3    H137628   2.520   4.666   0.009
12557TIP3    H237629   2.497   4.518   0.026
12558TIP3   OH237630   4.633   5.048   2.030
12558TIP3    H137631   4.604   5.139   2.020
12558TIP3    H237632   4.723   5.055   2.060
12559TIP3   OH237633   0.208   2.534   1.654
12559TIP3    H137634   0.213   2.579   1.570
12559TIP3    H237635   0.251   2.450   1.638
12560TIP3   OH237636   0.269   6.169   4.465
12560TIP3    H137637   0.257   6.097   4.403
12560TIP3    H237638   0.337   6.138   4.525
12561TIP3   OH237639   6.984   5.158   6.250
12561TIP3    H137640   7.021   5.245   6.262
12561TIP3    H237641   6.982   5.120   6.338
12562TIP3   OH237642   5.088   0.923   2.759
12562TIP3    H137643   5.136   0.841   2.748
12562TIP3    H237644   5.029   0.927   2.684
12563TIP3   OH237645   7.582   0.241   0.135
12563TIP3    H137646   7.563   0.301   0.206
12563TIP3    H237647   7.609   0.160   0.178
12564TIP3   OH237648   6.733   0.419   3.883
12564TIP3    H137649   6.779   0.488   3.930
12564TIP3    H237650   6.653   0.461   3.850
12565TIP3   OH237651   6.445   2.778   0.212
12565TIP3    H137652   6.393   2.836   0.268
12565TIP3    H237653   6.506   2.837   0.167
12566TIP3   OH237654   2.404   0.581   6.322
12566TIP3    H137655   2.442   0.501   6.286
12566TIP3    H237656   2.399   0.640   6.247
12567TIP3   OH237657   0.524   5.199   1.108
12567TIP3    H137658   0.514   5.141   1.033
12567TIP3    H237659   0.446   5.185   1.161
12568TIP3   OH237660   7.897   1.843   5.318
12568TIP3    H137661   7.930   1.921   5.363
12568TIP3    H237662   7.976   1.800   5.285
12569TIP3   OH237663   5.272   4.721   6.660
12569TIP3    H137664   5.264   4.790   6.726
12569TIP3    H237665   5.182   4.694   6.642
12570TIP3   OH237666   6.902   2.329   0.864
12570TIP3    H137667   6.950   2.318   0.782
12570TIP3    H237668   6.825   2.273   0.855
12571TIP3   OH237669   7.260   3.117   3.897
12571TIP3    H137670   7.292   3.085   3.981
12571TIP3    H237671   7.176   3.074   3.885
12572TIP3   OH237672   3.661   2.981   2.647
12572TIP3    H137673   3.640   2.947   2.560
12572TIP3    H237674   3.671   3.075   2.634
12573TIP3   OH237675   3.310   0.644   2.638
12573TIP3    H137676   3.221   0.614   2.622
12573TIP3    H237677   3.299   0.733   2.674
12574TIP3   OH237678   0.134   6.878   5.332
12574TIP3    H137679   0.210   6.837   5.293
12574TIP3    H237680   0.165   6.964   5.362
12575TIP3   OH237681   7.638   7.045   1.505
12575TIP3    H137682   7.589   7.112   1.458
12575TIP3    H237683   7.710   7.092   1.546
12576TIP3   OH237684   5.759   5.105   1.709
12576TIP3    H137685   5.746   5.112   1.804
12576TIP3    H237686   5.731   5.190   1.675
12577TIP3   OH237687   3.022   4.903   6.527
12577TIP3    H137688   3.091   4.851   6.485
12577TIP3    H237689   2.976   4.944   6.454
12578TIP3   OH237690   4.586   2.978   2.523
12578TIP3    H137691   4.678   2.975   2.497
12578TIP3    H237692   4.583   3.046   2.590
12579TIP3   OH237693   7.881   3.728   5.111
12579TIP3    H137694   7.800   3.736   5.162
12579TIP3    H237695   7.856   3.677   5.035
12580TIP3   OH237696   4.442   4.033   3.245
12580TIP3    H137697   4.471   3.998   3.329
12580TIP3    H237698   4.522   4.061   3.201
12581TIP3   OH237699   0.032   1.207   1.846
12581TIP3    H137700   0.007   1.200   1.754
12581TIP3    H237701   0.054   1.117   1.872
12582TIP3   OH237702   6.350   5.396   3.572
12582TIP3    H137703   6.385   5.337   3.505
12582TIP3    H237704   6.329   5.339   3.646
12583TIP3   OH237705   7.339   7.687   6.518
12583TIP3    H137706   7.428   7.665   6.493
12583TIP3    H237707   7.285   7.654   6.446
12584TIP3   OH237708   8.344   7.019   0.850
12584TIP3    H137709   8.285   6.951   0.883
12584TIP3    H237710   8.290   7.071   0.790
12585TIP3   OH237711   5.578   2.800   2.707
12585TIP3    H137712   5.599   2.851   2.628
12585TIP3    H237713   5.513   2.736   2.678
12586TIP3   OH237714   5.124   5.341   6.621
12586TIP3    H137715   5.040   5.320   6.661
12586TIP3    H237716   5.164   5.256   6.602
12587TIP3   OH237717   1.510   3.881   2.822
12587TIP3    H137718   1.562   3.953   2.787
12587TIP3    H237719   1.443   3.924   2.875
12588TIP3   OH237720   2.809   1.200   4.872
12588TIP3    H137721   2.728   1.242   4.846
12588TIP3    H237722   2.868   1.213   4.798
12589TIP3   OH237723   4.250   0.531   4.618
12589TIP3    H137724   4.317   0.516   4.552
12589TIP3    H237725   4.234   0.445   4.657
12590TIP3   OH237726   3.067   7.361   6.022
12590TIP3    H137727   3.085   7.437   5.967
12590TIP3    H237728   3.081   7.392   6.111
12591TIP3   OH237729   0.107   3.701   2.815
12591TIP3    H137730   0.108   3.634   2.747
12591TIP3    H237731   0.176   3.762   2.790
12592TIP3   OH237732   7.967   7.432   4.552
12592TIP3    H137733   8.033   7.425   4.482
12592TIP3    H237734   7.888   7.460   4.508
12593TIP3   OH237735   2.394   5.936   4.910
12593TIP3    H137736   2.484   5.965   4.902
12593TIP3    H237737   2.379   5.880   4.834
12594TIP3   OH237738   0.737   7.237   4.053
12594TIP3    H137739   0.710   7.154   4.012
12594TIP3    H237740   0.659   7.266   4.100
12595TIP3   OH237741   1.238   1.954   0.085
12595TIP3    H137742   1.291   1.949   0.006
12595TIP3    H237743   1.149   1.967   0.054
12596TIP3   OH237744   2.977   2.851   0.674
12596TIP3    H137745   2.933   2.935   0.686
12596TIP3    H237746   2.951   2.823   0.586
12597TIP3   OH237747   6.945   7.052   3.595
12597TIP3    H137748   7.026   7.002   3.604
12597TIP3    H237749   6.884   7.010   3.656
12598TIP3   OH237750   6.834   6.074   5.860
12598TIP3    H137751   6.902   6.140   5.845
12598TIP3    H237752   6.869   5.995   5.818
12599TIP3   OH237753   4.148   7.415   3.680
12599TIP3    H137754   4.057   7.437   3.698
12599TIP3    H237755   4.164   7.447   3.592
12600TIP3   OH237756   3.868   7.380   1.661
12600TIP3    H137757   3.890   7.333   1.741
12600TIP3    H237758   3.946   7.429   1.639
12601TIP3   OH237759   6.191   7.379   4.462
12601TIP3    H137760   6.249   7.346   4.531
12601TIP3    H237761   6.204   7.473   4.462
12602TIP3   OH237762   5.957   4.010   3.200
12602TIP3    H137763   6.045   4.037   3.171
12602TIP3    H237764   5.898   4.073   3.160
12603TIP3   OH237765   2.749   7.769   5.129
12603TIP3    H137766   2.725   7.848   5.176
12603TIP3    H237767   2.837   7.748   5.162
12604TIP3   OH237768   4.615   4.885   5.265
12604TIP3    H137769   4.612   4.803   5.315
12604TIP3    H237770   4.640   4.951   5.330
12605TIP3   OH237771   5.733   4.282   5.714
12605TIP3    H137772   5.655   4.269   5.767
12605TIP3    H237773   5.805   4.254   5.770
12606TIP3   OH237774   8.039   1.695   2.696
12606TIP3    H137775   8.132   1.683   2.710
12606TIP3    H237776   8.027   1.687   2.602
12607TIP3   OH237777   2.145   5.603   1.939
12607TIP3    H137778   2.071   5.610   1.878
12607TIP3    H237779   2.136   5.679   1.996
12608TIP3   OH237780   7.754   5.002   5.974
12608TIP3    H137781   7.759   4.984   6.068
12608TIP3    H237782   7.665   4.976   5.950
12609TIP3   OH237783   3.515   5.221   2.993
12609TIP3    H137784   3.422   5.210   2.974
12609TIP3    H237785   3.557   5.146   2.952
12610TIP3   OH237786   7.666   0.497   5.152
12610TIP3    H137787   7.734   0.526   5.091
12610TIP3    H237788   7.601   0.453   5.097
12611TIP3   OH237789   5.129   3.631   2.607
12611TIP3    H137790   5.212   3.585   2.620
12611TIP3    H237791   5.143   3.682   2.527
12612TIP3   OH237792   0.274   3.045   2.790
12612TIP3    H137793   0.285   3.028   2.883
12612TIP3    H237794   0.356   3.018   2.750
12613TIP3   OH237795   3.393   4.885   6.024
12613TIP3    H137796   3.329   4.821   5.992
12613TIP3    H237797   3.458   4.890   5.954
12614TIP3   OH237798   0.327   7.000   2.100
12614TIP3    H137799   0.422   7.003   2.110
12614TIP3    H237800   0.313   6.945   2.023
12615TIP3   OH237801   2.242   3.806   3.907
12615TIP3    H137802   2.313   3.831   3.849
12615TIP3    H237803   2.285   3.783   3.990
12616TIP3   OH237804   6.037   7.609   5.121
12616TIP3    H137805   6.127   7.585   5.103
12616TIP3    H237806   6.030   7.700   5.093
12617TIP3   OH237807   6.353   3.529   1.507
12617TIP3    H137808   6.278   3.478   1.475
12617TIP3    H237809   6.375   3.587   1.434
12618TIP3   OH237810   5.923   2.720   4.386
12618TIP3    H137811   5.878   2.740   4.304
12618TIP3    H237812   5.857   2.735   4.453
12619TIP3   OH237813   5.603   3.641   1.305
12619TIP3    H137814   5.684   3.614   1.348
12619TIP3    H237815   5.578   3.565   1.252
12620TIP3   OH237816   5.198   0.725   2.209
12620TIP3    H137817   5.204   0.761   2.298
12620TIP3    H237818   5.234   0.637   2.216
12621TIP3   OH237819   6.604   5.077   6.440
12621TIP3    H137820   6.665   5.132   6.489
12621TIP3    H237821   6.535   5.137   6.411
12622TIP3   OH237822   2.851   2.018   4.709
12622TIP3    H137823   2.825   2.038   4.619
12622TIP3    H237824   2.775   1.976   4.748
12623TIP3   OH237825   5.816   2.294   5.418
12623TIP3    H137826   5.814   2.281   5.512
12623TIP3    H237827   5.866   2.219   5.384
12624TIP3   OH237828   1.502   7.432   1.742
12624TIP3    H137829   1.488   7.467   1.655
12624TIP3    H237830   1.418   7.447   1.788
12625TIP3   OH237831   1.603   6.822   4.374
12625TIP3    H137832   1.575   6.732   4.356
12625TIP3    H237833   1.690   6.814   4.413
12626TIP3   OH237834   7.398   3.377   3.953
12626TIP3    H137835   7.331   3.309   3.950
12626TIP3    H237836   7.428   3.378   4.044
12627TIP3   OH237837   7.877   7.819   5.409
12627TIP3    H137838   7.795   7.864   5.424
12627TIP3    H237839   7.930   7.837   5.487
12628TIP3   OH237840   2.983   7.192   5.691
12628TIP3    H137841   2.908   7.137   5.714
12628TIP3    H237842   3.059   7.133   5.696
12629TIP3   OH237843   4.458   2.819   4.209
12629TIP3    H137844   4.413   2.798   4.127
12629TIP3    H237845   4.472   2.914   4.205
12630TIP3   OH237846   6.446   7.463   2.047
12630TIP3    H137847   6.502   7.392   2.014
12630TIP3    H237848   6.366   7.456   1.995
12631TIP3   OH237849   1.038   1.801   5.099
12631TIP3    H137850   1.033   1.790   5.194
12631TIP3    H237851   1.008   1.891   5.084
12632TIP3   OH237852   2.737   7.084   1.241
12632TIP3    H137853   2.756   7.102   1.333
12632TIP3    H237854   2.799   7.138   1.192
12633TIP3   OH237855   2.567   6.784   1.299
12633TIP3    H137856   2.498   6.851   1.296
12633TIP3    H237857   2.588   6.775   1.392
12634TIP3   OH237858   0.221   7.097   6.109
12634TIP3    H137859   0.190   7.014   6.071
12634TIP3    H237860   0.243   7.075   6.199
12635TIP3   OH237861   7.709   4.971   4.264
12635TIP3    H137862   7.725   5.057   4.226
12635TIP3    H237863   7.758   4.911   4.208
12636TIP3   OH237864   1.710   7.064   4.709
12636TIP3    H137865   1.731   7.141   4.656
12636TIP3    H237866   1.720   7.095   4.799
12637TIP3   OH237867   5.394   3.988   2.496
12637TIP3    H137868   5.399   4.082   2.478
12637TIP3    H237869   5.481   3.965   2.527
12638TIP3   OH237870   1.820   4.038   1.521
12638TIP3    H137871   1.881   4.010   1.588
12638TIP3    H237872   1.735   4.006   1.551
12639TIP3   OH237873   3.371   2.673   3.553
12639TIP3    H137874   3.403   2.756   3.516
12639TIP3    H237875   3.292   2.654   3.502
12640TIP3   OH237876   6.664   0.048   0.273
12640TIP3    H137877   6.601   0.035   0.344
12640TIP3    H237878   6.708   0.130   0.295
12641TIP3   OH237879   7.637   4.461   0.332
12641TIP3    H137880   7.725   4.501   0.335
12641TIP3    H237881   7.579   4.531   0.360
12642TIP3   OH237882   0.648   3.447   5.931
12642TIP3    H137883   0.643   3.447   5.835
12642TIP3    H237884   0.627   3.537   5.956
12643TIP3   OH237885   0.734   5.142   3.256
12643TIP3    H137886   0.799   5.112   3.319
12643TIP3    H237887   0.660   5.082   3.268
12644TIP3   OH237888   1.359   1.248   4.986
12644TIP3    H137889   1.310   1.281   5.061
12644TIP3    H237890   1.447   1.230   5.021
12645TIP3   OH237891   7.681   6.801   1.584
12645TIP3    H137892   7.670   6.890   1.550
12645TIP3    H237893   7.637   6.801   1.669
12646TIP3   OH237894   7.679   5.376   5.352
12646TIP3    H137895   7.731   5.389   5.272
12646TIP3    H237896   7.722   5.432   5.417
12647TIP3   OH237897   2.051   3.197   3.074
12647TIP3    H137898   2.032   3.183   3.167
12647TIP3    H237899   2.101   3.120   3.048
12648TIP3   OH237900   4.668   3.323   3.110
12648TIP3    H137901   4.592   3.264   3.112
12648TIP3    H237902   4.717   3.296   3.033
12649TIP3   OH237903   7.380   4.669   0.353
12649TIP3    H137904   7.376   4.765   0.350
12649TIP3    H237905   7.316   4.640   0.287
12650TIP3   OH237906   2.588   3.088   1.584
12650TIP3    H137907   2.532   3.160   1.615
12650TIP3    H237908   2.546   3.009   1.617
12651TIP3   OH237909   6.509   2.127   3.015
12651TIP3    H137910   6.452   2.088   2.948
12651TIP3    H237911   6.532   2.054   3.072
12652TIP3   OH237912   4.213   5.732   6.364
12652TIP3    H137913   4.303   5.724   6.335
12652TIP3    H237914   4.169   5.782   6.295
12653TIP3   OH237915   0.982   1.308   4.275
12653TIP3    H137916   1.058   1.256   4.302
12653TIP3    H237917   1.011   1.354   4.196
12654TIP3   OH237918   4.343   6.119   5.805
12654TIP3    H137919   4.346   6.095   5.897
12654TIP3    H237920   4.430   6.098   5.771
12655TIP3   OH237921   5.343   3.148   1.409
12655TIP3    H137922   5.259   3.192   1.404
12655TIP3    H237923   5.351   3.101   1.325
12656TIP3   OH237924   0.052   1.812   0.889
12656TIP3    H137925   0.044   1.896   0.845
12656TIP3    H237926   0.109   1.760   0.833
12657TIP3   OH237927   0.434   6.676   3.035
12657TIP3    H137928   0.408   6.739   3.102
12657TIP3    H237929   0.454   6.729   2.958
12658TIP3   OH237930   2.300   6.218   0.665
12658TIP3    H137931   2.310   6.270   0.744
12658TIP3    H237932   2.210   6.236   0.636
12659TIP3   OH237933   5.693   0.189   1.819
12659TIP3    H137934   5.769   0.236   1.785
12659TIP3    H237935   5.623   0.207   1.756
12660TIP3   OH237936   1.782   0.924   6.196
12660TIP3    H137937   1.788   0.895   6.105
12660TIP3    H237938   1.811   0.849   6.248
12661TIP3   OH237939   6.273   1.759   6.092
12661TIP3    H137940   6.300   1.849   6.077
12661TIP3    H237941   6.192   1.749   6.042
12662TIP3   OH237942   2.945   3.374   6.161
12662TIP3    H137943   2.878   3.395   6.226
12662TIP3    H237944   2.967   3.282   6.177
12663TIP3   OH237945   0.591   6.415   4.702
12663TIP3    H137946   0.681   6.402   4.675
12663TIP3    H237947   0.546   6.448   4.624
12664TIP3   OH237948   5.347   1.189   6.293
12664TIP3    H137949   5.422   1.217   6.346
12664TIP3    H237950   5.337   1.096   6.312
12665TIP3   OH237951   5.213   4.161   1.749
12665TIP3    H137952   5.265   4.233   1.714
12665TIP3    H237953   5.154   4.137   1.678
12666TIP3   OH237954   7.342   0.504   2.868
12666TIP3    H137955   7.392   0.557   2.806
12666TIP3    H237956   7.395   0.502   2.947
12667TIP3   OH237957   4.981   4.658   2.728
12667TIP3    H137958   4.902   4.670   2.781
12667TIP3    H237959   5.007   4.746   2.703
12668TIP3   OH237960   2.700   6.314   2.447
12668TIP3    H137961   2.786   6.352   2.428
12668TIP3    H237962   2.647   6.389   2.474
12669TIP3   OH237963   3.856   1.677   6.126
12669TIP3    H137964   3.768   1.639   6.118
12669TIP3    H237965   3.908   1.608   6.168
12670TIP3   OH237966   7.530   0.568   3.077
12670TIP3    H137967   7.502   0.582   3.168
12670TIP3    H237968   7.625   0.570   3.081
12671TIP3   OH237969   0.147   5.436   5.876
12671TIP3    H137970   0.090   5.391   5.813
12671TIP3    H237971   0.114   5.526   5.878
12672TIP3   OH237972   6.322   6.608   1.789
12672TIP3    H137973   6.301   6.635   1.700
12672TIP3    H237974   6.307   6.687   1.842
12673TIP3   OH237975   0.565   4.523   1.622
12673TIP3    H137976   0.647   4.516   1.671
12673TIP3    H237977   0.590   4.560   1.538
12674TIP3   OH237978   6.214   2.024   0.219
12674TIP3    H137979   6.172   2.030   0.133
12674TIP3    H237980   6.283   2.091   0.217
12675TIP3   OH237981   1.937   1.561   3.046
12675TIP3    H137982   1.896   1.576   3.131
12675TIP3    H237983   1.937   1.646   3.003
12676TIP3   OH237984   1.898   5.695   1.176
12676TIP3    H137985   1.914   5.605   1.205
12676TIP3    H237986   1.848   5.686   1.095
12677TIP3   OH237987   3.917   3.017   5.450
12677TIP3    H137988   3.845   2.957   5.468
12677TIP3    H237989   3.979   2.966   5.399
12678TIP3   OH237990   0.403   4.525   0.274
12678TIP3    H137991   0.433   4.539   0.364
12678TIP3    H237992   0.462   4.457   0.240
12679TIP3   OH237993   5.955   3.510   6.686
12679TIP3    H137994   5.861   3.496   6.695
12679TIP3    H237995   5.965   3.565   6.609
12680TIP3   OH237996   5.772   3.986   0.540
12680TIP3    H137997   5.851   3.935   0.519
12680TIP3    H237998   5.710   3.963   0.470
12681TIP3   OH237999   4.272   5.187   6.151
12681TIP3    H138000   4.249   5.176   6.058
12681TIP3    H238001   4.320   5.269   6.154
12682TIP3   OH238002   6.583   4.223   4.275
12682TIP3    H138003   6.490   4.230   4.257
12682TIP3    H238004   6.619   4.308   4.247
12683TIP3   OH238005   1.506   5.640   0.701
12683TIP3    H138006   1.510   5.644   0.606
12683TIP3    H238007   1.597   5.634   0.729
12684TIP3   OH238008   4.377   7.009   1.588
12684TIP3    H138009   4.341   6.930   1.629
12684TIP3    H238010   4.338   7.011   1.501
12685TIP3   OH238011   0.510   3.296   0.564
12685TIP3    H138012   0.499   3.307   0.659
12685TIP3    H238013   0.552   3.378   0.536
12686TIP3   OH238014   0.459   3.654   2.850
12686TIP3    H138015   0.538   3.678   2.899
12686TIP3    H238016   0.487   3.650   2.759
12687TIP3   OH238017   1.337   7.660   4.840
12687TIP3    H138018   1.416   7.713   4.832
12687TIP3    H238019   1.369   7.569   4.837
12688TIP3   OH238020   8.239   0.453   0.652
12688TIP3    H138021   8.287   0.454   0.735
12688TIP3    H238022   8.154   0.491   0.673
12689TIP3   OH238023   3.593   1.601   6.423
12689TIP3    H138024   3.671   1.617   6.476
12689TIP3    H238025   3.545   1.534   6.472
12690TIP3   OH238026   4.107   7.339   4.870
12690TIP3    H138027   4.130   7.432   4.871
12690TIP3    H238028   4.079   7.323   4.780
12691TIP3   OH238029   4.287   0.427   0.142
12691TIP3    H138030   4.262   0.505   0.093
12691TIP3    H238031   4.371   0.401   0.103
12692TIP3   OH238032   1.163   6.533   0.534
12692TIP3    H138033   1.185   6.606   0.591
12692TIP3    H238034   1.178   6.455   0.587
12693TIP3   OH238035   2.055   6.409   0.285
12693TIP3    H138036   2.137   6.362   0.301
12693TIP3    H238037   1.993   6.340   0.260
12694TIP3   OH238038   5.510   4.467   2.050
12694TIP3    H138039   5.424   4.440   2.082
12694TIP3    H238040   5.542   4.391   2.002
12695TIP3   OH238041   6.913   7.442   0.097
12695TIP3    H138042   6.974   7.506   0.059
12695TIP3    H238043   6.874   7.399   0.021
12696TIP3   OH238044   0.533   5.315   2.321
12696TIP3    H138045   0.442   5.289   2.303
12696TIP3    H238046   0.585   5.239   2.296
12697TIP3   OH238047   7.640   2.057   6.630
12697TIP3    H138048   7.615   2.015   6.548
12697TIP3    H238049   7.618   1.993   6.698
12698TIP3   OH238050   2.408   5.352   3.141
12698TIP3    H138051   2.396   5.390   3.054
12698TIP3    H238052   2.425   5.427   3.198
12699TIP3   OH238053   3.805   7.496   4.055
12699TIP3    H138054   3.756   7.578   4.066
12699TIP3    H238055   3.863   7.513   3.980
12700TIP3   OH238056   3.838   3.959   5.628
12700TIP3    H138057   3.843   3.864   5.621
12700TIP3    H238058   3.902   3.981   5.697
12701TIP3   OH238059   5.545   1.552   0.906
12701TIP3    H138060   5.528   1.539   0.999
12701TIP3    H238061   5.639   1.533   0.897
12702TIP3   OH238062   2.254   1.114   5.065
12702TIP3    H138063   2.178   1.072   5.024
12702TIP3    H238064   2.261   1.198   5.021
12703TIP3   OH238065   1.068   1.930   5.885
12703TIP3    H138066   1.039   1.904   5.972
12703TIP3    H238067   1.105   2.017   5.897
12704TIP3   OH238068   5.393   7.107   0.894
12704TIP3    H138069   5.391   7.012   0.890
12704TIP3    H238070   5.340   7.135   0.819
12705TIP3   OH238071   2.738   4.653   5.991
12705TIP3    H138072   2.751   4.560   6.009
12705TIP3    H238073   2.802   4.673   5.922
12706TIP3   OH238074   0.594   5.080   6.618
12706TIP3    H138075   0.586   5.174   6.636
12706TIP3    H238076   0.507   5.055   6.587
12707TIP3   OH238077   6.286   1.830   2.012
12707TIP3    H138078   6.324   1.764   1.954
12707TIP3    H238079   6.218   1.872   1.960
12708TIP3   OH238080   5.643   2.036   0.382
12708TIP3    H138081   5.719   2.093   0.392
12708TIP3    H238082   5.588   2.057   0.458
12709TIP3   OH238083   4.136   4.630   4.904
12709TIP3    H138084   4.094   4.685   4.837
12709TIP3    H238085   4.197   4.575   4.855
12710TIP3   OH238086   5.003   7.482   0.225
12710TIP3    H138087   5.026   7.555   0.283
12710TIP3    H238088   5.077   7.421   0.233
12711TIP3   OH238089   2.459   5.560   3.346
12711TIP3    H138090   2.467   5.546   3.440
12711TIP3    H238091   2.464   5.655   3.336
12712TIP3   OH238092   5.562   4.720   5.448
12712TIP3    H138093   5.544   4.687   5.360
12712TIP3    H238094   5.602   4.646   5.494
12713TIP3   OH238095   0.462   0.952   1.432
12713TIP3    H138096   0.411   0.955   1.513
12713TIP3    H238097   0.539   1.005   1.450
12714TIP3   OH238098   6.734   5.568   2.963
12714TIP3    H138099   6.658   5.627   2.970
12714TIP3    H238100   6.780   5.598   2.884
12715TIP3   OH238101   7.225   5.437   4.001
12715TIP3    H138102   7.219   5.532   4.011
12715TIP3    H238103   7.212   5.402   4.089
12716TIP3   OH238104   6.144   2.749   4.659
12716TIP3    H138105   6.232   2.740   4.696
12716TIP3    H238106   6.151   2.715   4.570
12717TIP3   OH238107   8.265   4.967   0.820
12717TIP3    H138108   8.305   5.020   0.888
12717TIP3    H238109   8.338   4.937   0.765
12718TIP3   OH238110   6.101   2.160   1.162
12718TIP3    H138111   6.041   2.096   1.201
12718TIP3    H238112   6.047   2.237   1.146
12719TIP3   OH238113   4.263   1.286   1.751
12719TIP3    H138114   4.176   1.321   1.768
12719TIP3    H238115   4.291   1.249   1.834
12720TIP3   OH238116   5.057   4.882   3.968
12720TIP3    H138117   5.066   4.906   3.876
12720TIP3    H238118   5.028   4.791   3.966
12721TIP3   OH238119   1.053   6.591   6.229
12721TIP3    H138120   1.115   6.608   6.158
12721TIP3    H238121   1.101   6.614   6.309
12722TIP3   OH238122   3.346   0.584   5.360
12722TIP3    H138123   3.388   0.499   5.372
12722TIP3    H238124   3.317   0.585   5.269
12723TIP3   OH238125   1.453   6.712   6.568
12723TIP3    H138126   1.360   6.719   6.546
12723TIP3    H238127   1.496   6.777   6.513
12724TIP3   OH238128   7.360   2.378   5.415
12724TIP3    H138129   7.328   2.318   5.348
12724TIP3    H238130   7.453   2.355   5.425
12725TIP3   OH238131   7.522   1.024   6.224
12725TIP3    H138132   7.491   0.991   6.308
12725TIP3    H238133   7.617   1.014   6.227
12726TIP3   OH238134   4.292   2.184   2.014
12726TIP3    H138135   4.201   2.192   1.987
12726TIP3    H238136   4.342   2.191   1.933
12727TIP3   OH238137   2.145   4.761   5.808
12727TIP3    H138138   2.075   4.696   5.817
12727TIP3    H238139   2.115   4.818   5.737
12728TIP3   OH238140   3.052   7.436   1.993
12728TIP3    H138141   3.037   7.351   2.034
12728TIP3    H238142   3.147   7.446   1.994
12729TIP3   OH238143   5.230   7.808   0.928
12729TIP3    H138144   5.244   7.729   0.981
12729TIP3    H238145   5.215   7.878   0.992
12730TIP3   OH238146   4.333   6.735   0.528
12730TIP3    H138147   4.279   6.664   0.492
12730TIP3    H238148   4.320   6.808   0.467
12731TIP3   OH238149   5.048   6.730   4.133
12731TIP3    H138150   5.128   6.743   4.083
12731TIP3    H238151   5.012   6.648   4.100
12732TIP3   OH238152   7.645   1.055   6.695
12732TIP3    H138153   7.644   1.008   6.779
12732TIP3    H238154   7.737   1.055   6.669
12733TIP3   OH238155   1.622   5.414   3.763
12733TIP3    H138156   1.605   5.380   3.851
12733TIP3    H238157   1.579   5.500   3.762
12734TIP3   OH238158   5.598   2.700   5.724
12734TIP3    H138159   5.601   2.795   5.714
12734TIP3    H238160   5.649   2.682   5.803
12735TIP3   OH238161   5.724   3.505   2.337
12735TIP3    H138162   5.815   3.477   2.336
12735TIP3    H238163   5.676   3.428   2.369
12736TIP3   OH238164   0.554   6.560   4.934
12736TIP3    H138165   0.578   6.517   4.851
12736TIP3    H238166   0.573   6.652   4.920
12737TIP3   OH238167   6.680   1.718   1.887
12737TIP3    H138168   6.668   1.805   1.848
12737TIP3    H238169   6.658   1.731   1.979
12738TIP3   OH238170   3.707   4.520   3.713
12738TIP3    H138171   3.792   4.486   3.686
12738TIP3    H238172   3.676   4.569   3.636
12739TIP3   OH238173   5.918   7.236   2.133
12739TIP3    H138174   5.874   7.298   2.192
12739TIP3    H238175   5.856   7.222   2.062
12740TIP3   OH238176   3.942   1.980   1.113
12740TIP3    H138177   3.993   1.906   1.147
12740TIP3    H238178   3.939   1.966   1.019
12741TIP3   OH238179   4.166   4.733   1.968
12741TIP3    H138180   4.102   4.758   2.035
12741TIP3    H238181   4.165   4.637   1.968
12742TIP3   OH238182   6.036   2.622   5.704
12742TIP3    H138183   5.960   2.591   5.655
12742TIP3    H238184   6.103   2.555   5.689
12743TIP3   OH238185   1.315   5.149   4.194
12743TIP3    H138186   1.346   5.222   4.141
12743TIP3    H238187   1.304   5.077   4.132
12744TIP3   OH238188   7.059   4.381   3.592
12744TIP3    H138189   7.060   4.355   3.500
12744TIP3    H238190   7.017   4.307   3.637
12745TIP3   OH238191   7.219   7.267   6.660
12745TIP3    H138192   7.284   7.202   6.632
12745TIP3    H238193   7.136   7.219   6.658
12746TIP3   OH238194   7.048   4.691   2.540
12746TIP3    H138195   7.113   4.626   2.514
12746TIP3    H238196   7.003   4.652   2.614
12747TIP3   OH238197   0.831   6.207   3.651
12747TIP3    H138198   0.769   6.275   3.675
12747TIP3    H238199   0.857   6.168   3.735
12748TIP3   OH238200   4.914   6.664   0.367
12748TIP3    H138201   4.971   6.711   0.428
12748TIP3    H238202   4.927   6.708   0.283
12749TIP3   OH238203   2.640   7.309   3.577
12749TIP3    H138204   2.722   7.344   3.612
12749TIP3    H238205   2.637   7.340   3.487
12750TIP3   OH238206   6.685   2.334   1.866
12750TIP3    H138207   6.608   2.374   1.825
12750TIP3    H238208   6.759   2.388   1.836
12751TIP3   OH238209   0.278   1.282   0.441
12751TIP3    H138210   0.275   1.348   0.373
12751TIP3    H238211   0.262   1.330   0.522
12752TIP3   OH238212   0.954   4.079   4.486
12752TIP3    H138213   0.976   4.162   4.527
12752TIP3    H238214   1.028   4.022   4.507
12753TIP3   OH238215   6.491   4.805   5.910
12753TIP3    H138216   6.451   4.747   5.976
12753TIP3    H238217   6.428   4.806   5.838
12754TIP3   OH238218   4.743   4.021   5.767
12754TIP3    H138219   4.809   4.088   5.753
12754TIP3    H238220   4.721   3.989   5.679
12755TIP3   OH238221   5.664   7.588   6.018
12755TIP3    H138222   5.605   7.591   5.943
12755TIP3    H238223   5.713   7.507   6.007
12756TIP3   OH238224   4.408   5.772   5.364
12756TIP3    H138225   4.353   5.722   5.304
12756TIP3    H238226   4.438   5.847   5.312
12757TIP3   OH238227   3.161   5.861   4.730
12757TIP3    H138228   3.153   5.789   4.667
12757TIP3    H238229   3.097   5.926   4.702
12758TIP3   OH238230   7.899   1.597   4.962
12758TIP3    H138231   7.951   1.517   4.973
12758TIP3    H238232   7.808   1.568   4.970
12759TIP3   OH238233   7.671   2.261   4.166
12759TIP3    H138234   7.706   2.346   4.140
12759TIP3    H238235   7.739   2.224   4.222
12760TIP3   OH238236   2.670   5.362   0.791
12760TIP3    H138237   2.638   5.281   0.752
12760TIP3    H238238   2.764   5.347   0.806
12761TIP3   OH238239   7.352   4.666   1.119
12761TIP3    H138240   7.334   4.637   1.030
12761TIP3    H238241   7.435   4.624   1.142
12762TIP3   OH238242   2.994   3.419   5.082
12762TIP3    H138243   3.057   3.480   5.120
12762TIP3    H238244   2.936   3.396   5.154
12763TIP3   OH238245   7.334   1.341   3.649
12763TIP3    H138246   7.408   1.342   3.588
12763TIP3    H238247   7.366   1.388   3.726
12764TIP3   OH238248   2.998   4.719   4.008
12764TIP3    H138249   2.969   4.791   3.951
12764TIP3    H238250   2.917   4.689   4.050
12765TIP3   OH238251   4.435   2.507   2.752
12765TIP3    H138252   4.496   2.566   2.708
12765TIP3    H238253   4.418   2.438   2.687
12766TIP3   OH238254   6.029   0.750   0.608
12766TIP3    H138255   6.062   0.726   0.695
12766TIP3    H238256   6.002   0.841   0.617
12767TIP3   OH238257   5.892   6.773   3.653
12767TIP3    H138258   5.961   6.767   3.718
12767TIP3    H238259   5.918   6.712   3.584
12768TIP3   OH238260   1.052   1.452   5.936
12768TIP3    H138261   1.034   1.358   5.938
12768TIP3    H238262   1.091   1.471   6.021
12769TIP3   OH238263   7.427   6.075   1.847
12769TIP3    H138264   7.419   6.167   1.871
12769TIP3    H238265   7.485   6.075   1.771
12770TIP3   OH238266   8.166   5.961   3.547
12770TIP3    H138267   8.098   5.969   3.480
12770TIP3    H238268   8.232   5.905   3.507
12771TIP3   OH238269   6.803   6.300   5.642
12771TIP3    H138270   6.720   6.259   5.666
12771TIP3    H238271   6.820   6.270   5.553
12772TIP3   OH238272   7.428   0.007   6.653
12772TIP3    H138273   7.482  -0.054   6.603
12772TIP3    H238274   7.490   0.072   6.686
12773TIP3   OH238275   0.858   2.972   6.117
12773TIP3    H138276   0.762   2.972   6.124
12773TIP3    H238277   0.880   3.064   6.102
12774TIP3   OH238278   5.399   0.131   5.321
12774TIP3    H138279   5.388   0.170   5.408
12774TIP3    H238280   5.332   0.173   5.268
12775TIP3   OH238281   6.561   6.372   4.759
12775TIP3    H138282   6.553   6.374   4.664
12775TIP3    H238283   6.568   6.279   4.781
12776TIP3   OH238284   7.964   7.236   4.723
12776TIP3    H138285   7.994   7.158   4.677
12776TIP3    H238286   7.963   7.305   4.657
12777TIP3   OH238287   3.555   6.750   4.755
12777TIP3    H138288   3.514   6.794   4.830
12777TIP3    H238289   3.634   6.710   4.792
12778TIP3   OH238290   5.599   4.376   4.313
12778TIP3    H138291   5.535   4.409   4.376
12778TIP3    H238292   5.682   4.374   4.361
12779TIP3   OH238293   0.337   6.420   4.022
12779TIP3    H138294   0.242   6.429   4.032
12779TIP3    H238295   0.355   6.330   4.049
12780TIP3   OH238296   2.852   5.790   3.321
12780TIP3    H138297   2.803   5.745   3.389
12780TIP3    H238298   2.857   5.881   3.351
12781TIP3   OH238299   4.407   3.589   4.012
12781TIP3    H138300   4.332   3.531   4.026
12781TIP3    H238301   4.418   3.591   3.917
12782TIP3   OH238302   6.748   5.609   1.974
12782TIP3    H138303   6.729   5.700   1.998
12782TIP3    H238304   6.837   5.612   1.940
12783TIP3   OH238305   7.016   4.882   1.977
12783TIP3    H138306   7.030   4.857   2.068
12783TIP3    H238307   7.030   4.977   1.975
12784TIP3   OH238308   4.483   3.920   4.394
12784TIP3    H138309   4.533   3.874   4.461
12784TIP3    H238310   4.488   4.012   4.419
12785TIP3   OH238311   0.156   1.205   0.167
12785TIP3    H138312   0.251   1.197   0.158
12785TIP3    H238313   0.140   1.299   0.177
12786TIP3   OH238314   0.742   1.548   0.808
12786TIP3    H138315   0.703   1.481   0.865
12786TIP3    H238316   0.695   1.628   0.829
12787TIP3   OH238317   7.901   2.486   2.919
12787TIP3    H138318   7.956   2.562   2.938
12787TIP3    H238319   7.901   2.479   2.823
12788TIP3   OH238320   6.759   3.222   4.089
12788TIP3    H138321   6.674   3.179   4.088
12788TIP3    H238322   6.814   3.165   4.144
12789TIP3   OH238323   8.017   6.085   2.482
12789TIP3    H138324   8.054   6.155   2.536
12789TIP3    H238325   7.925   6.110   2.469
12790TIP3   OH238326   3.736   5.333   6.585
12790TIP3    H138327   3.712   5.250   6.543
12790TIP3    H238328   3.815   5.361   6.540
12791TIP3   OH238329   5.545   0.680   1.736
12791TIP3    H138330   5.458   0.661   1.701
12791TIP3    H238331   5.605   0.652   1.667
12792TIP3   OH238332   6.760   5.350   2.613
12792TIP3    H138333   6.736   5.258   2.627
12792TIP3    H238334   6.697   5.382   2.549
12793TIP3   OH238335   6.143   0.898   4.079
12793TIP3    H138336   6.158   0.913   3.986
12793TIP3    H238337   6.103   0.811   4.083
12794TIP3   OH238338   6.515   4.969   1.785
12794TIP3    H138339   6.540   4.894   1.731
12794TIP3    H238340   6.559   5.044   1.745
12795TIP3   OH238341   7.283   1.373   4.917
12795TIP3    H138342   7.234   1.438   4.967
12795TIP3    H238343   7.283   1.295   4.973
12796TIP3   OH238344   6.761   4.560   0.574
12796TIP3    H138345   6.851   4.592   0.569
12796TIP3    H238346   6.723   4.609   0.647
12797TIP3   OH238347   4.945   5.375   1.656
12797TIP3    H138348   4.970   5.331   1.737
12797TIP3    H238349   4.943   5.304   1.590
12798TIP3   OH238350   3.537   1.880   3.718
12798TIP3    H138351   3.557   1.945   3.651
12798TIP3    H238352   3.550   1.926   3.801
12799TIP3   OH238353   2.131   2.949   0.331
12799TIP3    H138354   2.082   3.031   0.324
12799TIP3    H238355   2.136   2.917   0.241
12800TIP3   OH238356   7.389   5.431   0.538
12800TIP3    H138357   7.484   5.420   0.550
12800TIP3    H238358   7.363   5.490   0.609
12801TIP3   OH238359   2.803   3.149   1.029
12801TIP3    H138360   2.719   3.192   1.047
12801TIP3    H238361   2.791   3.107   0.944
12802TIP3   OH238362   5.970   1.777   1.825
12802TIP3    H138363   6.048   1.829   1.806
12802TIP3    H238364   5.934   1.816   1.905
12803TIP3   OH238365   5.898   6.243   2.617
12803TIP3    H138366   5.829   6.207   2.562
12803TIP3    H238367   5.857   6.253   2.703
12804TIP3   OH238368   2.078   5.522   4.670
12804TIP3    H138369   2.081   5.427   4.668
12804TIP3    H238370   2.074   5.544   4.763
12805TIP3   OH238371   4.215   2.085   4.433
12805TIP3    H138372   4.138   2.141   4.429
12805TIP3    H238373   4.235   2.078   4.526
12806TIP3   OH238374   4.882   6.275   6.235
12806TIP3    H138375   4.832   6.303   6.159
12806TIP3    H238376   4.931   6.198   6.205
12807TIP3   OH238377   7.287   6.937   4.024
12807TIP3    H138378   7.258   6.965   4.111
12807TIP3    H238379   7.382   6.947   4.026
12808TIP3   OH238380   7.084   1.733   3.555
12808TIP3    H138381   7.052   1.644   3.540
12808TIP3    H238382   7.106   1.735   3.648
12809TIP3   OH238383   3.485   3.488   2.984
12809TIP3    H138384   3.489   3.393   2.995
12809TIP3    H238385   3.448   3.520   3.067
12810TIP3   OH238386   6.279   7.158   5.789
12810TIP3    H138387   6.223   7.120   5.856
12810TIP3    H238388   6.315   7.082   5.743
12811TIP3   OH238389   7.073   6.526   6.220
12811TIP3    H138390   7.159   6.499   6.250
12811TIP3    H238391   7.079   6.621   6.209
12812TIP3   OH238392   1.551   0.330   4.248
12812TIP3    H138393   1.470   0.279   4.256
12812TIP3    H238394   1.548   0.367   4.160
12813TIP3   OH238395   5.805   3.566   5.958
12813TIP3    H138396   5.851   3.585   6.040
12813TIP3    H238397   5.753   3.488   5.978
12814TIP3   OH238398   0.081   6.229   2.230
12814TIP3    H138399   0.092   6.241   2.136
12814TIP3    H238400  -0.014   6.225   2.243
12815TIP3   OH238401   7.918   1.185   4.075
12815TIP3    H138402   7.999   1.194   4.026
12815TIP3    H238403   7.944   1.185   4.167
12816TIP3   OH238404   3.586   6.903   5.081
12816TIP3    H138405   3.646   6.977   5.089
12816TIP3    H238406   3.625   6.834   5.134
12817TIP3   OH238407   0.718   1.714   2.529
12817TIP3    H138408   0.678   1.659   2.461
12817TIP3    H238409   0.731   1.655   2.603
12818TIP3   OH238410   5.108   5.980   0.639
12818TIP3    H138411   5.175   5.913   0.627
12818TIP3    H238412   5.064   5.955   0.720
12819TIP3   OH238413   0.157   0.565   0.513
12819TIP3    H138414   0.129   0.630   0.448
12819TIP3    H238415   0.079   0.512   0.528
12820TIP3   OH238416   3.885   0.306   1.966
12820TIP3    H138417   3.926   0.364   1.901
12820TIP3    H238418   3.954   0.243   1.987
12821TIP3   OH238419   1.414   5.698   3.179
12821TIP3    H138420   1.321   5.713   3.198
12821TIP3    H238421   1.428   5.741   3.095
12822TIP3   OH238422   8.091   6.184   0.411
12822TIP3    H138423   8.072   6.164   0.503
12822TIP3    H238424   8.089   6.280   0.407
12823TIP3   OH238425   2.046   2.963   2.566
12823TIP3    H138426   1.990   2.896   2.604
12823TIP3    H238427   1.986   3.029   2.532
12824TIP3   OH238428   0.145   5.465   0.726
12824TIP3    H138429   0.097   5.492   0.648
12824TIP3    H238430   0.143   5.369   0.724
12825TIP3   OH238431   4.392   5.175   3.205
12825TIP3    H138432   4.397   5.257   3.156
12825TIP3    H238433   4.476   5.133   3.192
12826TIP3   OH238434  -0.022   2.321   5.726
12826TIP3    H138435  -0.023   2.352   5.635
12826TIP3    H238436  -0.002   2.227   5.719
12827TIP3   OH238437   6.579   4.407   0.417
12827TIP3    H138438   6.627   4.442   0.492
12827TIP3    H238439   6.638   4.343   0.379
12828TIP3   OH238440   3.312   0.251   0.642
12828TIP3    H138441   3.309   0.305   0.563
12828TIP3    H238442   3.284   0.164   0.612
12829TIP3   OH238443   1.233   6.163   5.989
12829TIP3    H138444   1.147   6.129   5.966
12829TIP3    H238445   1.223   6.258   5.984
12830TIP3   OH238446   2.012   5.265   0.526
12830TIP3    H138447   1.942   5.273   0.462
12830TIP3    H238448   1.985   5.193   0.583
12831TIP3   OH238449   0.414   3.567   5.784
12831TIP3    H138450   0.424   3.529   5.697
12831TIP3    H238451   0.498   3.610   5.802
12832TIP3   OH238452   0.116   4.505   4.287
12832TIP3    H138453   0.075   4.429   4.247
12832TIP3    H238454   0.191   4.525   4.231
12833TIP3   OH238455   4.432   1.506   2.461
12833TIP3    H138456   4.448   1.599   2.475
12833TIP3    H238457   4.390   1.501   2.375
12834TIP3   OH238458   7.185   7.069   5.043
12834TIP3    H138459   7.176   7.022   4.960
12834TIP3    H238460   7.274   7.104   5.041
12835TIP3   OH238461   2.042   3.569   6.055
12835TIP3    H138462   2.017   3.525   6.136
12835TIP3    H238463   2.084   3.650   6.084
12836TIP3   OH238464   3.841   0.823   4.228
12836TIP3    H138465   3.842   0.766   4.152
12836TIP3    H238466   3.748   0.828   4.254
12837TIP3   OH238467   8.005   5.186   0.510
12837TIP3    H138468   7.998   5.164   0.417
12837TIP3    H238469   7.915   5.187   0.541
12838TIP3   OH238470   4.560   4.345   0.680
12838TIP3    H138471   4.647   4.324   0.644
12838TIP3    H238472   4.547   4.437   0.658
12839TIP3   OH238473   4.569   2.609   4.556
12839TIP3    H138474   4.651   2.590   4.602
12839TIP3    H238475   4.581   2.698   4.522
12840TIP3   OH238476   5.016   7.259   2.869
12840TIP3    H138477   5.076   7.189   2.843
12840TIP3    H238478   4.993   7.302   2.787
12841TIP3   OH238479   4.663   7.235   6.587
12841TIP3    H138480   4.603   7.309   6.582
12841TIP3    H238481   4.649   7.198   6.674
12842TIP3   OH238482   2.810   0.543   1.331
12842TIP3    H138483   2.790   0.630   1.365
12842TIP3    H238484   2.856   0.559   1.249
12843TIP3   OH238485   2.239   0.651   0.457
12843TIP3    H138486   2.249   0.594   0.533
12843TIP3    H238487   2.145   0.669   0.454
12844TIP3   OH238488   7.633   6.267   3.422
12844TIP3    H138489   7.697   6.231   3.484
12844TIP3    H238490   7.559   6.206   3.427
12845TIP3   OH238491   7.056   0.061   1.470
12845TIP3    H138492   7.061   0.029   1.380
12845TIP3    H238493   7.088   0.151   1.466
12846TIP3   OH238494   1.800   2.969   0.099
12846TIP3    H138495   1.789   2.876   0.119
12846TIP3    H238496   1.851   2.971   0.018
12847TIP3   OH238497   7.872   2.245   3.685
12847TIP3    H138498   7.832   2.272   3.602
12847TIP3    H238499   7.798   2.228   3.743
12848TIP3   OH238500   1.778   1.974   4.177
12848TIP3    H138501   1.707   1.938   4.123
12848TIP3    H238502   1.854   1.976   4.118
12849TIP3   OH238503   2.402   7.525   1.406
12849TIP3    H138504   2.400   7.459   1.475
12849TIP3    H238505   2.493   7.552   1.401
12850TIP3   OH238506   3.725   7.767   4.102
12850TIP3    H138507   3.730   7.862   4.116
12850TIP3    H238508   3.806   7.732   4.139
12851TIP3   OH238509   4.218   7.011   5.318
12851TIP3    H138510   4.134   6.969   5.336
12851TIP3    H238511   4.201   7.068   5.243
12852TIP3   OH238512   1.586   6.426   3.192
12852TIP3    H138513   1.624   6.352   3.146
12852TIP3    H238514   1.517   6.458   3.134
12853TIP3   OH238515   4.347   5.420   6.748
12853TIP3    H138516   4.319   5.341   6.794
12853TIP3    H238517   4.266   5.465   6.724
12854TIP3   OH238518   8.232   7.615   4.491
12854TIP3    H138519   8.184   7.562   4.427
12854TIP3    H238520   8.227   7.704   4.457
12855TIP3   OH238521   6.101   7.419   5.307
12855TIP3    H138522   6.127   7.510   5.290
12855TIP3    H238523   6.178   7.378   5.346
12856TIP3   OH238524   3.120   6.154   2.816
12856TIP3    H138525   3.037   6.197   2.832
12856TIP3    H238526   3.102   6.092   2.746
12857TIP3   OH238527   5.872   2.797   0.133
12857TIP3    H138528   5.893   2.713   0.173
12857TIP3    H238529   5.778   2.808   0.149
12858TIP3   OH238530   0.850   7.472   2.748
12858TIP3    H138531   0.813   7.418   2.678
12858TIP3    H238532   0.774   7.512   2.790
12859TIP3   OH238533   1.962   5.852   3.546
12859TIP3    H138534   1.930   5.865   3.636
12859TIP3    H238535   1.977   5.940   3.512
12860TIP3   OH238536   2.077   5.599   4.964
12860TIP3    H138537   2.093   5.536   5.034
12860TIP3    H238538   2.164   5.636   4.945
12861TIP3   OH238539   3.530   6.809   3.051
12861TIP3    H138540   3.610   6.844   3.090
12861TIP3    H238541   3.463   6.874   3.072
12862TIP3   OH238542   3.394   3.273   6.144
12862TIP3    H138543   3.327   3.320   6.095
12862TIP3    H238544   3.460   3.250   6.079
12863TIP3   OH238545   5.184   1.697   6.553
12863TIP3    H138546   5.089   1.686   6.542
12863TIP3    H238547   5.193   1.768   6.616
12864TIP3   OH238548   5.907   4.536   6.263
12864TIP3    H138549   5.935   4.605   6.323
12864TIP3    H238550   5.923   4.454   6.310
12865TIP3   OH238551   6.502   4.313   6.211
12865TIP3    H138552   6.474   4.404   6.216
12865TIP3    H238553   6.429   4.267   6.168
12866TIP3   OH238554   5.280   4.388   2.135
12866TIP3    H138555   5.226   4.416   2.209
12866TIP3    H238556   5.234   4.311   2.100
12867TIP3   OH238557   2.420   2.717   1.921
12867TIP3    H138558   2.445   2.769   1.997
12867TIP3    H238559   2.480   2.642   1.923
12868TIP3   OH238560   3.452   5.004   3.286
12868TIP3    H138561   3.536   5.049   3.292
12868TIP3    H238562   3.441   4.985   3.193
12869TIP3   OH238563   2.233   5.379   1.493
12869TIP3    H138564   2.211   5.469   1.470
12869TIP3    H238565   2.149   5.338   1.515
12870TIP3   OH238566   4.158   5.727   2.943
12870TIP3    H138567   4.140   5.746   2.851
12870TIP3    H238568   4.231   5.784   2.965
12871TIP3   OH238569   6.721   3.768   0.677
12871TIP3    H138570   6.639   3.760   0.627
12871TIP3    H238571   6.763   3.683   0.667
12872TIP3   OH238572   3.710   4.449   2.539
12872TIP3    H138573   3.789   4.481   2.496
12872TIP3    H238574   3.732   4.359   2.565
12873TIP3   OH238575   3.166   5.455   4.750
12873TIP3    H138576   3.139   5.523   4.689
12873TIP3    H238577   3.134   5.485   4.835
12874TIP3   OH238578   6.120   4.112   5.184
12874TIP3    H138579   6.063   4.042   5.152
12874TIP3    H238580   6.125   4.097   5.278
12875TIP3   OH238581   5.017   4.599   0.337
12875TIP3    H138582   5.028   4.677   0.391
12875TIP3    H238583   4.973   4.631   0.257
12876TIP3   OH238584   2.073   4.457   5.572
12876TIP3    H138585   2.079   4.495   5.484
12876TIP3    H238586   1.991   4.407   5.571
12877TIP3   OH238587   2.727   6.736   2.237
12877TIP3    H138588   2.756   6.716   2.148
12877TIP3    H238589   2.786   6.806   2.266
12878TIP3   OH238590   8.179   1.414   5.233
12878TIP3    H138591   8.253   1.439   5.178
12878TIP3    H238592   8.108   1.396   5.171
12879TIP3   OH238593   1.960   1.426   2.260
12879TIP3    H138594   2.000   1.512   2.264
12879TIP3    H238595   2.028   1.369   2.222
12880TIP3   OH238596   0.111   0.091   5.794
12880TIP3    H138597   0.171   0.060   5.862
12880TIP3    H238598   0.056   0.155   5.838
12881TIP3   OH238599   1.389   7.782   3.459
12881TIP3    H138600   1.313   7.788   3.400
12881TIP3    H238601   1.464   7.806   3.404
12882TIP3   OH238602   6.263   4.637   2.770
12882TIP3    H138603   6.346   4.672   2.805
12882TIP3    H238604   6.255   4.676   2.683
12883TIP3   OH238605   5.815   7.682   1.063
12883TIP3    H138606   5.751   7.732   1.011
12883TIP3    H238607   5.885   7.661   1.001
12884TIP3   OH238608   7.428   6.094   5.617
12884TIP3    H138609   7.421   6.012   5.665
12884TIP3    H238610   7.362   6.151   5.656
12885TIP3   OH238611   4.026   3.323   5.506
12885TIP3    H138612   3.953   3.384   5.501
12885TIP3    H238613   4.049   3.321   5.599
12886TIP3   OH238614   0.474   6.789   1.067
12886TIP3    H138615   0.485   6.883   1.082
12886TIP3    H238616   0.530   6.748   1.133
12887TIP3   OH238617   0.651   0.986   5.401
12887TIP3    H138618   0.696   0.903   5.383
12887TIP3    H238619   0.587   0.994   5.331
12888TIP3   OH238620   5.562   0.019   2.006
12888TIP3    H138621   5.497   0.087   2.019
12888TIP3    H238622   5.604   0.042   1.923
12889TIP3   OH238623   7.764   2.502   4.036
12889TIP3    H138624   7.841   2.470   3.990
12889TIP3    H238625   7.702   2.524   3.965
12890TIP3   OH238626   1.662   7.625   2.566
12890TIP3    H138627   1.719   7.694   2.599
12890TIP3    H238628   1.573   7.656   2.585
12891TIP3   OH238629   5.768   2.379   5.928
12891TIP3    H138630   5.750   2.471   5.949
12891TIP3    H238631   5.795   2.341   6.012
12892TIP3   OH238632   3.253   0.007   4.772
12892TIP3    H138633   3.251   0.049   4.858
12892TIP3    H238634   3.181   0.048   4.724
12893TIP3   OH238635   0.702   5.085   5.577
12893TIP3    H138636   0.622   5.033   5.579
12893TIP3    H238637   0.734   5.085   5.667
12894TIP3   OH238638   4.064   1.791   4.488
12894TIP3    H138639   4.025   1.835   4.412
12894TIP3    H238640   4.048   1.852   4.561
12895TIP3   OH238641   3.784   2.742   3.538
12895TIP3    H138642   3.770   2.754   3.632
12895TIP3    H238643   3.879   2.735   3.528
12896TIP3   OH238644   8.289   3.848   4.480
12896TIP3    H138645   8.301   3.808   4.567
12896TIP3    H238646   8.196   3.835   4.461
12897TIP3   OH238647   7.175   1.933   0.066
12897TIP3    H138648   7.100   1.971   0.020
12897TIP3    H238649   7.197   1.997   0.133
12898TIP3   OH238650   0.933   0.214   5.393
12898TIP3    H138651   0.878   0.155   5.445
12898TIP3    H238652   1.001   0.157   5.357
12899TIP3   OH238653   3.856   6.473   6.125
12899TIP3    H138654   3.891   6.510   6.206
12899TIP3    H238655   3.850   6.379   6.142
12900TIP3   OH238656   8.271   7.266   0.332
12900TIP3    H138657   8.266   7.267   0.236
12900TIP3    H238658   8.198   7.211   0.360
12901TIP3   OH238659   6.922   3.032   4.778
12901TIP3    H138660   6.846   3.074   4.817
12901TIP3    H238661   6.960   3.100   4.721
12902TIP3   OH238662   3.160   5.643   4.553
12902TIP3    H138663   3.136   5.577   4.488
12902TIP3    H238664   3.236   5.687   4.515
12903TIP3   OH238665   7.768   3.535   4.414
12903TIP3    H138666   7.683   3.553   4.374
12903TIP3    H238667   7.752   3.462   4.474
12904TIP3   OH238668   4.558   3.199   5.231
12904TIP3    H138669   4.622   3.254   5.185
12904TIP3    H238670   4.504   3.162   5.162
12905TIP3   OH238671   6.195   3.261   2.370
12905TIP3    H138672   6.197   3.255   2.275
12905TIP3    H238673   6.212   3.172   2.400
12906TIP3   OH238674   1.738   6.194   6.513
12906TIP3    H138675   1.745   6.266   6.449
12906TIP3    H238676   1.773   6.231   6.594
12907TIP3   OH238677   0.345   6.444   5.957
12907TIP3    H138678   0.423   6.486   5.920
12907TIP3    H238679   0.371   6.419   6.046
12908TIP3   OH238680   0.989   5.101   1.802
12908TIP3    H138681   1.031   5.035   1.747
12908TIP3    H238682   1.063   5.148   1.842
12909TIP3   OH238683   7.771   5.617   1.046
12909TIP3    H138684   7.770   5.553   0.975
12909TIP3    H238685   7.824   5.575   1.114
12910TIP3   OH238686   0.098   7.056   3.034
12910TIP3    H138687   0.018   7.059   3.087
12910TIP3    H238688   0.080   6.989   2.968
12911TIP3   OH238689   5.897   4.162   2.416
12911TIP3    H138690   5.940   4.247   2.405
12911TIP3    H238691   5.831   4.178   2.484
12912TIP3   OH238692   6.090   3.254   0.685
12912TIP3    H138693   6.177   3.277   0.717
12912TIP3    H238694   6.100   3.248   0.590
12913TIP3   OH238695   2.868   1.209   5.144
12913TIP3    H138696   2.805   1.227   5.214
12913TIP3    H238697   2.815   1.194   5.066
12914TIP3   OH238698   3.908   6.667   5.087
12914TIP3    H138699   3.858   6.652   5.007
12914TIP3    H238700   3.853   6.631   5.156
12915TIP3   OH238701   5.633   3.001   3.343
12915TIP3    H138702   5.693   3.039   3.408
12915TIP3    H238703   5.581   3.076   3.312
12916TIP3   OH238704   2.279   2.114   6.119
12916TIP3    H138705   2.345   2.151   6.177
12916TIP3    H238706   2.214   2.184   6.108
12917TIP3   OH238707   7.039   4.083   3.019
12917TIP3    H138708   6.978   4.038   3.076
12917TIP3    H238709   7.125   4.049   3.044
12918TIP3   OH238710   5.854   3.025   4.679
12918TIP3    H138711   5.816   2.942   4.649
12918TIP3    H238712   5.860   3.016   4.774
12919TIP3   OH238713   3.261   0.269   6.077
12919TIP3    H138714   3.356   0.266   6.062
12919TIP3    H238715   3.237   0.179   6.096
12920TIP3   OH238716   1.756   1.144   6.524
12920TIP3    H138717   1.747   1.062   6.573
12920TIP3    H238718   1.714   1.210   6.579
12921TIP3   OH238719   3.018   0.099   5.105
12921TIP3    H138720   3.088   0.109   5.170
12921TIP3    H238721   2.937   0.103   5.156
12922TIP3   OH238722   4.934   6.834   2.537
12922TIP3    H138723   4.949   6.928   2.535
12922TIP3    H238724   4.985   6.799   2.464
12923TIP3   OH238725   5.376   2.019   1.996
12923TIP3    H138726   5.367   2.012   2.091
12923TIP3    H238727   5.318   1.952   1.961
12924TIP3   OH238728   0.233   5.867   0.894
12924TIP3    H138729   0.310   5.845   0.946
12924TIP3    H238730   0.223   5.962   0.905
12925TIP3   OH238731   2.403   5.772   5.965
12925TIP3    H138732   2.413   5.866   5.982
12925TIP3    H238733   2.478   5.731   6.009
12926TIP3   OH238734   3.712   1.919   4.862
12926TIP3    H138735   3.799   1.879   4.866
12926TIP3    H238736   3.710   1.964   4.778
12927TIP3   OH238737   0.553   2.559   2.817
12927TIP3    H138738   0.638   2.528   2.850
12927TIP3    H238739   0.522   2.488   2.760
12928TIP3   OH238740   3.837   4.298   6.543
12928TIP3    H138741   3.828   4.373   6.484
12928TIP3    H238742   3.883   4.232   6.491
12929TIP3   OH238743   4.746   2.609   3.016
12929TIP3    H138744   4.673   2.642   3.069
12929TIP3    H238745   4.710   2.603   2.927
12930TIP3   OH238746   7.489   7.419   5.578
12930TIP3    H138747   7.539   7.490   5.537
12930TIP3    H238748   7.539   7.340   5.559
12931TIP3   OH238749   7.417   6.464   0.751
12931TIP3    H138750   7.499   6.458   0.701
12931TIP3    H238751   7.381   6.375   0.747
12932TIP3   OH238752   6.773   3.296   3.516
12932TIP3    H138753   6.750   3.249   3.436
12932TIP3    H238754   6.865   3.272   3.532
12933TIP3   OH238755   6.304   0.362   3.565
12933TIP3    H138756   6.373   0.396   3.508
12933TIP3    H238757   6.343   0.365   3.653
12934TIP3   OH238758   2.393   7.514   6.755
12934TIP3    H138759   2.484   7.534   6.775
12934TIP3    H238760   2.396   7.470   6.670
12935TIP3   OH238761   4.113   5.563   6.677
12935TIP3    H138762   4.067   5.539   6.597
12935TIP3    H238763   4.149   5.650   6.659
12936TIP3   OH238764   3.654   0.427   5.158
12936TIP3    H138765   3.693   0.379   5.085
12936TIP3    H238766   3.668   0.519   5.136
12937TIP3   OH238767   3.345   3.017   2.375
12937TIP3    H138768   3.291   3.006   2.297
12937TIP3    H238769   3.293   2.978   2.446
12938TIP3   OH238770   0.607   4.124   3.657
12938TIP3    H138771   0.697   4.098   3.675
12938TIP3    H238772   0.610   4.219   3.653
12939TIP3   OH238773   7.798   4.623   2.023
12939TIP3    H138774   7.762   4.640   1.936
12939TIP3    H238775   7.782   4.704   2.071
12940TIP3   OH238776   0.410   0.464   6.010
12940TIP3    H138777   0.435   0.387   5.959
12940TIP3    H238778   0.462   0.457   6.090
12941TIP3   OH238779   4.677   3.760   4.539
12941TIP3    H138780   4.727   3.841   4.555
12941TIP3    H238781   4.669   3.719   4.625
12942TIP3   OH238782   7.393   5.258   0.089
12942TIP3    H138783   7.331   5.277   0.160
12942TIP3    H238784   7.478   5.285   0.124
12943TIP3   OH238785   7.354   3.035   5.503
12943TIP3    H138786   7.424   2.980   5.469
12943TIP3    H238787   7.395   3.087   5.572
12944TIP3   OH238788   6.958   5.188   0.197
12944TIP3    H138789   6.998   5.108   0.162
12944TIP3    H238790   6.980   5.255   0.132
12945TIP3   OH238791   6.453   1.176   0.943
12945TIP3    H138792   6.512   1.198   1.015
12945TIP3    H238793   6.367   1.209   0.971
12946TIP3   OH238794   1.306   3.979   4.942
12946TIP3    H138795   1.395   3.988   4.974
12946TIP3    H238796   1.251   3.993   5.019
12947TIP3   OH238797   0.396   7.567   2.181
12947TIP3    H138798   0.487   7.571   2.211
12947TIP3    H238799   0.403   7.563   2.085
12948TIP3   OH238800   0.805   3.225   5.237
12948TIP3    H138801   0.737   3.162   5.259
12948TIP3    H238802   0.874   3.211   5.302
12949TIP3   OH238803   0.131   5.374   1.115
12949TIP3    H138804   0.069   5.398   1.184
12949TIP3    H238805   0.108   5.431   1.042
12950TIP3   OH238806   7.403   7.829   3.335
12950TIP3    H138807   7.330   7.769   3.350
12950TIP3    H238808   7.480   7.773   3.330
12951TIP3   OH238809   0.557   3.374   5.348
12951TIP3    H138810   0.508   3.398   5.269
12951TIP3    H238811   0.572   3.280   5.339
12952TIP3   OH238812   4.425   2.187   4.254
12952TIP3    H138813   4.372   2.135   4.315
12952TIP3    H238814   4.368   2.260   4.230
12953TIP3   OH238815   3.896   5.161   4.922
12953TIP3    H138816   3.808   5.145   4.887
12953TIP3    H238817   3.915   5.252   4.898
12954TIP3   OH238818   1.368   7.044   0.841
12954TIP3    H138819   1.311   7.087   0.905
12954TIP3    H238820   1.393   7.113   0.780
12955TIP3   OH238821   6.107   4.603   1.649
12955TIP3    H138822   6.108   4.546   1.573
12955TIP3    H238823   6.067   4.684   1.618
12956TIP3   OH238824   3.409   1.459   4.111
12956TIP3    H138825   3.496   1.484   4.077
12956TIP3    H238826   3.426   1.435   4.202
12957TIP3   OH238827   2.379   4.027   4.506
12957TIP3    H138828   2.419   4.108   4.537
12957TIP3    H238829   2.316   4.055   4.440
12958TIP3   OH238830   6.980   7.492   0.373
12958TIP3    H138831   7.032   7.572   0.364
12958TIP3    H238832   6.935   7.484   0.289
12959TIP3   OH238833   7.152   4.167   4.194
12959TIP3    H138834   7.204   4.108   4.141
12959TIP3    H238835   7.215   4.209   4.253
12960TIP3   OH238836   5.451   4.276   4.679
12960TIP3    H138837   5.529   4.222   4.688
12960TIP3    H238838   5.483   4.360   4.647
12961TIP3   OH238839   1.009   3.779   4.501
12961TIP3    H138840   1.099   3.752   4.483
12961TIP3    H238841   0.955   3.721   4.448
12962TIP3   OH238842   5.941   4.027   5.487
12962TIP3    H138843   6.035   4.037   5.470
12962TIP3    H238844   5.934   4.029   5.583
12963TIP3   OH238845   4.286   0.126   1.797
12963TIP3    H138846   4.305   0.193   1.730
12963TIP3    H238847   4.357   0.063   1.787
12964TIP3   OH238848   2.576   4.102   0.946
12964TIP3    H138849   2.511   4.032   0.953
12964TIP3    H238850   2.524   4.182   0.930
12965TIP3   OH238851   4.683   1.750   5.992
12965TIP3    H138852   4.745   1.727   5.922
12965TIP3    H238853   4.729   1.728   6.072
12966TIP3   OH238854   3.766   3.615   2.940
12966TIP3    H138855   3.765   3.521   2.957
12966TIP3    H238856   3.695   3.628   2.877
12967TIP3   OH238857   4.428   4.005   3.928
12967TIP3    H138858   4.388   3.956   4.000
12967TIP3    H238859   4.519   4.018   3.955
12968TIP3   OH238860   2.322   4.155   6.301
12968TIP3    H138861   2.285   4.136   6.215
12968TIP3    H238862   2.341   4.249   6.299
12969TIP3   OH238863   1.342   2.744   4.999
12969TIP3    H138864   1.251   2.716   5.004
12969TIP3    H238865   1.343   2.804   4.924
12970TIP3   OH238866   1.449   2.853   6.676
12970TIP3    H138867   1.402   2.852   6.593
12970TIP3    H238868   1.524   2.910   6.661
12971TIP3   OH238869   8.056   4.791   2.686
12971TIP3    H138870   8.122   4.860   2.677
12971TIP3    H238871   8.080   4.746   2.767
12972TIP3   OH238872   3.809   3.058   0.127
12972TIP3    H138873   3.830   3.122   0.194
12972TIP3    H238874   3.746   3.102   0.069
12973TIP3   OH238875   3.331   1.803   0.055
12973TIP3    H138876   3.239   1.775   0.054
12973TIP3    H238877   3.379   1.726   0.084
12974TIP3   OH238878   1.467   5.584   0.150
12974TIP3    H138879   1.400   5.516   0.144
12974TIP3    H238880   1.465   5.627   0.064
12975TIP3   OH238881   5.661   5.908   2.025
12975TIP3    H138882   5.724   5.962   2.073
12975TIP3    H238883   5.708   5.878   1.947
12976TIP3   OH238884   8.106   2.037   5.144
12976TIP3    H138885   8.051   2.115   5.137
12976TIP3    H238886   8.067   1.974   5.083
12977TIP3   OH238887   7.356   2.628   4.852
12977TIP3    H138888   7.367   2.583   4.935
12977TIP3    H238889   7.423   2.589   4.795
12978TIP3   OH238890   2.241   4.854   4.730
12978TIP3    H138891   2.329   4.848   4.693
12978TIP3    H238892   2.193   4.780   4.691
12979TIP3   OH238893   7.325   4.823   6.091
12979TIP3    H138894   7.254   4.765   6.064
12979TIP3    H238895   7.326   4.817   6.186
12980TIP3   OH238896   4.777   0.983   0.608
12980TIP3    H138897   4.792   0.904   0.660
12980TIP3    H238898   4.795   1.055   0.668
12981TIP3   OH238899   0.416   6.141   5.741
12981TIP3    H138900   0.480   6.173   5.804
12981TIP3    H238901   0.379   6.221   5.702
12982TIP3   OH238902   6.707   3.535   3.124
12982TIP3    H138903   6.669   3.450   3.147
12982TIP3    H238904   6.643   3.575   3.066
12983TIP3   OH238905   4.023   3.107   6.449
12983TIP3    H138906   4.111   3.100   6.412
12983TIP3    H238907   4.037   3.145   6.536
12984TIP3   OH238908   5.680   3.892   3.118
12984TIP3    H138909   5.654   3.859   3.204
12984TIP3    H238910   5.677   3.815   3.061
12985TIP3   OH238911   6.684   3.476   1.907
12985TIP3    H138912   6.589   3.460   1.910
12985TIP3    H238913   6.699   3.507   1.818
12986TIP3   OH238914   4.423   5.859   1.877
12986TIP3    H138915   4.424   5.865   1.972
12986TIP3    H238916   4.332   5.838   1.855
12987TIP3   OH238917   3.469   7.802   1.913
12987TIP3    H138918   3.560   7.774   1.910
12987TIP3    H238919   3.423   7.741   1.854
12988TIP3   OH238920   5.638   2.209   0.076
12988TIP3    H138921   5.617   2.121   0.046
12988TIP3    H238922   5.572   2.228   0.143
12989TIP3   OH238923   0.177   6.496   4.346
12989TIP3    H138924   0.145   6.420   4.298
12989TIP3    H238925   0.126   6.497   4.427
12990TIP3   OH238926   0.552   1.254   1.784
12990TIP3    H138927   0.621   1.255   1.851
12990TIP3    H238928   0.521   1.164   1.784
12991TIP3   OH238929   3.542   2.886   2.150
12991TIP3    H138930   3.447   2.876   2.154
12991TIP3    H238931   3.556   2.946   2.076
12992TIP3   OH238932   6.697   6.444   4.058
12992TIP3    H138933   6.646   6.378   4.104
12992TIP3    H238934   6.638   6.475   3.989
12993TIP3   OH238935   4.640   5.638   1.367
12993TIP3    H138936   4.562   5.586   1.348
12993TIP3    H238937   4.666   5.612   1.455
12994TIP3   OH238938   3.687   7.598   4.959
12994TIP3    H138939   3.608   7.552   4.932
12994TIP3    H238940   3.656   7.681   4.994
12995TIP3   OH238941   2.577   3.497   5.402
12995TIP3    H138942   2.628   3.469   5.479
12995TIP3    H238943   2.589   3.592   5.400
12996TIP3   OH238944   8.074   1.463   3.843
12996TIP3    H138945   8.135   1.483   3.915
12996TIP3    H238946   7.989   1.491   3.875
12997TIP3   OH238947   7.748   2.343   1.996
12997TIP3    H138948   7.842   2.326   2.003
12997TIP3    H238949   7.742   2.438   1.988
12998TIP3   OH238950   7.898   4.147   6.406
12998TIP3    H138951   7.824   4.110   6.358
12998TIP3    H238952   7.954   4.072   6.426
12999TIP3   OH238953   2.299   7.333   2.215
12999TIP3    H138954   2.332   7.250   2.180
12999TIP3    H238955   2.213   7.344   2.175
13000TIP3   OH238956   5.078   0.320   2.352
13000TIP3    H138957   4.992   0.306   2.312
13000TIP3    H238958   5.065   0.395   2.410
13001TIP3   OH238959   4.226   0.738   2.748
13001TIP3    H138960   4.137   0.716   2.774
13001TIP3    H238961   4.269   0.764   2.830
13002TIP3   OH238962   0.995   1.803   4.320
13002TIP3    H138963   1.029   1.863   4.387
13002TIP3    H238964   1.066   1.741   4.305
13003TIP3   OH238965   7.336   1.973   3.393
13003TIP3    H138966   7.392   1.906   3.431
13003TIP3    H238967   7.247   1.939   3.403
13004TIP3   OH238968   4.145   7.448   1.009
13004TIP3    H138969   4.070   7.497   0.976
13004TIP3    H238970   4.203   7.439   0.933
13005TIP3   OH238971   5.274   3.468   5.109
13005TIP3    H138972   5.202   3.407   5.095
13005TIP3    H238973   5.305   3.450   5.197
13006TIP3   OH238974   4.182   2.482   3.113
13006TIP3    H138975   4.158   2.526   3.195
13006TIP3    H238976   4.099   2.459   3.072
13007TIP3   OH238977   5.919   3.147   0.854
13007TIP3    H138978   5.981   3.107   0.915
13007TIP3    H238979   5.973   3.169   0.777
13008TIP3   OH238980   3.546  -0.036  -0.016
13008TIP3    H138981   3.523  -0.032   0.077
13008TIP3    H238982   3.472   0.005  -0.061
13009TIP3   OH238983   7.499   0.310   0.948
13009TIP3    H138984   7.522   0.227   0.906
13009TIP3    H238985   7.475   0.368   0.876
13010TIP3   OH238986   2.229   1.575   6.642
13010TIP3    H138987   2.276   1.493   6.626
13010TIP3    H238988   2.258   1.603   6.729
13011TIP3   OH238989   0.771   4.158   1.317
13011TIP3    H138990   0.689   4.189   1.277
13011TIP3    H238991   0.756   4.065   1.332
13012TIP3   OH238992   2.450   2.459   2.705
13012TIP3    H138993   2.505   2.485   2.631
13012TIP3    H238994   2.401   2.538   2.727
13013TIP3   OH238995   0.753   1.557   3.443
13013TIP3    H138996   0.807   1.623   3.400
13013TIP3    H238997   0.749   1.586   3.534
13014TIP3   OH238998   5.049   1.303   6.049
13014TIP3    H138999   5.026   1.222   6.095
13014TIP3    H239000   4.972   1.324   5.997
13015TIP3   OH239001   2.084   6.131   3.889
13015TIP3    H139002   2.162   6.126   3.835
13015TIP3    H239003   2.116   6.143   3.978
13016TIP3   OH239004   5.118   1.048   3.088
13016TIP3    H139005   5.062   0.974   3.111
13016TIP3    H239006   5.204   1.008   3.071
13017TIP3   OH239007   5.852   3.533   3.662
13017TIP3    H139008   5.868   3.535   3.568
13017TIP3    H239009   5.852   3.440   3.685
13018TIP3   OH239010   1.957   2.604   4.955
13018TIP3    H139011   1.982   2.695   4.939
13018TIP3    H239012   2.039   2.557   4.964
13019TIP3   OH239013   3.464   1.136   6.343
13019TIP3    H139014   3.435   1.166   6.257
13019TIP3    H239015   3.478   1.042   6.332
13020TIP3   OH239016   4.544   4.486   5.941
13020TIP3    H139017   4.564   4.433   6.018
13020TIP3    H239018   4.572   4.432   5.867
13021TIP3   OH239019   7.047   6.325   6.029
13021TIP3    H139020   6.990   6.372   5.967
13021TIP3    H239021   7.065   6.389   6.098
13022TIP3   OH239022   6.873   2.181   4.065
13022TIP3    H139023   6.810   2.193   3.994
13022TIP3    H239024   6.876   2.266   4.109
13023TIP3   OH239025   7.412   2.782   0.156
13023TIP3    H139026   7.435   2.859   0.105
13023TIP3    H239027   7.321   2.763   0.132
13024TIP3   OH239028   0.745   2.268   0.400
13024TIP3    H139029   0.752   2.332   0.471
13024TIP3    H239030   0.688   2.200   0.435
13025TIP3   OH239031   6.790   2.876   2.686
13025TIP3    H139032   6.794   2.970   2.668
13025TIP3    H239033   6.723   2.867   2.753
13026TIP3   OH239034   6.286   4.682   4.805
13026TIP3    H139035   6.273   4.742   4.732
13026TIP3    H239036   6.299   4.738   4.881
13027TIP3   OH239037   3.406   6.566   5.225
13027TIP3    H139038   3.446   6.484   5.252
13027TIP3    H239039   3.462   6.634   5.263
13028TIP3   OH239040   0.745   7.253   6.602
13028TIP3    H139041   0.837   7.280   6.600
13028TIP3    H239042   0.731   7.210   6.517
13029TIP3   OH239043   1.460   3.981   3.789
13029TIP3    H139044   1.456   3.991   3.694
13029TIP3    H239045   1.481   3.888   3.802
13030TIP3   OH239046   4.814   1.255   0.440
13030TIP3    H139047   4.806   1.174   0.490
13030TIP3    H239048   4.828   1.323   0.505
13031TIP3   OH239049   3.884   6.315   3.491
13031TIP3    H139050   3.798   6.290   3.455
13031TIP3    H239051   3.926   6.232   3.513
13032TIP3   OH239052   0.120   6.324   1.956
13032TIP3    H139053   0.104   6.418   1.946
13032TIP3    H239054   0.205   6.309   1.916
13033TIP3   OH239055   7.547   7.682   5.485
13033TIP3    H139056   7.459   7.687   5.448
13033TIP3    H239057   7.538   7.721   5.572
13034TIP3   OH239058   4.957   2.807   6.428
13034TIP3    H139059   4.895   2.830   6.359
13034TIP3    H239060   4.943   2.713   6.443
13035TIP3   OH239061   6.315   2.594   1.071
13035TIP3    H139062   6.339   2.587   1.163
13035TIP3    H239063   6.224   2.567   1.068
13036TIP3   OH239064   7.275   6.998   6.536
13036TIP3    H139065   7.308   6.997   6.446
13036TIP3    H239066   7.201   6.937   6.536
13037TIP3   OH239067   5.676   6.903   0.418
13037TIP3    H139068   5.710   6.842   0.483
13037TIP3    H239069   5.604   6.948   0.462
13038TIP3   OH239070   4.947   0.871   1.385
13038TIP3    H139071   4.899   0.806   1.333
13038TIP3    H239072   4.880   0.929   1.419
13039TIP3   OH239073   6.569   2.980   4.064
13039TIP3    H139074   6.543   3.039   3.993
13039TIP3    H239075   6.499   2.989   4.129
13040TIP3   OH239076   1.338   6.386   6.276
13040TIP3    H139077   1.270   6.370   6.342
13040TIP3    H239078   1.301   6.453   6.219
13041TIP3   OH239079   2.060   5.946   2.995
13041TIP3    H139080   2.096   5.878   3.052
13041TIP3    H239081   2.033   6.016   3.055
13042TIP3   OH239082   2.654   0.680   3.799
13042TIP3    H139083   2.670   0.597   3.754
13042TIP3    H239084   2.692   0.668   3.886
13043TIP3   OH239085   3.280   3.296   3.451
13043TIP3    H139086   3.376   3.291   3.447
13043TIP3    H239087   3.255   3.224   3.508
13044TIP3   OH239088   6.509   1.660   0.266
13044TIP3    H139089   6.529   1.656   0.359
13044TIP3    H239090   6.578   1.608   0.224
13045TIP3   OH239091   8.167   0.649   3.336
13045TIP3    H139092   8.211   0.649   3.421
13045TIP3    H239093   8.227   0.696   3.278
13046TIP3   OH239094   3.578   5.452   0.330
13046TIP3    H139095   3.495   5.434   0.285
13046TIP3    H239096   3.636   5.482   0.260
13047TIP3   OH239097   3.721   7.746   5.622
13047TIP3    H139098   3.629   7.747   5.647
13047TIP3    H239099   3.741   7.837   5.598
13048TIP3   OH239100   1.860   1.910   4.482
13048TIP3    H139101   1.804   1.875   4.551
13048TIP3    H239102   1.801   1.958   4.424
13049TIP3   OH239103   4.323   4.477   4.522
13049TIP3    H139104   4.251   4.508   4.467
13049TIP3    H239105   4.402   4.504   4.475
13050TIP3   OH239106   0.621   7.127   1.667
13050TIP3    H139107   0.679   7.079   1.608
13050TIP3    H239108   0.660   7.214   1.673
13051TIP3   OH239109   0.327   5.889   4.356
13051TIP3    H139110   0.318   5.837   4.276
13051TIP3    H239111   0.289   5.835   4.424
13052TIP3   OH239112   0.008   1.313   4.575
13052TIP3    H139113   0.033   1.375   4.506
13052TIP3    H239114   0.089   1.269   4.598
13053TIP3   OH239115   5.740   7.414   0.943
13053TIP3    H139116   5.782   7.446   1.022
13053TIP3    H239117   5.788   7.457   0.872
13054TIP3   OH239118   2.309   2.274   6.455
13054TIP3    H139119   2.229   2.249   6.411
13054TIP3    H239120   2.378   2.227   6.409
13055TIP3   OH239121   1.906   5.017   3.436
13055TIP3    H139122   1.846   5.090   3.453
13055TIP3    H239123   1.848   4.943   3.420
13056TIP3   OH239124   2.249   1.117   0.773
13056TIP3    H139125   2.302   1.155   0.703
13056TIP3    H239126   2.207   1.041   0.734
13057TIP3   OH239127   1.874   7.342   2.322
13057TIP3    H139128   1.874   7.249   2.346
13057TIP3    H239129   1.889   7.388   2.404
13058TIP3   OH239130   1.375   4.539   5.893
13058TIP3    H139131   1.373   4.599   5.818
13058TIP3    H239132   1.346   4.455   5.857
13059TIP3   OH239133   5.088   2.564   3.727
13059TIP3    H139134   5.149   2.511   3.676
13059TIP3    H239135   5.034   2.500   3.774
13060TIP3   OH239136   1.283   5.376   0.156
13060TIP3    H139137   1.278   5.308   0.089
13060TIP3    H239138   1.300   5.329   0.238
13061TIP3   OH239139   0.186   3.732   1.243
13061TIP3    H139140   0.157   3.682   1.166
13061TIP3    H239141   0.183   3.823   1.215
13062TIP3   OH239142   2.469   2.455   1.345
13062TIP3    H139143   2.547   2.470   1.399
13062TIP3    H239144   2.447   2.363   1.361
13063TIP3   OH239145   3.987   7.447   3.194
13063TIP3    H139146   4.016   7.390   3.122
13063TIP3    H239147   3.923   7.394   3.242
13064TIP3   OH239148   1.587   1.718   0.565
13064TIP3    H139149   1.540   1.765   0.634
13064TIP3    H239150   1.519   1.685   0.506
13065TIP3   OH239151   4.107   2.919   6.206
13065TIP3    H139152   4.076   2.886   6.290
13065TIP3    H239153   4.194   2.879   6.195
13066TIP3   OH239154   1.778   6.040   5.223
13066TIP3    H139155   1.768   5.972   5.291
13066TIP3    H239156   1.842   6.003   5.162
13067TIP3   OH239157   4.519   2.706   3.155
13067TIP3    H139158   4.482   2.766   3.090
13067TIP3    H239159   4.489   2.619   3.128
13068TIP3   OH239160   4.413   0.379   4.815
13068TIP3    H139161   4.460   0.394   4.733
13068TIP3    H239162   4.450   0.298   4.849
13069TIP3   OH239163   8.088   5.485   3.171
13069TIP3    H139164   8.172   5.448   3.144
13069TIP3    H239165   8.102   5.580   3.169
13070TIP3   OH239166   3.459   2.705   2.905
13070TIP3    H139167   3.434   2.673   2.818
13070TIP3    H239168   3.513   2.634   2.941
13071TIP3   OH239169   5.238   1.524   2.260
13071TIP3    H139170   5.215   1.454   2.320
13071TIP3    H239171   5.274   1.593   2.316
13072TIP3   OH239172   0.464   2.881   0.669
13072TIP3    H139173   0.536   2.887   0.606
13072TIP3    H239174   0.415   2.804   0.641
13073TIP3   OH239175   6.521   7.414   3.297
13073TIP3    H139176   6.526   7.492   3.352
13073TIP3    H239177   6.431   7.383   3.307
13074TIP3   OH239178   0.563   2.207   5.029
13074TIP3    H139179   0.538   2.223   5.120
13074TIP3    H239180   0.604   2.289   5.001
13075TIP3   OH239181   1.826   5.943   6.044
13075TIP3    H139182   1.777   5.891   5.981
13075TIP3    H239183   1.776   5.938   6.125
13076TIP3   OH239184   5.119   5.209   4.715
13076TIP3    H139185   5.206   5.237   4.686
13076TIP3    H239186   5.128   5.196   4.809
13077TIP3   OH239187   5.731   4.809   5.880
13077TIP3    H139188   5.733   4.753   5.957
13077TIP3    H239189   5.789   4.767   5.817
13078TIP3   OH239190   5.826   4.666   3.749
13078TIP3    H139191   5.903   4.653   3.804
13078TIP3    H239192   5.854   4.728   3.682
13079TIP3   OH239193   1.212   1.449   2.313
13079TIP3    H139194   1.193   1.526   2.260
13079TIP3    H239195   1.286   1.475   2.369
13080TIP3   OH239196   5.969   6.610   5.608
13080TIP3    H139197   6.029   6.537   5.626
13080TIP3    H239198   6.005   6.651   5.529
13081TIP3   OH239199   4.554   5.619   4.119
13081TIP3    H139200   4.611   5.630   4.043
13081TIP3    H239201   4.592   5.546   4.167
13082TIP3   OH239202   0.448   3.527   4.185
13082TIP3    H139203   0.362   3.554   4.217
13082TIP3    H239204   0.507   3.543   4.259
13083TIP3   OH239205   1.216   7.620   1.134
13083TIP3    H139206   1.218   7.709   1.099
13083TIP3    H239207   1.305   7.607   1.168
13084TIP3   OH239208   1.469   6.352   2.201
13084TIP3    H139209   1.535   6.400   2.251
13084TIP3    H239210   1.518   6.311   2.129
13085TIP3   OH239211   1.237   2.834   3.002
13085TIP3    H139212   1.196   2.794   2.926
13085TIP3    H239213   1.316   2.876   2.967
13086TIP3   OH239214   1.333   4.981   2.985
13086TIP3    H139215   1.265   4.915   2.973
13086TIP3    H239216   1.350   4.979   3.080
13087TIP3   OH239217   1.839   6.514   3.439
13087TIP3    H139218   1.832   6.419   3.444
13087TIP3    H239219   1.823   6.544   3.529
13088TIP3   OH239220   5.158   2.770   2.036
13088TIP3    H139221   5.132   2.854   1.999
13088TIP3    H239222   5.097   2.754   2.107
13089TIP3   OH239223   7.756   6.431   6.567
13089TIP3    H139224   7.840   6.405   6.530
13089TIP3    H239225   7.725   6.500   6.509
13090TIP3   OH239226   1.603   4.081   4.277
13090TIP3    H139227   1.533   4.016   4.266
13090TIP3    H239228   1.630   4.103   4.188
13091TIP3   OH239229   5.401   1.222   0.621
13091TIP3    H139230   5.342   1.185   0.687
13091TIP3    H239231   5.415   1.312   0.650
13092TIP3   OH239232   2.204   1.962   1.662
13092TIP3    H139233   2.182   2.028   1.728
13092TIP3    H239234   2.126   1.908   1.654
13093TIP3   OH239235   2.056   5.848   2.333
13093TIP3    H139236   1.987   5.902   2.294
13093TIP3    H239237   2.028   5.834   2.424
13094TIP3   OH239238   7.784   0.717   1.139
13094TIP3    H139239   7.737   0.635   1.153
13094TIP3    H239240   7.778   0.763   1.223
13095TIP3   OH239241   4.685   3.740   6.725
13095TIP3    H139242   4.647   3.685   6.657
13095TIP3    H239243   4.647   3.827   6.709
13096TIP3   OH239244   5.627   1.553   0.573
13096TIP3    H139245   5.577   1.625   0.611
13096TIP3    H239246   5.667   1.510   0.648
13097TIP3   OH239247   1.159   3.616   5.649
13097TIP3    H139248   1.152   3.605   5.554
13097TIP3    H239249   1.245   3.656   5.662
13098TIP3   OH239250   5.107   4.213   3.122
13098TIP3    H139251   5.118   4.307   3.112
13098TIP3    H239252   5.107   4.198   3.217
13099TIP3   OH239253   0.782   1.313   4.460
13099TIP3    H139254   0.854   1.279   4.407
13099TIP3    H239255   0.805   1.404   4.478
13100TIP3   OH239256   7.295   0.606   4.808
13100TIP3    H139257   7.253   0.531   4.850
13100TIP3    H239258   7.317   0.575   4.721
13101TIP3   OH239259   2.353   5.646   6.765
13101TIP3    H139260   2.357   5.554   6.740
13101TIP3    H239261   2.266   5.656   6.804
13102TIP3   OH239262   0.689   5.992   3.021
13102TIP3    H139263   0.744   6.027   3.091
13102TIP3    H239264   0.750   5.952   2.960
13103TIP3   OH239265   4.431   1.982   4.050
13103TIP3    H139266   4.456   2.042   4.120
13103TIP3    H239267   4.432   2.035   3.971
13104TIP3   OH239268   4.828   7.776   0.119
13104TIP3    H139269   4.736   7.770   0.146
13104TIP3    H239270   4.873   7.814   0.195
13105TIP3   OH239271   2.175   1.546   2.939
13105TIP3    H139272   2.083   1.531   2.960
13105TIP3    H239273   2.208   1.460   2.914
13106TIP3   OH239274   3.528   2.403   4.742
13106TIP3    H139275   3.440   2.389   4.777
13106TIP3    H239276   3.514   2.439   4.654
13107TIP3   OH239277   3.431   1.013   1.367
13107TIP3    H139278   3.420   1.050   1.454
13107TIP3    H239279   3.445   0.919   1.382
13108TIP3   OH239280   2.299   2.050   0.897
13108TIP3    H139281   2.357   2.116   0.859
13108TIP3    H239282   2.358   1.980   0.925
13109TIP3   OH239283   0.404   5.478   0.343
13109TIP3    H139284   0.406   5.513   0.254
13109TIP3    H239285   0.347   5.537   0.392
13110TIP3   OH239286   2.735   5.381   6.172
13110TIP3    H139287   2.813   5.356   6.222
13110TIP3    H239288   2.666   5.326   6.208
13111TIP3   OH239289   7.308   1.681   5.391
13111TIP3    H139290   7.360   1.744   5.441
13111TIP3    H239291   7.344   1.595   5.415
13112TIP3   OH239292   2.891   2.744   0.438
13112TIP3    H139293   2.820   2.682   0.421
13112TIP3    H239294   2.924   2.767   0.351
13113TIP3   OH239295   7.965   3.769   6.740
13113TIP3    H139296   7.924   3.692   6.700
13113TIP3    H239297   7.991   3.824   6.666
13114TIP3   OH239298   6.494   1.186   2.517
13114TIP3    H139299   6.553   1.261   2.509
13114TIP3    H239300   6.410   1.219   2.484
13115TIP3   OH239301   7.236   6.048   2.198
13115TIP3    H139302   7.272   6.009   2.278
13115TIP3    H239303   7.306   6.105   2.165
13116TIP3   OH239304   3.809   4.240   5.175
13116TIP3    H139305   3.897   4.224   5.141
13116TIP3    H239306   3.805   4.187   5.255
13117TIP3   OH239307   6.029   1.424   0.552
13117TIP3    H139308   6.041   1.341   0.506
13117TIP3    H239309   6.106   1.432   0.607
13118TIP3   OH239310   2.489   0.157   6.023
13118TIP3    H139311   2.581   0.164   6.046
13118TIP3    H239312   2.442   0.168   6.105
13119TIP3   OH239313   2.618   1.468   0.564
13119TIP3    H139314   2.678   1.396   0.547
13119TIP3    H239315   2.595   1.502   0.478
13120TIP3   OH239316   5.021   3.040   0.387
13120TIP3    H139317   5.078   3.101   0.340
13120TIP3    H239318   4.953   3.096   0.425
13121TIP3   OH239319   6.361   3.649   3.165
13121TIP3    H139320   6.356   3.728   3.112
13121TIP3    H239321   6.423   3.670   3.235
13122TIP3   OH239322   2.025   3.587   3.754
13122TIP3    H139323   1.941   3.557   3.718
13122TIP3    H239324   2.056   3.513   3.805
13123TIP3   OH239325   3.971   5.531   4.197
13123TIP3    H139326   4.045   5.502   4.143
13123TIP3    H239327   3.894   5.503   4.148
13124TIP3   OH239328   4.797   0.152   2.568
13124TIP3    H139329   4.789   0.157   2.473
13124TIP3    H239330   4.887   0.123   2.583
13125TIP3   OH239331   6.681   3.568   3.492
13125TIP3    H139332   6.757   3.613   3.456
13125TIP3    H239333   6.718   3.491   3.536
13126TIP3   OH239334   7.648   7.471   4.516
13126TIP3    H139335   7.667   7.450   4.608
13126TIP3    H239336   7.557   7.503   4.518
13127TIP3   OH239337   5.277   1.587   2.960
13127TIP3    H139338   5.326   1.660   2.923
13127TIP3    H239339   5.199   1.580   2.904
13128TIP3   OH239340   0.506   5.344   2.825
13128TIP3    H139341   0.491   5.259   2.867
13128TIP3    H239342   0.455   5.406   2.877
13129TIP3   OH239343   1.452   1.154   4.286
13129TIP3    H139344   1.507   1.100   4.228
13129TIP3    H239345   1.477   1.128   4.374
13130TIP3   OH239346   1.842   1.462   6.378
13130TIP3    H139347   1.895   1.447   6.456
13130TIP3    H239348   1.856   1.383   6.325
13131TIP3   OH239349   8.218   3.250   6.650
13131TIP3    H139350   8.249   3.290   6.569
13131TIP3    H239351   8.297   3.230   6.700
13132TIP3   OH239352   6.631   6.650   4.867
13132TIP3    H139353   6.583   6.568   4.857
13132TIP3    H239354   6.598   6.687   4.949
13133TIP3   OH239355   4.237   6.573   0.952
13133TIP3    H139356   4.220   6.525   1.033
13133TIP3    H239357   4.300   6.640   0.976
13134TIP3   OH239358   4.163   1.697   0.558
13134TIP3    H139359   4.206   1.658   0.633
13134TIP3    H239360   4.166   1.792   0.574
13135TIP3   OH239361   4.813   2.494   1.743
13135TIP3    H139362   4.783   2.538   1.823
13135TIP3    H239363   4.898   2.534   1.724
13136TIP3   OH239364   7.984   6.218   4.351
13136TIP3    H139365   7.956   6.134   4.314
13136TIP3    H239366   8.069   6.199   4.389
13137TIP3   OH239367   6.345   1.071   5.583
13137TIP3    H139368   6.284   1.130   5.537
13137TIP3    H239369   6.432   1.104   5.559
13138TIP3   OH239370   5.116   4.813   3.653
13138TIP3    H139371   5.174   4.816   3.577
13138TIP3    H239372   5.136   4.729   3.695
13139TIP3   OH239373   6.861   6.355   0.953
13139TIP3    H139374   6.891   6.280   1.003
13139TIP3    H239375   6.802   6.317   0.887
13140TIP3   OH239376   1.101   4.384   2.047
13140TIP3    H139377   1.166   4.349   2.108
13140TIP3    H239378   1.123   4.477   2.039
13141TIP3   OH239379   1.909   2.392   0.409
13141TIP3    H139380   1.968   2.341   0.465
13141TIP3    H239381   1.846   2.328   0.376
13142TIP3   OH239382   5.757   6.194   1.464
13142TIP3    H139383   5.664   6.181   1.477
13142TIP3    H239384   5.797   6.111   1.489
13143TIP3   OH239385   2.107   3.750   0.430
13143TIP3    H139386   2.135   3.836   0.460
13143TIP3    H239387   2.155   3.688   0.484
13144TIP3   OH239388   5.325   3.103   2.015
13144TIP3    H139389   5.300   3.193   2.037
13144TIP3    H239390   5.421   3.106   2.009
13145TIP3   OH239391   4.017   4.640   2.506
13145TIP3    H139392   3.950   4.707   2.493
13145TIP3    H239393   3.988   4.592   2.584
13146TIP3   OH239394   1.493   2.315   4.030
13146TIP3    H139395   1.571   2.281   3.987
13146TIP3    H239396   1.426   2.248   4.014
13147TIP3   OH239397   6.246   5.316   0.652
13147TIP3    H139398   6.217   5.383   0.590
13147TIP3    H239399   6.325   5.280   0.613
13148TIP3   OH239400   6.823   7.338   0.567
13148TIP3    H139401   6.881   7.412   0.548
13148TIP3    H239402   6.824   7.285   0.488
13149TIP3   OH239403   7.436   7.604   5.177
13149TIP3    H139404   7.420   7.526   5.123
13149TIP3    H239405   7.528   7.595   5.203
13150TIP3   OH239406   7.480   7.101   2.800
13150TIP3    H139407   7.568   7.066   2.787
13150TIP3    H239408   7.490   7.195   2.786
13151TIP3   OH239409   3.222   1.796   4.812
13151TIP3    H139410   3.174   1.742   4.874
13151TIP3    H239411   3.185   1.884   4.822
13152TIP3   OH239412   5.174   7.120   3.297
13152TIP3    H139413   5.081   7.129   3.276
13152TIP3    H239414   5.215   7.197   3.258
13153TIP3   OH239415   6.249   7.497   4.099
13153TIP3    H139416   6.178   7.437   4.075
13153TIP3    H239417   6.211   7.554   4.165
13154TIP3   OH239418   3.500   1.935   0.750
13154TIP3    H139419   3.406   1.950   0.738
13154TIP3    H239420   3.529   2.012   0.799
13155TIP3   OH239421   5.033   4.097   1.133
13155TIP3    H139422   4.989   4.076   1.051
13155TIP3    H239423   5.084   4.176   1.113
13156TIP3   OH239424   1.207   3.578   4.856
13156TIP3    H139425   1.275   3.628   4.812
13156TIP3    H239426   1.239   3.488   4.856
13157TIP3   OH239427   0.809   5.228   0.348
13157TIP3    H139428   0.740   5.262   0.404
13157TIP3    H239429   0.861   5.305   0.325
13158TIP3   OH239430   2.662   4.872   6.126
13158TIP3    H139431   2.629   4.930   6.058
13158TIP3    H239432   2.683   4.791   6.080
13159TIP3   OH239433   8.273   6.187   3.888
13159TIP3    H139434   8.311   6.196   3.975
13159TIP3    H239435   8.252   6.276   3.861
13160TIP3   OH239436   7.773   1.030   0.549
13160TIP3    H139437   7.797   0.937   0.542
13160TIP3    H239438   7.854   1.073   0.576
13161TIP3   OH239439  -0.014   1.624   2.836
13161TIP3    H139440   0.064   1.655   2.883
13161TIP3    H239441   0.019   1.591   2.753
13162TIP3   OH239442   2.938   1.895   6.660
13162TIP3    H139443   2.929   1.990   6.665
13162TIP3    H239444   3.029   1.878   6.681
13163TIP3   OH239445   7.251   1.600   5.131
13163TIP3    H139446   7.174   1.545   5.146
13163TIP3    H239447   7.270   1.639   5.216
13164TIP3   OH239448   1.709   3.141   0.712
13164TIP3    H139449   1.696   3.061   0.661
13164TIP3    H239450   1.621   3.164   0.743
13165TIP3   OH239451   2.645   1.917   4.891
13165TIP3    H139452   2.593   1.876   4.960
13165TIP3    H239453   2.728   1.939   4.933
13166TIP3   OH239454   7.754   0.129   5.126
13166TIP3    H139455   7.818   0.140   5.057
13166TIP3    H239456   7.708   0.048   5.105
13167TIP3   OH239457   0.202   0.691   6.344
13167TIP3    H139458   0.195   0.754   6.415
13167TIP3    H239459   0.287   0.649   6.357
13168TIP3   OH239460   0.482   6.786   0.566
13168TIP3    H139461   0.437   6.826   0.492
13168TIP3    H239462   0.413   6.744   0.617
13169TIP3   OH239463   0.695   4.811   2.482
13169TIP3    H139464   0.774   4.814   2.427
13169TIP3    H239465   0.710   4.879   2.548
13170TIP3   OH239466   0.080   3.004   5.907
13170TIP3    H139467   0.030   2.934   5.948
13170TIP3    H239468   0.132   3.041   5.978
13171TIP3   OH239469   8.042   5.848   1.558
13171TIP3    H139470   8.091   5.835   1.639
13171TIP3    H239471   7.951   5.855   1.586
13172TIP3   OH239472   2.006   3.435   0.532
13172TIP3    H139473   1.910   3.430   0.534
13172TIP3    H239474   2.027   3.462   0.442
13173TIP3   OH239475   5.609   1.685   2.432
13173TIP3    H139476   5.634   1.716   2.345
13173TIP3    H239477   5.593   1.591   2.420
13174TIP3   OH239478   1.530   3.324   5.705
13174TIP3    H139479   1.532   3.239   5.748
13174TIP3    H239480   1.474   3.310   5.628
13175TIP3   OH239481   1.378   6.422   0.295
13175TIP3    H139482   1.379   6.415   0.390
13175TIP3    H239483   1.470   6.432   0.271
13176TIP3   OH239484   7.754   2.750   0.119
13176TIP3    H139485   7.694   2.759   0.045
13176TIP3    H239486   7.755   2.656   0.137
13177TIP3   OH239487   3.549   1.901   1.602
13177TIP3    H139488   3.485   1.838   1.567
13177TIP3    H239489   3.512   1.926   1.687
13178TIP3   OH239490   2.149   3.889   0.105
13178TIP3    H139491   2.057   3.908   0.125
13178TIP3    H239492   2.199   3.953   0.155
13179TIP3   OH239493   1.965   4.734   3.177
13179TIP3    H139494   2.049   4.779   3.168
13179TIP3    H239495   1.987   4.641   3.179
13180TIP3   OH239496   2.764   4.270   6.538
13180TIP3    H139497   2.713   4.351   6.527
13180TIP3    H239498   2.855   4.296   6.520
13181TIP3   OH239499   6.390   6.664   5.967
13181TIP3    H139500   6.337   6.700   5.895
13181TIP3    H239501   6.331   6.667   6.043
13182TIP3   OH239502   1.001   6.326   4.399
13182TIP3    H139503   0.954   6.257   4.352
13182TIP3    H239504   1.089   6.290   4.411
13183TIP3   OH239505   6.045   1.402   2.472
13183TIP3    H139506   5.983   1.431   2.539
13183TIP3    H239507   5.991   1.355   2.408
13184TIP3   OH239508   1.100   1.104   1.568
13184TIP3    H139509   1.031   1.162   1.537
13184TIP3    H239510   1.138   1.149   1.643
13185TIP3   OH239511   3.449   6.511   3.875
13185TIP3    H139512   3.473   6.421   3.894
13185TIP3    H239513   3.395   6.506   3.796
13186TIP3   OH239514   6.115   4.362   2.458
13186TIP3    H139515   6.120   4.439   2.401
13186TIP3    H239516   6.189   4.307   2.430
13187TIP3   OH239517   2.265   1.864   4.415
13187TIP3    H139518   2.279   1.880   4.322
13187TIP3    H239519   2.310   1.936   4.459
13188TIP3   OH239520   7.938   0.612   4.448
13188TIP3    H139521   7.850   0.608   4.412
13188TIP3    H239522   7.968   0.521   4.451
13189TIP3   OH239523   6.640   2.587   5.355
13189TIP3    H139524   6.707   2.549   5.412
13189TIP3    H239525   6.626   2.675   5.389
13190TIP3   OH239526   7.554   6.864   3.904
13190TIP3    H139527   7.590   6.856   3.816
13190TIP3    H239528   7.506   6.783   3.919
13191TIP3   OH239529   3.184   6.448   6.339
13191TIP3    H139530   3.273   6.441   6.305
13191TIP3    H239531   3.192   6.436   6.433
13192TIP3   OH239532   0.363   6.006   3.855
13192TIP3    H139533   0.407   5.942   3.798
13192TIP3    H239534   0.270   5.996   3.834
13193TIP3   OH239535   2.570   5.242   2.662
13193TIP3    H139536   2.575   5.163   2.717
13193TIP3    H239537   2.585   5.210   2.573
13194TIP3   OH239538   3.208   4.116   0.226
13194TIP3    H139539   3.227   4.177   0.155
13194TIP3    H239540   3.206   4.170   0.305
13195TIP3   OH239541   4.062   0.287   2.740
13195TIP3    H139542   4.071   0.313   2.832
13195TIP3    H239543   3.981   0.236   2.737
13196TIP3   OH239544   5.559   6.924   1.672
13196TIP3    H139545   5.532   6.834   1.691
13196TIP3    H239546   5.653   6.925   1.693
13197TIP3   OH239547   1.122   3.631   2.218
13197TIP3    H139548   1.182   3.608   2.147
13197TIP3    H239549   1.127   3.556   2.277
13198TIP3   OH239550   5.821   0.759   4.251
13198TIP3    H139551   5.776   0.700   4.311
13198TIP3    H239552   5.911   0.761   4.281
13199TIP3   OH239553   5.090   3.719   2.189
13199TIP3    H139554   5.024   3.666   2.144
13199TIP3    H239555   5.173   3.673   2.172
13200TIP3   OH239556   5.445   0.595   4.585
13200TIP3    H139557   5.382   0.530   4.553
13200TIP3    H239558   5.530   0.550   4.579
13201TIP3   OH239559   4.267   4.615   3.891
13201TIP3    H139560   4.272   4.563   3.971
13201TIP3    H239561   4.179   4.652   3.891
13202TIP3   OH239562   4.038   2.896   5.694
13202TIP3    H139563   4.021   2.885   5.787
13202TIP3    H239564   3.963   2.948   5.663
13203TIP3   OH239565   0.158   3.328   0.252
13203TIP3    H139566   0.243   3.321   0.208
13203TIP3    H239567   0.176   3.299   0.342
13204TIP3   OH239568   0.832   2.245   2.588
13204TIP3    H139569   0.806   2.234   2.679
13204TIP3    H239570   0.755   2.218   2.538
13205TIP3   OH239571   0.708   1.166   3.374
13205TIP3    H139572   0.707   1.096   3.439
13205TIP3    H239573   0.615   1.181   3.354
13206TIP3   OH239574   1.693   3.591   2.613
13206TIP3    H139575   1.735   3.646   2.679
13206TIP3    H239576   1.760   3.527   2.590
13207TIP3   OH239577   8.216   1.951   0.191
13207TIP3    H139578   8.247   1.861   0.202
13207TIP3    H239579   8.121   1.943   0.183
13208TIP3   OH239580   1.784   1.872   6.216
13208TIP3    H139581   1.836   1.871   6.137
13208TIP3    H239582   1.735   1.789   6.215
13209TIP3   OH239583   2.334   1.460   3.318
13209TIP3    H139584   2.274   1.532   3.301
13209TIP3    H239585   2.421   1.499   3.314
13210TIP3   OH239586   3.077   1.033   2.103
13210TIP3    H139587   3.068   1.086   2.024
13210TIP3    H239588   2.987   1.011   2.127
13211TIP3   OH239589   4.716   6.618   5.933
13211TIP3    H139590   4.777   6.688   5.955
13211TIP3    H239591   4.641   6.663   5.895
13212TIP3   OH239592   7.117   5.576   1.028
13212TIP3    H139593   7.178   5.554   1.098
13212TIP3    H239594   7.094   5.491   0.989
13213TIP3   OH239595   7.604   5.886   5.275
13213TIP3    H139596   7.619   5.792   5.268
13213TIP3    H239597   7.689   5.925   5.251
13214TIP3   OH239598   6.109   2.455   1.803
13214TIP3    H139599   6.058   2.534   1.785
13214TIP3    H239600   6.113   2.451   1.898
13215TIP3   OH239601   0.886   5.893   6.255
13215TIP3    H139602   0.849   5.806   6.241
13215TIP3    H239603   0.813   5.944   6.289
13216TIP3   OH239604   0.783  -0.001   0.133
13216TIP3    H139605   0.806   0.092   0.131
13216TIP3    H239606   0.844  -0.039   0.196
13217TIP3   OH239607   2.408   6.294   4.827
13217TIP3    H139608   2.490   6.247   4.843
13217TIP3    H239609   2.422   6.380   4.867
13218TIP3   OH239610   6.971   7.590   2.035
13218TIP3    H139611   7.027   7.613   1.961
13218TIP3    H239612   7.003   7.504   2.063
13219TIP3   OH239613   6.780   0.341   2.673
13219TIP3    H139614   6.704   0.290   2.647
13219TIP3    H239615   6.854   0.295   2.634
13220TIP3   OH239616   1.064   5.518   0.585
13220TIP3    H139617   1.026   5.553   0.503
13220TIP3    H239618   1.059   5.423   0.575
13221TIP3   OH239619  -0.048   2.860   4.381
13221TIP3    H139620  -0.022   2.780   4.335
13221TIP3    H239621  -0.126   2.835   4.430
13222TIP3   OH239622   7.873   1.882   0.701
13222TIP3    H139623   7.962   1.853   0.682
13222TIP3    H239624   7.840   1.916   0.618
13223TIP3   OH239625   4.585   6.335   6.654
13223TIP3    H139626   4.633   6.322   6.573
13223TIP3    H239627   4.578   6.248   6.692
13224TIP3   OH239628   3.136   0.679   4.270
13224TIP3    H139629   3.203   0.617   4.240
13224TIP3    H239630   3.170   0.765   4.245
13225TIP3   OH239631   4.927   6.159   1.835
13225TIP3    H139632   4.893   6.147   1.746
13225TIP3    H239633   4.860   6.120   1.892
13226TIP3   OH239634   3.612   0.883   0.411
13226TIP3    H139635   3.612   0.788   0.401
13226TIP3    H239636   3.688   0.902   0.466
13227TIP3   OH239637   5.987   1.403   4.559
13227TIP3    H139638   6.027   1.358   4.633
13227TIP3    H239639   5.935   1.336   4.514
13228TIP3   OH239640   7.615   4.696   3.386
13228TIP3    H139641   7.667   4.777   3.389
13228TIP3    H239642   7.524   4.726   3.380
13229TIP3   OH239643   1.657   2.657   1.497
13229TIP3    H139644   1.582   2.695   1.450
13229TIP3    H239645   1.688   2.587   1.440
13230TIP3   OH239646   1.289   4.426   4.236
13230TIP3    H139647   1.328   4.510   4.261
13230TIP3    H239648   1.322   4.364   4.300
13231TIP3   OH239649   7.383   5.499   4.728
13231TIP3    H139650   7.378   5.432   4.796
13231TIP3    H239651   7.438   5.567   4.765
13232TIP3   OH239652   1.803   5.668   4.092
13232TIP3    H139653   1.816   5.755   4.055
13232TIP3    H239654   1.726   5.677   4.149
13233TIP3   OH239655   4.058   2.485   6.701
13233TIP3    H139656   4.077   2.537   6.779
13233TIP3    H239657   4.117   2.410   6.707
13234TIP3   OH239658   6.885   6.142   4.263
13234TIP3    H139659   6.839   6.084   4.323
13234TIP3    H239660   6.954   6.182   4.316
13235TIP3   OH239661   7.096   1.466   3.583
13235TIP3    H139662   7.163   1.409   3.621
13235TIP3    H239663   7.081   1.430   3.496
13236TIP3   OH239664   1.992   4.986   4.703
13236TIP3    H139665   1.927   4.920   4.726
13236TIP3    H239666   2.076   4.946   4.725
13237TIP3   OH239667   3.740   1.479   1.197
13237TIP3    H139668   3.755   1.420   1.270
13237TIP3    H239669   3.650   1.463   1.170
13238TIP3   OH239670   4.031   2.230   4.320
13238TIP3    H139671   3.966   2.296   4.343
13238TIP3    H239672   4.111   2.279   4.303
13239TIP3   OH239673   1.254   1.098   4.759
13239TIP3    H139674   1.303   1.016   4.767
13239TIP3    H239675   1.270   1.144   4.841
13240TIP3   OH239676   1.093   1.205   3.214
13240TIP3    H139677   1.174   1.251   3.238
13240TIP3    H239678   1.023   1.261   3.248
13241TIP3   OH239679   8.300   0.296   5.969
13241TIP3    H139680   8.224   0.339   6.007
13241TIP3    H239681   8.352   0.266   6.044
13242TIP3   OH239682   6.330   5.520   4.660
13242TIP3    H139683   6.308   5.467   4.738
13242TIP3    H239684   6.398   5.469   4.616
13243TIP3   OH239685   3.255   6.321   6.568
13243TIP3    H139686   3.270   6.235   6.530
13243TIP3    H239687   3.286   6.313   6.658
13244TIP3   OH239688   3.606   3.656   5.602
13244TIP3    H139689   3.631   3.688   5.515
13244TIP3    H239690   3.530   3.600   5.585
13245TIP3   OH239691   6.964   5.507   3.061
13245TIP3    H139692   6.967   5.438   2.994
13245TIP3    H239693   6.891   5.562   3.035
13246TIP3   OH239694   3.592   6.193   4.104
13246TIP3    H139695   3.556   6.107   4.084
13246TIP3    H239696   3.519   6.242   4.143
13247TIP3   OH239697   6.706   5.965   1.909
13247TIP3    H139698   6.683   5.888   1.856
13247TIP3    H239699   6.740   6.028   1.845
13248TIP3   OH239700   6.868   6.833   2.214
13248TIP3    H139701   6.789   6.782   2.237
13248TIP3    H239702   6.878   6.894   2.287
13249TIP3   OH239703   2.893   6.788   3.427
13249TIP3    H139704   2.970   6.835   3.459
13249TIP3    H239705   2.823   6.853   3.429
13250TIP3   OH239706   2.142   5.807   0.519
13250TIP3    H139707   2.177   5.831   0.605
13250TIP3    H239708   2.122   5.891   0.478
13251TIP3   OH239709   3.422   2.405   1.805
13251TIP3    H139710   3.369   2.326   1.794
13251TIP3    H239711   3.381   2.471   1.750
13252TIP3   OH239712   1.074   3.377   3.926
13252TIP3    H139713   0.992   3.339   3.958
13252TIP3    H239714   1.061   3.385   3.831
13253TIP3   OH239715   2.674   2.106   3.526
13253TIP3    H139716   2.752   2.069   3.567
13253TIP3    H239717   2.708   2.156   3.452
13254TIP3   OH239718   6.776   2.459   1.312
13254TIP3    H139719   6.807   2.370   1.296
13254TIP3    H239720   6.855   2.510   1.328
13255TIP3   OH239721   7.833   3.240   3.178
13255TIP3    H139722   7.925   3.262   3.161
13255TIP3    H239723   7.836   3.182   3.254
13256TIP3   OH239724   2.813   1.441   5.977
13256TIP3    H139725   2.721   1.466   5.992
13256TIP3    H239726   2.825   1.363   6.030
13257TIP3   OH239727   1.487   1.152   3.657
13257TIP3    H139728   1.564   1.122   3.608
13257TIP3    H239729   1.466   1.079   3.716
13258TIP3   OH239730   5.758   0.415   2.880
13258TIP3    H139731   5.700   0.374   2.817
13258TIP3    H239732   5.846   0.394   2.848
13259TIP3   OH239733   2.574   3.951   3.374
13259TIP3    H139734   2.501   3.926   3.431
13259TIP3    H239735   2.540   3.937   3.285
13260TIP3   OH239736   5.280   5.670   1.157
13260TIP3    H139737   5.299   5.693   1.248
13260TIP3    H239738   5.362   5.634   1.124
13261TIP3   OH239739   3.812   6.614   4.726
13261TIP3    H139740   3.798   6.544   4.791
13261TIP3    H239741   3.804   6.570   4.641
13262TIP3   OH239742   1.580   6.993   6.289
13262TIP3    H139743   1.583   6.962   6.199
13262TIP3    H239744   1.490   7.023   6.301
13263TIP3   OH239745   7.509   2.879   2.186
13263TIP3    H139746   7.571   2.876   2.113
13263TIP3    H239747   7.510   2.791   2.222
13264TIP3   OH239748   0.770   2.680   2.670
13264TIP3    H139749   0.773   2.770   2.704
13264TIP3    H239750   0.679   2.652   2.683
13265TIP3   OH239751   2.844   2.358   0.146
13265TIP3    H139752   2.902   2.424   0.185
13265TIP3    H239753   2.853   2.370   0.052
13266TIP3   OH239754   4.879   5.014   2.496
13266TIP3    H139755   4.815   5.077   2.529
13266TIP3    H239756   4.827   4.935   2.480
13267TIP3   OH239757   3.632   2.028   5.989
13267TIP3    H139758   3.583   2.089   5.934
13267TIP3    H239759   3.723   2.058   5.983
13268TIP3   OH239760   4.828   6.976   0.019
13268TIP3    H139761   4.768   7.002   0.089
13268TIP3    H239762   4.865   7.058  -0.014
13269TIP3   OH239763   1.888   0.213   4.045
13269TIP3    H139764   1.982   0.212   4.031
13269TIP3    H239765   1.851   0.172   3.967
13270TIP3   OH239766   8.055   1.468   2.960
13270TIP3    H139767   8.127   1.530   2.944
13270TIP3    H239768   8.004   1.508   3.030
13271TIP3   OH239769   5.820   4.686   4.689
13271TIP3    H139770   5.841   4.618   4.753
13271TIP3    H239771   5.746   4.733   4.727
13272TIP3   OH239772   0.378   2.946   1.184
13272TIP3    H139773   0.381   2.884   1.111
13272TIP3    H239774   0.468   2.953   1.214
13273TIP3   OH239775   4.951   5.753   4.454
13273TIP3    H139776   4.931   5.662   4.476
13273TIP3    H239777   4.876   5.782   4.403
13274TIP3   OH239778   5.257   1.761   4.771
13274TIP3    H139779   5.229   1.766   4.862
13274TIP3    H239780   5.352   1.745   4.776
13275TIP3   OH239781   3.787   7.183   3.025
13275TIP3    H139782   3.865   7.127   3.020
13275TIP3    H239783   3.730   7.140   3.088
13276TIP3   OH239784   3.286   4.905   0.128
13276TIP3    H139785   3.354   4.846   0.160
13276TIP3    H239786   3.333   4.984   0.102
13277TIP3   OH239787   0.298   3.828   0.766
13277TIP3    H139788   0.313   3.885   0.691
13277TIP3    H239789   0.288   3.887   0.841
13278TIP3   OH239790   2.635   6.194   0.396
13278TIP3    H139791   2.707   6.133   0.380
13278TIP3    H239792   2.676   6.280   0.400
13279TIP3   OH239793   1.185   5.789   0.438
13279TIP3    H139794   1.212   5.861   0.381
13279TIP3    H239795   1.175   5.714   0.379
13280TIP3   OH239796   5.074   1.370   5.427
13280TIP3    H139797   5.113   1.306   5.367
13280TIP3    H239798   5.048   1.442   5.370
13281TIP3   OH239799   0.053   2.520   3.439
13281TIP3    H139800  -0.035   2.482   3.437
13281TIP3    H239801   0.081   2.521   3.347
13282TIP3   OH239802   0.991   2.378   1.967
13282TIP3    H139803   0.980   2.427   1.885
13282TIP3    H239804   1.012   2.445   2.032
13283TIP3   OH239805   5.675   2.775   6.568
13283TIP3    H139806   5.681   2.828   6.648
13283TIP3    H239807   5.589   2.795   6.533
13284TIP3   OH239808   1.280   6.145   4.093
13284TIP3    H139809   1.353   6.183   4.043
13284TIP3    H239810   1.277   6.054   4.066
13285TIP3   OH239811   1.854   7.577   3.343
13285TIP3    H139812   1.907   7.498   3.334
13285TIP3    H239813   1.777   7.562   3.288
13286TIP3   OH239814   5.260   6.742   2.069
13286TIP3    H139815   5.238   6.649   2.074
13286TIP3    H239816   5.347   6.744   2.031
13287TIP3   OH239817   4.730   1.725   2.846
13287TIP3    H139818   4.660   1.789   2.833
13287TIP3    H239819   4.702   1.673   2.922
13288TIP3   OH239820   5.504   7.597   5.804
13288TIP3    H139821   5.478   7.619   5.715
13288TIP3    H239822   5.422   7.572   5.848
13289TIP3   OH239823   3.791   5.024   3.264
13289TIP3    H139824   3.759   4.938   3.236
13289TIP3    H239825   3.776   5.026   3.358
13290TIP3   OH239826   2.743   3.424   5.632
13290TIP3    H139827   2.732   3.343   5.682
13290TIP3    H239828   2.779   3.486   5.695
13291TIP3   OH239829   5.033   3.302   5.030
13291TIP3    H139830   5.046   3.208   5.041
13291TIP3    H239831   5.034   3.316   4.936
13292TIP3   OH239832   5.210   0.356   1.335
13292TIP3    H139833   5.126   0.347   1.380
13292TIP3    H239834   5.237   0.446   1.353
13293TIP3   OH239835   6.042   0.604   6.760
13293TIP3    H139836   5.954   0.579   6.786
13293TIP3    H239837   6.039   0.700   6.755
13294TIP3   OH239838   6.230   5.364   4.894
13294TIP3    H139839   6.141   5.337   4.871
13294TIP3    H239840   6.217   5.442   4.949
13295TIP3   OH239841   4.617   1.943   2.380
13295TIP3    H139842   4.567   1.982   2.309
13295TIP3    H239843   4.591   1.992   2.458
13296TIP3   OH239844   3.477   2.990   5.678
13296TIP3    H139845   3.420   2.957   5.608
13296TIP3    H239846   3.551   2.930   5.680
13297TIP3   OH239847   5.224   2.206   5.919
13297TIP3    H139848   5.305   2.239   5.881
13297TIP3    H239849   5.184   2.283   5.961
13298TIP3   OH239850   7.441   2.158   4.067
13298TIP3    H139851   7.528   2.175   4.103
13298TIP3    H239852   7.398   2.243   4.068
13299TIP3   OH239853   0.304   3.757   0.387
13299TIP3    H139854   0.243   3.715   0.326
13299TIP3    H239855   0.253   3.830   0.424
13300TIP3   OH239856   1.846   5.728   5.792
13300TIP3    H139857   1.922   5.773   5.754
13300TIP3    H239858   1.885   5.661   5.849
13301TIP3   OH239859   7.606   7.359   3.741
13301TIP3    H139860   7.586   7.343   3.649
13301TIP3    H239861   7.692   7.400   3.741
13302TIP3   OH239862   4.652   6.745   3.417
13302TIP3    H139863   4.736   6.705   3.395
13302TIP3    H239864   4.658   6.834   3.382
13303TIP3   OH239865   7.159   2.792  -0.005
13303TIP3    H139866   7.078   2.787  -0.055
13303TIP3    H239867   7.139   2.853   0.067
13304TIP3   OH239868   0.349   6.443   1.600
13304TIP3    H139869   0.332   6.376   1.534
13304TIP3    H239870   0.324   6.525   1.558
13305TIP3   OH239871   1.192   5.250   1.915
13305TIP3    H139872   1.229   5.308   1.982
13305TIP3    H239873   1.139   5.308   1.861
13306TIP3   OH239874   5.107   3.380   2.753
13306TIP3    H139875   5.133   3.471   2.734
13306TIP3    H239876   5.113   3.336   2.668
13307TIP3   OH239877   2.114   4.276   6.484
13307TIP3    H139878   2.136   4.218   6.556
13307TIP3    H239879   2.164   4.243   6.409
13308TIP3   OH239880   8.145   5.805   6.095
13308TIP3    H139881   8.175   5.784   6.184
13308TIP3    H239882   8.076   5.871   6.108
13309TIP3   OH239883   3.881   1.213   4.545
13309TIP3    H139884   3.919   1.131   4.577
13309TIP3    H239885   3.895   1.275   4.616
13310TIP3   OH239886   7.769   5.285   4.496
13310TIP3    H139887   7.730   5.356   4.546
13310TIP3    H239888   7.708   5.212   4.507
13311TIP3   OH239889   3.807   1.145   2.938
13311TIP3    H139890   3.865   1.155   3.014
13311TIP3    H239891   3.866   1.121   2.867
13312TIP3   OH239892   0.637   5.893   3.937
13312TIP3    H139893   0.692   5.818   3.960
13312TIP3    H239894   0.599   5.871   3.852
13313TIP3   OH239895   3.309   3.046   2.039
13313TIP3    H139896   3.377   3.023   1.976
13313TIP3    H239897   3.286   3.136   2.016
13314TIP3   OH239898   5.228   3.137   5.193
13314TIP3    H139899   5.314   3.117   5.230
13314TIP3    H239900   5.237   3.120   5.100
13315TIP3   OH239901   2.316   2.855   5.053
13315TIP3    H139902   2.395   2.844   5.106
13315TIP3    H239903   2.324   2.943   5.016
13316TIP3   OH239904   1.583   3.734   5.360
13316TIP3    H139905   1.569   3.656   5.415
13316TIP3    H239906   1.640   3.703   5.289
13317TIP3   OH239907   5.150   6.849   0.903
13317TIP3    H139908   5.098   6.786   0.954
13317TIP3    H239909   5.233   6.855   0.951
13318TIP3   OH239910   4.922   5.656   5.485
13318TIP3    H139911   4.967   5.734   5.517
13318TIP3    H239912   4.917   5.670   5.390
13319TIP3   OH239913   1.673   6.451   0.312
13319TIP3    H139914   1.640   6.431   0.400
13319TIP3    H239915   1.731   6.378   0.291
13320TIP3   OH239916   7.345   7.217   0.200
13320TIP3    H139917   7.357   7.266   0.282
13320TIP3    H239918   7.251   7.201   0.196
13321TIP3   OH239919   7.941   1.516   6.571
13321TIP3    H139920   8.034   1.526   6.549
13321TIP3    H239921   7.940   1.498   6.665
13322TIP3   OH239922   5.126   0.750   3.738
13322TIP3    H139923   5.072   0.829   3.731
13322TIP3    H239924   5.202   0.777   3.789
13323TIP3   OH239925   3.451   5.425   5.133
13323TIP3    H139926   3.531   5.416   5.184
13323TIP3    H239927   3.480   5.467   5.051
13324TIP3   OH239928   2.277   5.266   0.588
13324TIP3    H139929   2.187   5.259   0.558
13324TIP3    H239930   2.320   5.187   0.555
13325TIP3   OH239931   6.745   5.029   4.067
13325TIP3    H139932   6.818   5.007   4.009
13325TIP3    H239933   6.675   5.056   4.007
13326TIP3   OH239934   4.627   7.537   6.341
13326TIP3    H139935   4.567   7.503   6.408
13326TIP3    H239936   4.574   7.599   6.291
13327TIP3   OH239937   4.257   4.523   3.238
13327TIP3    H139938   4.252   4.428   3.246
13327TIP3    H239939   4.326   4.538   3.173
13328TIP3   OH239940   5.134   0.127   6.368
13328TIP3    H139941   5.166   0.177   6.443
13328TIP3    H239942   5.041   0.148   6.363
13329TIP3   OH239943   4.819   4.060   6.460
13329TIP3    H139944   4.882   4.066   6.532
13329TIP3    H239945   4.861   4.108   6.388
13330TIP3   OH239946   1.962   1.345   6.739
13330TIP3    H139947   2.026   1.304   6.797
13330TIP3    H239948   1.982   1.310   6.652
13331TIP3   OH239949   4.164   3.004   4.567
13331TIP3    H139950   4.122   3.012   4.481
13331TIP3    H239951   4.197   2.914   4.569
13332TIP3   OH239952   2.649   4.972   2.185
13332TIP3    H139953   2.724   4.994   2.130
13332TIP3    H239954   2.640   4.877   2.178
13333TIP3   OH239955   0.501   2.079   4.452
13333TIP3    H139956   0.463   2.140   4.515
13333TIP3    H239957   0.589   2.060   4.486
13334TIP3   OH239958   0.559   5.571   1.373
13334TIP3    H139959   0.604   5.530   1.446
13334TIP3    H239960   0.593   5.526   1.295
13335TIP3   OH239961   6.403   6.962   4.138
13335TIP3    H139962   6.381   6.896   4.071
13335TIP3    H239963   6.324   6.969   4.191
13336TIP3   OH239964   3.249   3.320   2.274
13336TIP3    H139965   3.294   3.309   2.358
13336TIP3    H239966   3.320   3.329   2.210
13337TIP3   OH239967   7.242   4.209   2.032
13337TIP3    H139968   7.263   4.258   1.952
13337TIP3    H239969   7.192   4.271   2.085
13338TIP3   OH239970   7.675   7.384   2.003
13338TIP3    H139971   7.595   7.430   1.978
13338TIP3    H239972   7.696   7.329   1.927
13339TIP3   OH239973   5.532   5.560   1.129
13339TIP3    H139974   5.604   5.498   1.113
13339TIP3    H239975   5.575   5.645   1.137
13340TIP3   OH239976   1.227   7.504   3.334
13340TIP3    H139977   1.159   7.494   3.400
13340TIP3    H239978   1.291   7.436   3.355
13341TIP3   OH239979   6.966   6.228   6.395
13341TIP3    H139980   6.878   6.190   6.402
13341TIP3    H239981   6.958   6.314   6.435
13342TIP3   OH239982   0.070   1.870   6.555
13342TIP3    H139983   0.065   1.890   6.461
13342TIP3    H239984   0.087   1.954   6.596
13343TIP3   OH239985   2.665   0.988   3.845
13343TIP3    H139986   2.610   0.936   3.903
13343TIP3    H239987   2.742   1.009   3.897
13344TIP3   OH239988   7.669   2.717   5.535
13344TIP3    H139989   7.656   2.758   5.620
13344TIP3    H239990   7.625   2.775   5.473
13345TIP3   OH239991   1.061   1.984   4.530
13345TIP3    H139992   1.065   1.946   4.618
13345TIP3    H239993   1.120   2.060   4.533
13346TIP3   OH239994   5.117   5.342   5.414
13346TIP3    H139995   5.067   5.365   5.336
13346TIP3    H239996   5.055   5.296   5.470
13347TIP3   OH239997   3.226   0.376   4.451
13347TIP3    H139998   3.284   0.452   4.441
13347TIP3    H239999   3.168   0.401   4.523
13348TIP3   OH240000   2.015   5.205   6.206
13348TIP3    H140001   2.041   5.268   6.273
13348TIP3    H240002   2.080   5.215   6.136
13349TIP3   OH240003   3.206   0.429   4.122
13349TIP3    H140004   3.234   0.359   4.063
13349TIP3    H240005   3.153   0.385   4.188
13350TIP3   OH240006   2.032   3.127   3.340
13350TIP3    H140007   1.972   3.053   3.322
13350TIP3    H240008   2.109   3.086   3.378
13351TIP3   OH240009   4.965   6.166   6.473
13351TIP3    H140010   4.914   6.219   6.411
13351TIP3    H240011   4.912   6.166   6.553
13352TIP3   OH240012   2.915   4.680   6.321
13352TIP3    H140013   2.969   4.643   6.391
13352TIP3    H240014   2.902   4.607   6.260
13353TIP3   OH240015   3.287   5.330   0.596
13353TIP3    H140016   3.329   5.266   0.539
13353TIP3    H240017   3.299   5.414   0.551
13354TIP3   OH240018   2.731   3.488   1.158
13354TIP3    H140019   2.641   3.469   1.130
13354TIP3    H240020   2.754   3.416   1.216
13355TIP3   OH240021   0.751   1.156   1.220
13355TIP3    H140022   0.785   1.145   1.309
13355TIP3    H240023   0.722   1.068   1.195
13356TIP3   OH240024   5.627   3.879   0.318
13356TIP3    H140025   5.671   3.864   0.235
13356TIP3    H240026   5.552   3.818   0.316
13357TIP3   OH240027   2.615   3.332   6.027
13357TIP3    H140028   2.612   3.236   6.022
13357TIP3    H240029   2.527   3.357   6.054
13358TIP3   OH240030   1.085   6.445   1.660
13358TIP3    H140031   1.121   6.518   1.710
13358TIP3    H240032   1.079   6.478   1.570
13359TIP3   OH240033   7.314   4.510   4.838
13359TIP3    H140034   7.269   4.512   4.922
13359TIP3    H240035   7.349   4.421   4.831
13360TIP3   OH240036   4.650   0.310   5.739
13360TIP3    H140037   4.672   0.388   5.790
13360TIP3    H240038   4.587   0.262   5.793
13361TIP3   OH240039   6.318   0.880   5.762
13361TIP3    H140040   6.233   0.840   5.776
13361TIP3    H240041   6.304   0.943   5.692
13362TIP3   OH240042   4.478   2.277   5.753
13362TIP3    H140043   4.514   2.264   5.666
13362TIP3    H240044   4.443   2.366   5.751
13363TIP3   OH240045   4.572   1.787   6.561
13363TIP3    H140046   4.489   1.789   6.610
13363TIP3    H240047   4.583   1.876   6.528
13364TIP3   OH240048   7.976   6.696   6.155
13364TIP3    H140049   7.908   6.632   6.134
13364TIP3    H240050   8.026   6.655   6.226
13365TIP3   OH240051   4.021   6.424   4.936
13365TIP3    H140052   4.057   6.347   4.980
13365TIP3    H240053   4.097   6.479   4.919
13366TIP3   OH240054   6.174   2.602   3.603
13366TIP3    H140055   6.172   2.657   3.681
13366TIP3    H240056   6.109   2.534   3.620
13367TIP3   OH240057   2.825   4.167   4.351
13367TIP3    H140058   2.912   4.156   4.387
13367TIP3    H240059   2.765   4.149   4.423
13368TIP3   OH240060   5.140   4.441   2.706
13368TIP3    H140061   5.090   4.522   2.703
13368TIP3    H240062   5.218   4.463   2.757
13369TIP3   OH240063   8.225   4.808   4.765
13369TIP3    H140064   8.170   4.738   4.728
13369TIP3    H240065   8.285   4.831   4.695
13370TIP3   OH240066   8.233   2.571   1.717
13370TIP3    H140067   8.205   2.496   1.665
13370TIP3    H240068   8.326   2.557   1.732
13371TIP3   OH240069   7.788   2.531   1.349
13371TIP3    H140070   7.769   2.568   1.263
13371TIP3    H240071   7.785   2.606   1.408
13372TIP3   OH240072   3.088   6.590   5.129
13372TIP3    H140073   3.110   6.683   5.138
13372TIP3    H240074   3.148   6.558   5.062
13373TIP3   OH240075   2.594   2.982   1.931
13373TIP3    H140076   2.502   3.005   1.949
13373TIP3    H240077   2.641   3.064   1.940
13374TIP3   OH240078   3.410   0.045   2.839
13374TIP3    H140079   3.464   0.107   2.789
13374TIP3    H240080   3.322   0.056   2.802
13375TIP3   OH240081   7.671   2.906   3.653
13375TIP3    H140082   7.582   2.940   3.666
13375TIP3    H240083   7.708   2.962   3.585
13376TIP3   OH240084   0.558   1.616   5.364
13376TIP3    H140085   0.489   1.564   5.324
13376TIP3    H240086   0.617   1.552   5.404
13377TIP3   OH240087   6.095   4.024   6.683
13377TIP3    H140088   6.007   3.994   6.704
13377TIP3    H240089   6.084   4.085   6.610
13378TIP3   OH240090   5.544   2.310   5.238
13378TIP3    H140091   5.611   2.267   5.186
13378TIP3    H240092   5.521   2.247   5.306
13379TIP3   OH240093   3.343   7.790   3.295
13379TIP3    H140094   3.357   7.773   3.389
13379TIP3    H240095   3.250   7.772   3.281
13380TIP3   OH240096   8.126   1.266   6.642
13380TIP3    H140097   8.190   1.335   6.660
13380TIP3    H240098   8.179   1.189   6.620
13381TIP3   OH240099   8.012   6.124   3.734
13381TIP3    H140100   8.086   6.175   3.703
13381TIP3    H240101   8.032   6.034   3.708
13382TIP3   OH240102   4.225   5.725   4.091
13382TIP3    H140103   4.200   5.635   4.070
13382TIP3    H240104   4.147   5.777   4.072
13383TIP3   OH240105   1.359   0.669   2.613
13383TIP3    H140106   1.403   0.735   2.560
13383TIP3    H240107   1.399   0.676   2.699
13384TIP3   OH240108   2.685   4.221   2.941
13384TIP3    H140109   2.692   4.132   2.908
13384TIP3    H240110   2.617   4.262   2.887
13385TIP3   OH240111   0.077   4.208   1.016
13385TIP3    H140112  -0.010   4.237   1.045
13385TIP3    H240113   0.069   4.202   0.921
13386TIP3   OH240114   7.625   2.499   0.042
13386TIP3    H140115   7.592   2.469  -0.043
13386TIP3    H240116   7.547   2.529   0.088
13387TIP3   OH240117   6.427   0.917   5.083
13387TIP3    H140118   6.410   0.823   5.081
13387TIP3    H240119   6.352   0.953   5.131
13388TIP3   OH240120   6.146   1.708   3.665
13388TIP3    H140121   6.083   1.779   3.676
13388TIP3    H240122   6.153   1.669   3.752
13389TIP3   OH240123   6.668   7.600   4.947
13389TIP3    H140124   6.733   7.617   4.879
13389TIP3    H240125   6.636   7.511   4.928
13390TIP3   OH240126   6.250   1.469   5.131
13390TIP3    H140127   6.166   1.452   5.090
13390TIP3    H240128   6.228   1.502   5.219
13391TIP3   OH240129   6.763   6.389   2.299
13391TIP3    H140130   6.749   6.352   2.212
13391TIP3    H240131   6.852   6.364   2.322
13392TIP3   OH240132   1.427   3.410   4.570
13392TIP3    H140133   1.393   3.350   4.637
13392TIP3    H240134   1.373   3.392   4.493
13393TIP3   OH240135   6.995   2.472   4.922
13393TIP3    H140136   6.934   2.411   4.963
13393TIP3    H240137   7.005   2.438   4.832
13394TIP3   OH240138   3.075   7.446   2.655
13394TIP3    H140139   3.152   7.389   2.647
13394TIP3    H240140   3.079   7.504   2.580
13395TIP3   OH240141   7.775   2.728   6.007
13395TIP3    H140142   7.825   2.793   6.055
13395TIP3    H240143   7.716   2.691   6.072
13396TIP3   OH240144   0.985   6.054   0.862
13396TIP3    H140145   0.984   6.016   0.774
13396TIP3    H240146   1.011   5.981   0.919
13397TIP3   OH240147   2.460   5.815   5.451
13397TIP3    H140148   2.409   5.778   5.379
13397TIP3    H240149   2.434   5.764   5.528
13398TIP3   OH240150   5.196   3.731   0.970
13398TIP3    H140151   5.288   3.705   0.957
13398TIP3    H240152   5.177   3.788   0.895
13399TIP3   OH240153   1.652   0.810   1.734
13399TIP3    H140154   1.657   0.715   1.740
13399TIP3    H240155   1.564   0.831   1.767
13400TIP3   OH240156   7.772   6.463   6.822
13400TIP3    H140157   7.863   6.454   6.851
13400TIP3    H240158   7.773   6.438   6.730
13401TIP3   OH240159   7.505   3.602   2.216
13401TIP3    H140160   7.471   3.633   2.132
13401TIP3    H240161   7.600   3.615   2.210
13402TIP3   OH240162   3.998   2.958   1.754
13402TIP3    H140163   3.978   2.915   1.671
13402TIP3    H240164   4.084   2.998   1.740
13403TIP3   OH240165   5.939   3.725   5.453
13403TIP3    H140166   5.955   3.820   5.460
13403TIP3    H240167   5.894   3.702   5.534
13404TIP3   OH240168   0.789   0.685   2.683
13404TIP3    H140169   0.733   0.607   2.690
13404TIP3    H240170   0.869   0.661   2.729
13405TIP3   OH240171   7.185   0.672   6.533
13405TIP3    H140172   7.142   0.587   6.530
13405TIP3    H240173   7.116   0.734   6.555
13406TIP3   OH240174   2.198   4.997   6.627
13406TIP3    H140175   2.264   4.963   6.686
13406TIP3    H240176   2.132   4.927   6.622
13407TIP3   OH240177   8.001   2.413   3.903
13407TIP3    H140178   8.033   2.353   3.970
13407TIP3    H240179   7.968   2.356   3.834
13408TIP3   OH240180   2.049   5.418   0.160
13408TIP3    H140181   1.967   5.453   0.125
13408TIP3    H240182   2.116   5.481   0.134
13409TIP3   OH240183   6.497   5.542   0.913
13409TIP3    H140184   6.576   5.490   0.900
13409TIP3    H240185   6.450   5.499   0.984
13410TIP3   OH240186   2.744   4.580   4.159
13410TIP3    H140187   2.724   4.646   4.094
13410TIP3    H240188   2.667   4.524   4.162
13411TIP3   OH240189   0.412   7.597   4.063
13411TIP3    H140190   0.380   7.570   4.149
13411TIP3    H240191   0.333   7.618   4.014
13412TIP3   OH240192   4.101   3.169   0.519
13412TIP3    H140193   4.035   3.232   0.549
13412TIP3    H240194   4.122   3.197   0.431
13413TIP3   OH240195   8.302   7.655   1.888
13413TIP3    H140196   8.283   7.587   1.824
13413TIP3    H240197   8.374   7.620   1.941
13414TIP3   OH240198   5.905   0.475   5.571
13414TIP3    H140199   5.949   0.501   5.489
13414TIP3    H240200   5.955   0.520   5.640
13415TIP3   OH240201   2.384   5.777   0.292
13415TIP3    H140202   2.366   5.842   0.360
13415TIP3    H240203   2.377   5.693   0.338
13416TIP3   OH240204   2.215   0.720   5.803
13416TIP3    H140205   2.294   0.690   5.758
13416TIP3    H240206   2.211   0.813   5.784
13417TIP3   OH240207   5.493   3.434   1.161
13417TIP3    H140208   5.501   3.365   1.095
13417TIP3    H240209   5.401   3.433   1.186
13418TIP3   OH240210   2.484   6.031   2.437
13418TIP3    H140211   2.497   6.093   2.509
13418TIP3    H240212   2.399   5.991   2.456
13419TIP3   OH240213   4.130   5.025   5.263
13419TIP3    H140214   4.084   5.027   5.347
13419TIP3    H240215   4.113   4.937   5.228
13420TIP3   OH240216   8.283   1.146   5.778
13420TIP3    H140217   8.264   1.076   5.716
13420TIP3    H240218   8.212   1.210   5.767
13421TIP3   OH240219   7.050   4.509   5.737
13421TIP3    H140220   7.062   4.591   5.690
13421TIP3    H240221   7.044   4.442   5.669
13422TIP3   OH240222   0.563   2.443   6.576
13422TIP3    H140223   0.488   2.397   6.537
13422TIP3    H240224   0.525   2.521   6.616
13423TIP3   OH240225   7.246   5.222   5.846
13423TIP3    H140226   7.237   5.209   5.940
13423TIP3    H240227   7.291   5.307   5.838
13424TIP3   OH240228   0.973   4.871   2.459
13424TIP3    H140229   0.936   4.858   2.547
13424TIP3    H240230   1.056   4.916   2.475
13425TIP3   OH240231   3.507   3.768   0.875
13425TIP3    H140232   3.531   3.679   0.849
13425TIP3    H240233   3.422   3.757   0.919
13426TIP3   OH240234   5.904   2.193   0.440
13426TIP3    H140235   5.953   2.111   0.450
13426TIP3    H240236   5.872   2.212   0.528
13427TIP3   OH240237   3.752   0.576   5.416
13427TIP3    H140238   3.784   0.648   5.472
13427TIP3    H240239   3.809   0.578   5.339
13428TIP3   OH240240   5.668   1.999   3.024
13428TIP3    H140241   5.759   2.007   2.995
13428TIP3    H240242   5.626   2.079   2.996
13429TIP3   OH240243   6.752   2.766   3.024
13429TIP3    H140244   6.690   2.723   3.084
13429TIP3    H240245   6.721   2.856   3.018
13430TIP3   OH240246   1.559   6.181   0.108
13430TIP3    H140247   1.586   6.157   0.020
13430TIP3    H240248   1.521   6.269   0.099
13431TIP3   OH240249   6.237   3.460   2.854
13431TIP3    H140250   6.329   3.435   2.849
13431TIP3    H240251   6.189   3.381   2.828
13432TIP3   OH240252   8.030   3.973   2.393
13432TIP3    H140253   7.948   3.967   2.442
13432TIP3    H240254   8.098   3.960   2.459
13433TIP3   OH240255   2.080   2.327   1.532
13433TIP3    H140256   2.164   2.373   1.536
13433TIP3    H240257   2.097   2.249   1.480
13434TIP3   OH240258   0.717   1.757   5.207
13434TIP3    H140259   0.785   1.692   5.192
13434TIP3    H240260   0.659   1.717   5.273
13435TIP3   OH240261   0.698   4.757   5.522
13435TIP3    H140262   0.645   4.766   5.443
13435TIP3    H240263   0.653   4.810   5.588
13436TIP3   OH240264   3.992   3.946   1.758
13436TIP3    H140265   3.998   3.979   1.668
13436TIP3    H240266   3.928   4.003   1.800
13437TIP3   OH240267   0.982   1.910   5.348
13437TIP3    H140268   1.034   1.863   5.414
13437TIP3    H240269   0.966   1.996   5.387
13438TIP3   OH240270   3.877   4.674   0.244
13438TIP3    H140271   3.938   4.615   0.290
13438TIP3    H240272   3.816   4.615   0.201
13439TIP3   OH240273   5.167   2.528   2.218
13439TIP3    H140274   5.223   2.588   2.169
13439TIP3    H240275   5.189   2.441   2.183
13440TIP3   OH240276   7.003   2.365   2.403
13440TIP3    H140277   7.059   2.439   2.379
13440TIP3    H240278   7.062   2.289   2.400
13441TIP3   OH240279   6.840   0.282   1.093
13441TIP3    H140280   6.831   0.340   1.017
13441TIP3    H240281   6.791   0.326   1.162
13442TIP3   OH240282   8.251   5.023   3.682
13442TIP3    H140283   8.183   5.073   3.638
13442TIP3    H240284   8.310   4.995   3.611
13443TIP3   OH240285   2.154   1.586   6.222
13443TIP3    H140286   2.245   1.573   6.197
13443TIP3    H240287   2.103   1.544   6.152
13444TIP3   OH240288   4.481   5.984   3.350
13444TIP3    H140289   4.516   5.946   3.431
13444TIP3    H240290   4.554   6.033   3.313
13445TIP3   OH240291   1.444   3.866   1.417
13445TIP3    H140292   1.480   3.904   1.497
13445TIP3    H240293   1.408   3.941   1.369
13446TIP3   OH240294   1.222   6.277   0.892
13446TIP3    H140295   1.132   6.295   0.866
13446TIP3    H240296   1.217   6.257   0.986
13447TIP3   OH240297   1.517   7.080   0.117
13447TIP3    H140298   1.491   6.997   0.156
13447TIP3    H240299   1.591   7.109   0.171
13448TIP3   OH240300   5.334   2.119   2.897
13448TIP3    H140301   5.425   2.134   2.871
13448TIP3    H240302   5.332   2.145   2.989
13449TIP3   OH240303   7.109   5.969   0.693
13449TIP3    H140304   7.079   6.059   0.679
13449TIP3    H240305   7.081   5.949   0.783
13450TIP3   OH240306   5.888   7.527   3.098
13450TIP3    H140307   5.931   7.443   3.117
13450TIP3    H240308   5.822   7.505   3.032
13451TIP3   OH240309   0.933   5.401   1.330
13451TIP3    H140310   0.880   5.440   1.261
13451TIP3    H240311   0.881   5.411   1.409
13452TIP3   OH240312   1.752   2.323   0.769
13452TIP3    H140313   1.840   2.290   0.783
13452TIP3    H240314   1.696   2.262   0.816
13453TIP3   OH240315   5.876   1.285   6.318
13453TIP3    H140316   5.944   1.323   6.262
13453TIP3    H240317   5.924   1.246   6.391
13454TIP3   OH240318   0.105   3.923   0.480
13454TIP3    H140319   0.050   3.922   0.558
13454TIP3    H240320   0.043   3.921   0.407
13455TIP3   OH240321   1.718   2.735   1.160
13455TIP3    H140322   1.643   2.709   1.214
13455TIP3    H240323   1.760   2.805   1.209
13456TIP3   OH240324   4.414   5.185   0.115
13456TIP3    H140325   4.363   5.171   0.195
13456TIP3    H240326   4.475   5.111   0.112
13457TIP3   OH240327   3.674   5.462   4.320
13457TIP3    H140328   3.693   5.465   4.226
13457TIP3    H240329   3.660   5.553   4.345
13458TIP3   OH240330   3.143   1.395   4.476
13458TIP3    H140331   3.091   1.473   4.459
13458TIP3    H240332   3.231   1.418   4.445
13459TIP3   OH240333   5.592   0.899   6.171
13459TIP3    H140334   5.683   0.903   6.141
13459TIP3    H240335   5.540   0.903   6.091
13460TIP3   OH240336   2.294   6.285   0.324
13460TIP3    H140337   2.369   6.307   0.268
13460TIP3    H240338   2.315   6.325   0.408
13461TIP3   OH240339   2.847   7.074   5.112
13461TIP3    H140340   2.850   7.002   5.174
13461TIP3    H240341   2.778   7.132   5.144
13462TIP3   OH240342   0.413   5.922   5.364
13462TIP3    H140343   0.444   5.969   5.286
13462TIP3    H240344   0.492   5.911   5.418
13463TIP3   OH240345   8.217   4.455   5.982
13463TIP3    H140346   8.265   4.382   6.019
13463TIP3    H240347   8.279   4.528   5.982
13464TIP3   OH240348   6.759   2.252   2.431
13464TIP3    H140349   6.771   2.270   2.338
13464TIP3    H240350   6.840   2.283   2.472
13465TIP3   OH240351   1.002   5.625   2.844
13465TIP3    H140352   1.090   5.595   2.823
13465TIP3    H240353   0.950   5.544   2.846
13466TIP3   OH240354   4.036   4.424   5.634
13466TIP3    H140355   4.008   4.510   5.603
13466TIP3    H240356   4.049   4.372   5.555
13467TIP3   OH240357   3.639   5.146   2.136
13467TIP3    H140358   3.599   5.059   2.136
13467TIP3    H240359   3.719   5.135   2.187
13468TIP3   OH240360   6.537   0.221   3.340
13468TIP3    H140361   6.443   0.212   3.327
13468TIP3    H240362   6.563   0.140   3.384
13469TIP3   OH240363   5.063   7.385   3.108
13469TIP3    H140364   5.006   7.345   3.174
13469TIP3    H240365   5.046   7.335   3.029
13470TIP3   OH240366   1.369   7.133   3.064
13470TIP3    H140367   1.459   7.122   3.094
13470TIP3    H240368   1.319   7.068   3.113
13471TIP3   OH240369   8.121   5.897   5.780
13471TIP3    H140370   8.181   5.919   5.851
13471TIP3    H240371   8.141   5.961   5.712
13472TIP3   OH240372   5.691   5.812   4.382
13472TIP3    H140373   5.652   5.872   4.445
13472TIP3    H240374   5.634   5.817   4.306
13473TIP3   OH240375   3.426   6.877   0.429
13473TIP3    H140376   3.516   6.845   0.426
13473TIP3    H240377   3.391   6.843   0.511
13474TIP3   OH240378   6.931   0.234   1.743
13474TIP3    H140379   6.934   0.148   1.702
13474TIP3    H240380   6.914   0.294   1.671
13475TIP3   OH240381   1.902   3.654   3.270
13475TIP3    H140382   1.810   3.649   3.246
13475TIP3    H240383   1.938   3.568   3.246
13476TIP3   OH240384   4.293   7.252   6.446
13476TIP3    H140385   4.263   7.300   6.368
13476TIP3    H240386   4.282   7.160   6.422
13477TIP3   OH240387   5.163   2.864   0.089
13477TIP3    H140388   5.068   2.868   0.080
13477TIP3    H240389   5.178   2.792   0.150
13478TIP3   OH240390   7.112   1.219   1.948
13478TIP3    H140391   7.063   1.167   1.884
13478TIP3    H240392   7.171   1.156   1.991
13479TIP3   OH240393   1.620   4.657   2.925
13479TIP3    H140394   1.529   4.631   2.913
13479TIP3    H240395   1.629   4.672   3.020
13480TIP3   OH240396   6.195   6.075   1.293
13480TIP3    H140397   6.107   6.085   1.330
13480TIP3    H240398   6.221   5.986   1.318
13481TIP3   OH240399   5.436   4.295   3.416
13481TIP3    H140400   5.530   4.276   3.410
13481TIP3    H240401   5.421   4.310   3.510
13482TIP3   OH240402   3.563   6.185   3.276
13482TIP3    H140403   3.503   6.121   3.315
13482TIP3    H240404   3.525   6.204   3.189
13483TIP3   OH240405   3.581   6.302   0.879
13483TIP3    H140406   3.601   6.295   0.786
13483TIP3    H240407   3.489   6.328   0.882
13484TIP3   OH240408   4.108   6.611   2.386
13484TIP3    H140409   4.035   6.673   2.384
13484TIP3    H240410   4.073   6.531   2.348
13485TIP3   OH240411   3.516   1.390   1.508
13485TIP3    H140412   3.605   1.365   1.482
13485TIP3    H240413   3.504   1.347   1.593
13486TIP3   OH240414   2.903   1.347   1.493
13486TIP3    H140415   2.960   1.271   1.476
13486TIP3    H240416   2.815   1.314   1.475
13487TIP3   OH240417   0.126   7.298   3.945
13487TIP3    H140418   0.046   7.248   3.962
13487TIP3    H240419   0.138   7.291   3.850
13488TIP3   OH240420   4.457   5.531   5.221
13488TIP3    H140421   4.370   5.552   5.187
13488TIP3    H240422   4.440   5.484   5.303
13489TIP3   OH240423   3.749   0.288   5.437
13489TIP3    H140424   3.721   0.370   5.397
13489TIP3    H240425   3.745   0.224   5.365
13490TIP3   OH240426   5.021   0.132   5.291
13490TIP3    H140427   5.090   0.161   5.232
13490TIP3    H240428   4.950   0.195   5.278
13491TIP3   OH240429   1.499   2.710   3.660
13491TIP3    H140430   1.463   2.799   3.668
13491TIP3    H240431   1.496   2.675   3.749
13492TIP3   OH240432   5.527   5.573   0.661
13492TIP3    H140433   5.575   5.494   0.636
13492TIP3    H240434   5.448   5.540   0.703
13493TIP3   OH240435   0.576   1.119   4.456
13493TIP3    H140436   0.634   1.049   4.425
13493TIP3    H240437   0.635   1.194   4.469
13494TIP3   OH240438   4.258   1.032   1.479
13494TIP3    H140439   4.240   0.989   1.395
13494TIP3    H240440   4.300   1.115   1.455
13495TIP3   OH240441   3.098   5.299   5.711
13495TIP3    H140442   3.192   5.295   5.694
13495TIP3    H240443   3.058   5.301   5.623
13496TIP3   OH240444   6.338   4.665   3.585
13496TIP3    H140445   6.296   4.716   3.655
13496TIP3    H240446   6.428   4.654   3.615
13497TIP3   OH240447   1.749   3.007   1.631
13497TIP3    H140448   1.802   3.062   1.688
13497TIP3    H240449   1.771   2.918   1.657
13498TIP3   OH240450   2.506   2.264   0.779
13498TIP3    H140451   2.485   2.331   0.714
13498TIP3    H240452   2.451   2.286   0.855
13499TIP3   OH240453   6.392   5.784   6.057
13499TIP3    H140454   6.371   5.872   6.025
13499TIP3    H240455   6.484   5.788   6.082
13500TIP3   OH240456   7.144   4.270   4.644
13500TIP3    H140457   7.057   4.284   4.606
13500TIP3    H240458   7.127   4.262   4.738
13501TIP3   OH240459   4.934   5.900   3.286
13501TIP3    H140460   5.022   5.862   3.293
13501TIP3    H240461   4.907   5.915   3.377
13502TIP3   OH240462   3.146   3.296   1.955
13502TIP3    H140463   3.161   3.356   2.027
13502TIP3    H240464   3.077   3.238   1.986
13503TIP3   OH240465   6.754   4.464   5.531
13503TIP3    H140466   6.708   4.380   5.522
13503TIP3    H240467   6.846   4.443   5.512
13504TIP3   OH240468   6.507   0.740   6.757
13504TIP3    H140469   6.527   0.833   6.771
13504TIP3    H240470   6.525   0.699   6.842
13505TIP3   OH240471   3.906   4.448   4.948
13505TIP3    H140472   3.880   4.520   5.004
13505TIP3    H240473   3.999   4.435   4.965
13506TIP3   OH240474   1.898   4.676   1.376
13506TIP3    H140475   1.977   4.676   1.323
13506TIP3    H240476   1.926   4.646   1.462
13507TIP3   OH240477   6.009   1.641   2.193
13507TIP3    H140478   5.969   1.557   2.214
13507TIP3    H240479   6.102   1.623   2.186
13508TIP3   OH240480   1.208   3.856   1.800
13508TIP3    H140481   1.281   3.796   1.792
13508TIP3    H240482   1.240   3.925   1.858
13509TIP3   OH240483   2.441   4.105   5.032
13509TIP3    H140484   2.527   4.133   5.065
13509TIP3    H240485   2.438   4.011   5.048
13510TIP3   OH240486   7.555   0.815   2.902
13510TIP3    H140487   7.550   0.749   2.833
13510TIP3    H240488   7.529   0.768   2.981
13511TIP3   OH240489   0.342   3.273   5.984
13511TIP3    H140490   0.411   3.252   6.047
13511TIP3    H240491   0.381   3.339   5.927
13512TIP3   OH240492   0.911   7.323   0.592
13512TIP3    H140493   0.913   7.414   0.622
13512TIP3    H240494   0.958   7.274   0.660
13513TIP3   OH240495   3.427   6.915   3.481
13513TIP3    H140496   3.451   6.846   3.420
13513TIP3    H240497   3.496   6.914   3.548
13514TIP3   OH240498   7.181   0.383   0.687
13514TIP3    H140499   7.268   0.351   0.665
13514TIP3    H240500   7.196   0.454   0.750
13515TIP3   OH240501   4.229   3.780   5.852
13515TIP3    H140502   4.252   3.773   5.760
13515TIP3    H240503   4.168   3.854   5.857
13516TIP3   OH240504   5.643   0.035   3.803
13516TIP3    H140505   5.555   0.044   3.841
13516TIP3    H240506   5.654   0.115   3.752
13517TIP3   OH240507   0.160   6.269   6.336
13517TIP3    H140508   0.109   6.203   6.384
13517TIP3    H240509   0.185   6.333   6.402
13518TIP3   OH240510   6.812   5.243   6.546
13518TIP3    H140511   6.809   5.339   6.553
13518TIP3    H240512   6.876   5.216   6.611
13519TIP3   OH240513   2.741   5.351   5.911
13519TIP3    H140514   2.646   5.355   5.898
13519TIP3    H240515   2.754   5.384   6.000
13520TIP3   OH240516   0.876   3.261   6.102
13520TIP3    H140517   0.891   3.272   6.008
13520TIP3    H240518   0.921   3.336   6.142
13521TIP3   OH240519   3.004   5.174   3.538
13521TIP3    H140520   3.072   5.178   3.606
13521TIP3    H240521   2.988   5.081   3.525
13522TIP3   OH240522   7.057   7.236   0.220
13522TIP3    H140523   6.982   7.190   0.257
13522TIP3    H240524   7.020   7.318   0.187
13523TIP3   OH240525   2.950   3.744   4.647
13523TIP3    H140526   3.030   3.788   4.676
13523TIP3    H240527   2.920   3.696   4.724
13524TIP3   OH240528   3.102   5.816   2.756
13524TIP3    H140529   3.175   5.805   2.695
13524TIP3    H240530   3.065   5.728   2.766
13525TIP3   OH240531   5.573   3.676   2.949
13525TIP3    H140532   5.582   3.582   2.964
13525TIP3    H240533   5.486   3.698   2.983
13526TIP3   OH240534   7.125   6.049   2.964
13526TIP3    H140535   7.156   6.036   2.874
13526TIP3    H240536   7.196   6.018   3.019
13527TIP3   OH240537   3.780   6.842   3.406
13527TIP3    H140538   3.825   6.764   3.440
13527TIP3    H240539   3.805   6.912   3.466
13528TIP3   OH240540   5.260   0.952   1.170
13528TIP3    H140541   5.336   1.002   1.200
13528TIP3    H240542   5.249   0.883   1.236
13529TIP3   OH240543   1.250   1.391   0.048
13529TIP3    H140544   1.314   1.364   0.113
13529TIP3    H240545   1.249   1.320  -0.017
13530TIP3   OH240546   2.753   3.436   4.023
13530TIP3    H140547   2.689   3.498   4.057
13530TIP3    H240548   2.722   3.415   3.935
13531TIP3   OH240549   2.007   5.139   1.014
13531TIP3    H140550   2.003   5.053   1.056
13531TIP3    H240551   1.974   5.200   1.080
13532TIP3   OH240552   1.050   1.701   6.273
13532TIP3    H140553   1.040   1.690   6.368
13532TIP3    H240554   0.979   1.761   6.249
13533TIP3   OH240555   3.485   6.138   3.013
13533TIP3    H140556   3.531   6.069   2.965
13533TIP3    H240557   3.394   6.109   3.014
13534TIP3   OH240558   6.284   2.283   5.029
13534TIP3    H140559   6.272   2.213   5.093
13534TIP3    H240560   6.319   2.240   4.952
13535TIP3   OH240561   5.691   7.208   5.052
13535TIP3    H140562   5.732   7.231   5.135
13535TIP3    H240563   5.704   7.113   5.044
13536TIP3   OH240564   7.947   0.710   1.524
13536TIP3    H140565   7.950   0.689   1.618
13536TIP3    H240566   8.023   0.767   1.510
13537TIP3   OH240567   6.786   2.045   6.730
13537TIP3    H140568   6.853   1.977   6.741
13537TIP3    H240569   6.710   2.011   6.778
13538TIP3   OH240570   5.331   2.768   3.928
13538TIP3    H140571   5.275   2.705   3.973
13538TIP3    H240572   5.272   2.821   3.876
13539TIP3   OH240573   8.181   6.691   0.116
13539TIP3    H140574   8.114   6.644   0.065
13539TIP3    H240575   8.172   6.782   0.089
13540TIP3   OH240576   0.708   7.585   4.185
13540TIP3    H140577   0.658   7.515   4.227
13540TIP3    H240578   0.720   7.553   4.095
13541TIP3   OH240579   6.364   6.899   1.327
13541TIP3    H140580   6.451   6.935   1.313
13541TIP3    H240581   6.373   6.805   1.311
13542TIP3   OH240582   1.770   6.766   2.878
13542TIP3    H140583   1.865   6.768   2.863
13542TIP3    H240584   1.755   6.835   2.943
13543TIP3   OH240585   6.442   2.311   4.319
13543TIP3    H140586   6.477   2.236   4.272
13543TIP3    H240587   6.498   2.384   4.293
13544TIP3   OH240588   5.651   3.906   4.448
13544TIP3    H140589   5.598   3.969   4.399
13544TIP3    H240590   5.643   3.933   4.539
13545TIP3   OH240591   7.959   7.434   0.248
13545TIP3    H140592   7.978   7.341   0.264
13545TIP3    H240593   8.038   7.468   0.206
13546TIP3   OH240594   2.387   7.862   1.394
13546TIP3    H140595   2.403   7.897   1.307
13546TIP3    H240596   2.312   7.804   1.383
13547TIP3   OH240597   3.270   5.214   2.876
13547TIP3    H140598   3.249   5.165   2.796
13547TIP3    H240599   3.224   5.168   2.946
13548TIP3   OH240600   3.595   4.238   6.689
13548TIP3    H140601   3.683   4.273   6.677
13548TIP3    H240602   3.579   4.186   6.610
13549TIP3   OH240603   2.440   3.758   4.145
13549TIP3    H140604   2.501   3.729   4.212
13549TIP3    H240605   2.354   3.753   4.188
13550TIP3   OH240606   6.389   7.514   1.238
13550TIP3    H140607   6.315   7.574   1.244
13550TIP3    H240608   6.439   7.544   1.162
13551TIP3   OH240609   1.074   0.256   1.638
13551TIP3    H140610   1.039   0.271   1.550
13551TIP3    H240611   1.037   0.172   1.664
13552TIP3   OH240612   4.217   3.653   0.981
13552TIP3    H140613   4.258   3.573   0.949
13552TIP3    H240614   4.212   3.711   0.905
13553TIP3   OH240615   1.229   6.215   0.049
13553TIP3    H140616   1.207   6.123   0.037
13553TIP3    H240617   1.183   6.260  -0.022
13554TIP3   OH240618   4.698   2.644   1.920
13554TIP3    H140619   4.737   2.704   1.983
13554TIP3    H240620   4.604   2.658   1.927
13555TIP3   OH240621   5.535   5.170   0.355
13555TIP3    H140622   5.444   5.142   0.369
13555TIP3    H240623   5.561   5.210   0.438
13556TIP3   OH240624   2.476   2.920   1.137
13556TIP3    H140625   2.385   2.892   1.142
13556TIP3    H240626   2.520   2.871   1.206
13557TIP3   OH240627   7.780   7.131   2.731
13557TIP3    H140628   7.811   7.144   2.821
13557TIP3    H240629   7.794   7.216   2.689
13558TIP3   OH240630   5.570   7.769   3.197
13558TIP3    H140631   5.575   7.686   3.244
13558TIP3    H240632   5.477   7.779   3.177
13559TIP3   OH240633   3.515   0.647   2.963
13559TIP3    H140634   3.517   0.577   2.897
13559TIP3    H240635   3.527   0.728   2.914
13560TIP3   OH240636   3.274   1.540   6.334
13560TIP3    H140637   3.243   1.624   6.369
13560TIP3    H240638   3.295   1.488   6.411
13561TIP3   OH240639   1.114   7.068   3.130
13561TIP3    H140640   1.068   7.063   3.046
13561TIP3    H240641   1.049   7.103   3.191
13562TIP3   OH240642   3.201   6.939   5.595
13562TIP3    H140643   3.107   6.924   5.593
13562TIP3    H240644   3.239   6.866   5.546
13563TIP3   OH240645   3.073   2.350   2.390
13563TIP3    H140646   3.139   2.297   2.434
13563TIP3    H240647   3.004   2.288   2.367
13564TIP3   OH240648   6.931   1.946   5.568
13564TIP3    H140649   7.000   1.931   5.503
13564TIP3    H240650   6.934   1.869   5.624
13565TIP3   OH240651   7.147   1.667   2.975
13565TIP3    H140652   7.188   1.731   3.032
13565TIP3    H240653   7.157   1.703   2.887
13566TIP3   OH240654   5.358   3.091   6.339
13566TIP3    H140655   5.264   3.076   6.338
13566TIP3    H240656   5.368   3.184   6.316
13567TIP3   OH240657   3.635   6.098   1.512
13567TIP3    H140658   3.566   6.095   1.445
13567TIP3    H240659   3.621   6.181   1.558
13568TIP3   OH240660  -0.038   3.024   6.272
13568TIP3    H140661  -0.066   2.957   6.210
13568TIP3    H240662   0.039   3.063   6.232
13569TIP3   OH240663   5.817   4.579   6.661
13569TIP3    H140664   5.904   4.614   6.681
13569TIP3    H240665   5.781   4.554   6.746
13570TIP3   OH240666   0.900   1.882   2.701
13570TIP3    H140667   0.931   1.798   2.667
13570TIP3    H240668   0.811   1.890   2.666
13571TIP3   OH240669   4.549   0.132   5.918
13571TIP3    H140670   4.456   0.144   5.933
13571TIP3    H240671   4.587   0.121   6.006
13572TIP3   OH240672   2.587   4.133   0.159
13572TIP3    H140673   2.626   4.215   0.190
13572TIP3    H240674   2.578   4.079   0.238
13573TIP3   OH240675   5.910   7.720   3.790
13573TIP3    H140676   5.886   7.781   3.721
13573TIP3    H240677   5.829   7.673   3.809
13574TIP3   OH240678   1.911   6.681   5.131
13574TIP3    H140679   1.940   6.591   5.149
13574TIP3    H240680   1.872   6.676   5.044
13575TIP3   OH240681   3.967   1.944   4.296
13575TIP3    H140682   4.011   2.028   4.309
13575TIP3    H240683   3.888   1.965   4.246
13576TIP3   OH240684   4.581   4.001   6.660
13576TIP3    H140685   4.620   4.027   6.576
13576TIP3    H240686   4.492   4.036   6.657
13577TIP3   OH240687   2.792   6.009   0.135
13577TIP3    H140688   2.828   5.926   0.164
13577TIP3    H240689   2.707   5.987   0.097
13578TIP3   OH240690   5.468   1.064   5.914
13578TIP3    H140691   5.392   1.049   5.970
13578TIP3    H240692   5.488   0.978   5.878
13579TIP3   OH240693   1.045   2.946   0.392
13579TIP3    H140694   1.016   2.906   0.310
13579TIP3    H240695   1.091   3.025   0.365
13580TIP3   OH240696   2.527   6.565   6.178
13580TIP3    H140697   2.587   6.607   6.117
13580TIP3    H240698   2.501   6.635   6.238
13581TIP3   OH240699   5.251   3.060   5.710
13581TIP3    H140700   5.203   3.127   5.759
13581TIP3    H240701   5.278   3.104   5.630
13582TIP3   OH240702   6.153   3.011   0.896
13582TIP3    H140703   6.206   3.065   0.838
13582TIP3    H240704   6.212   2.942   0.925
13583TIP3   OH240705   7.459   7.584   4.755
13583TIP3    H140706   7.443   7.666   4.801
13583TIP3    H240707   7.555   7.576   4.752
13584TIP3   OH240708   2.649   6.959   0.512
13584TIP3    H140709   2.716   7.027   0.506
13584TIP3    H240710   2.648   6.934   0.604
13585TIP3   OH240711   7.124   5.087   4.163
13585TIP3    H140712   7.170   5.096   4.080
13585TIP3    H240713   7.149   5.165   4.213
13586TIP3   OH240714   3.093   3.588   6.108
13586TIP3    H140715   3.160   3.550   6.051
13586TIP3    H240716   3.030   3.516   6.122
13587TIP3   OH240717   6.946   2.608   3.552
13587TIP3    H140718   7.033   2.572   3.540
13587TIP3    H240719   6.892   2.564   3.487
13588TIP3   OH240720   1.834   7.520   6.451
13588TIP3    H140721   1.773   7.452   6.480
13588TIP3    H240722   1.781   7.599   6.448
13589TIP3   OH240723   6.988   6.144   1.416
13589TIP3    H140724   7.068   6.155   1.365
13589TIP3    H240725   6.924   6.110   1.354
13590TIP3   OH240726   4.256   7.525   1.452
13590TIP3    H140727   4.217   7.547   1.367
13590TIP3    H240728   4.337   7.479   1.430
13591TIP3   OH240729   0.829   4.084   0.064
13591TIP3    H140730   0.875   4.164   0.090
13591TIP3    H240731   0.767   4.112  -0.003
13592TIP3   OH240732   7.042   6.428   3.320
13592TIP3    H140733   7.084   6.343   3.336
13592TIP3    H240734   7.097   6.471   3.254
13593TIP3   OH240735   6.836   5.400   0.550
13593TIP3    H140736   6.791   5.471   0.597
13593TIP3    H240737   6.852   5.435   0.463
13594TIP3   OH240738   2.914   4.775   0.944
13594TIP3    H140739   2.930   4.692   0.987
13594TIP3    H240740   2.820   4.776   0.926
13595TIP3   OH240741   3.838   7.466   4.747
13595TIP3    H140742   3.775   7.502   4.809
13595TIP3    H240743   3.917   7.519   4.757
13596TIP3   OH240744   2.262   6.385   2.825
13596TIP3    H140745   2.333   6.325   2.848
13596TIP3    H240746   2.307   6.461   2.787
13597TIP3   OH240747   7.396   5.643   0.703
13597TIP3    H140748   7.386   5.732   0.669
13597TIP3    H240749   7.440   5.653   0.787
13598TIP3   OH240750   1.030   7.221   2.019
13598TIP3    H140751   1.004   7.213   1.927
13598TIP3    H240752   1.039   7.130   2.049
13599TIP3   OH240753   1.384   1.548   3.434
13599TIP3    H140754   1.440   1.492   3.488
13599TIP3    H240755   1.423   1.635   3.440
13600TIP3   OH240756   7.079   5.589   1.395
13600TIP3    H140757   7.069   5.498   1.367
13600TIP3    H240758   6.994   5.612   1.434
13601TIP3   OH240759   3.404   5.586   5.984
13601TIP3    H140760   3.484   5.638   5.996
13601TIP3    H240761   3.334   5.643   6.016
13602TIP3   OH240762   7.506   0.371   4.966
13602TIP3    H140763   7.533   0.426   4.893
13602TIP3    H240764   7.416   0.345   4.944
13603TIP3   OH240765   1.003   6.943   6.378
13603TIP3    H140766   1.022   7.006   6.447
13603TIP3    H240767   1.056   6.866   6.401
13604TIP3   OH240768   1.143   1.117   4.003
13604TIP3    H140769   1.103   1.137   4.088
13604TIP3    H240770   1.218   1.176   3.998
13605TIP3   OH240771   3.250   6.931   2.476
13605TIP3    H140772   3.299   6.920   2.395
13605TIP3    H240773   3.163   6.896   2.457
13606TIP3   OH240774   6.961   4.909   3.920
13606TIP3    H140775   6.924   4.900   3.833
13606TIP3    H240776   7.029   4.976   3.911
13607TIP3   OH240777   7.239   6.795   1.885
13607TIP3    H140778   7.195   6.849   1.820
13607TIP3    H240779   7.170   6.768   1.945
13608TIP3   OH240780   1.818   7.168   0.838
13608TIP3    H140781   1.874   7.148   0.764
13608TIP3    H240782   1.771   7.086   0.856
13609TIP3   OH240783   3.357   5.685   0.966
13609TIP3    H140784   3.280   5.649   1.011
13609TIP3    H240785   3.393   5.749   1.026
13610TIP3   OH240786   2.113   6.472   4.809
13610TIP3    H140787   2.066   6.427   4.879
13610TIP3    H240788   2.194   6.421   4.797
13611TIP3   OH240789   2.291   3.584   0.576
13611TIP3    H140790   2.358   3.652   0.583
13611TIP3    H240791   2.266   3.565   0.666
13612TIP3   OH240792   7.774   7.824   0.533
13612TIP3    H140793   7.754   7.884   0.605
13612TIP3    H240794   7.805   7.880   0.462
13613TIP3   OH240795   5.370   4.453   4.160
13613TIP3    H140796   5.455   4.429   4.197
13613TIP3    H240797   5.360   4.396   4.084
13614TIP3   OH240798   7.822   2.783   0.413
13614TIP3    H140799   7.751   2.844   0.393
13614TIP3    H240800   7.853   2.810   0.499
13615TIP3   OH240801   0.535   4.549   3.437
13615TIP3    H140802   0.490   4.612   3.381
13615TIP3    H240803   0.464   4.495   3.473
13616TIP3   OH240804   2.348   1.643   2.211
13616TIP3    H140805   2.410   1.685   2.151
13616TIP3    H240806   2.379   1.666   2.298
13617TIP3   OH240807   4.534   1.401   4.782
13617TIP3    H140808   4.607   1.395   4.844
13617TIP3    H240809   4.576   1.417   4.698
13618TIP3   OH240810   5.627   1.074   5.205
13618TIP3    H140811   5.542   1.030   5.205
13618TIP3    H240812   5.684   1.015   5.155
13619TIP3   OH240813   4.904   5.326   3.638
13619TIP3    H140814   4.875   5.406   3.682
13619TIP3    H240815   4.863   5.330   3.551
13620TIP3   OH240816   0.132   5.429   4.961
13620TIP3    H140817   0.112   5.503   5.019
13620TIP3    H240818   0.115   5.462   4.873
13621TIP3   OH240819   0.104   1.355   0.686
13621TIP3    H140820   0.067   1.368   0.773
13621TIP3    H240821   0.029   1.363   0.627
13622TIP3   OH240822   4.135   1.310   5.942
13622TIP3    H140823   4.123   1.382   5.880
13622TIP3    H240824   4.047   1.292   5.975
13623TIP3   OH240825   2.145   5.132   3.364
13623TIP3    H140826   2.058   5.096   3.378
13623TIP3    H240827   2.152   5.143   3.269
13624TIP3   OH240828   0.942   0.916   3.312
13624TIP3    H140829   0.931   0.990   3.253
13624TIP3    H240830   1.027   0.931   3.354
13625TIP3   OH240831   2.449   6.728   3.792
13625TIP3    H140832   2.401   6.803   3.827
13625TIP3    H240833   2.473   6.677   3.870
13626TIP3   OH240834   3.780   2.962   4.328
13626TIP3    H140835   3.869   2.994   4.313
13626TIP3    H240836   3.792   2.881   4.378
13627TIP3   OH240837   3.710   5.138   0.208
13627TIP3    H140838   3.679   5.053   0.176
13627TIP3    H240839   3.792   5.119   0.253
13628TIP3   OH240840   2.368   7.333   2.930
13628TIP3    H140841   2.357   7.396   2.858
13628TIP3    H240842   2.459   7.303   2.922
13629TIP3   OH240843   7.663   4.093   5.300
13629TIP3    H140844   7.739   4.151   5.295
13629TIP3    H240845   7.657   4.070   5.393
13630TIP3   OH240846   7.753   6.598   5.901
13630TIP3    H140847   7.689   6.622   5.834
13630TIP3    H240848   7.708   6.535   5.956
13631TIP3   OH240849   0.781   6.207   0.789
13631TIP3    H140850   0.760   6.262   0.865
13631TIP3    H240851   0.864   6.166   0.812
13632TIP3   OH240852   5.707   7.299   6.588
13632TIP3    H140853   5.736   7.265   6.673
13632TIP3    H240854   5.787   7.331   6.547
13633TIP3   OH240855   4.562   0.348   3.997
13633TIP3    H140856   4.560   0.255   4.022
13633TIP3    H240857   4.606   0.349   3.912
13634TIP3   OH240858   4.059   6.102   3.847
13634TIP3    H140859   4.130   6.092   3.912
13634TIP3    H240860   3.984   6.130   3.899
13635TIP3   OH240861   8.182   6.957   1.415
13635TIP3    H140862   8.190   6.988   1.325
13635TIP3    H240863   8.128   6.878   1.409
13636TIP3   OH240864   4.029   6.113   6.043
13636TIP3    H140865   4.093   6.174   6.006
13636TIP3    H240866   4.081   6.047   6.088
13637TIP3   OH240867   8.315   3.005   5.196
13637TIP3    H140868   8.293   3.008   5.289
13637TIP3    H240869   8.232   2.985   5.152
13638TIP3   OH240870   1.377   2.944   3.800
13638TIP3    H140871   1.472   2.938   3.813
13638TIP3    H240872   1.363   3.034   3.769
13639TIP3   OH240873   3.736   0.234   2.250
13639TIP3    H140874   3.707   0.254   2.161
13639TIP3    H240875   3.755   0.140   2.248
13640TIP3   OH240876   0.515   0.102   3.086
13640TIP3    H140877   0.486   0.031   3.028
13640TIP3    H240878   0.438   0.156   3.098
13641TIP3   OH240879   0.614   5.868   2.056
13641TIP3    H140880   0.557   5.936   2.093
13641TIP3    H240881   0.589   5.864   1.964
13642TIP3   OH240882   3.536   7.793   2.391
13642TIP3    H140883   3.487   7.830   2.464
13642TIP3    H240884   3.587   7.721   2.430
13643TIP3   OH240885   0.199   0.810   3.694
13643TIP3    H140886   0.228   0.823   3.603
13643TIP3    H240887   0.222   0.892   3.738
13644TIP3   OH240888   1.285   2.558   0.740
13644TIP3    H140889   1.314   2.555   0.649
13644TIP3    H240890   1.365   2.547   0.792
13645TIP3   OH240891   6.382   7.722   5.676
13645TIP3    H140892   6.430   7.799   5.710
13645TIP3    H240893   6.353   7.676   5.755
13646TIP3   OH240894   3.969   2.943   5.966
13646TIP3    H140895   4.006   2.944   6.054
13646TIP3    H240896   3.880   2.977   5.977
13647TIP3   OH240897   5.521   1.597   1.769
13647TIP3    H140898   5.517   1.589   1.865
13647TIP3    H240899   5.612   1.575   1.747
13648TIP3   OH240900   3.923   0.621   5.208
13648TIP3    H140901   3.938   0.713   5.230
13648TIP3    H240902   4.003   0.576   5.235
13649TIP3   OH240903   6.764   7.696   5.537
13649TIP3    H140904   6.724   7.681   5.451
13649TIP3    H240905   6.821   7.620   5.550
13650TIP3   OH240906   0.469   3.480   0.031
13650TIP3    H140907   0.512   3.542   0.090
13650TIP3    H240908   0.455   3.402   0.084
13651TIP3   OH240909   7.535   4.603   3.002
13651TIP3    H140910   7.590   4.661   3.054
13651TIP3    H240911   7.552   4.629   2.911
13652TIP3   OH240912   0.198   0.984   6.267
13652TIP3    H140913   0.115   0.936   6.266
13652TIP3    H240914   0.210   1.012   6.176
13653TIP3   OH240915   2.775   2.859   3.091
13653TIP3    H140916   2.858   2.896   3.122
13653TIP3    H240917   2.755   2.789   3.152
13654TIP3   OH240918   6.804   4.228   0.411
13654TIP3    H140919   6.737   4.161   0.420
13654TIP3    H240920   6.826   4.252   0.501
13655TIP3   OH240921   4.571   2.281   3.091
13655TIP3    H140922   4.620   2.290   3.172
13655TIP3    H240923   4.537   2.370   3.074
13656TIP3   OH240924   2.734   1.899   1.843
13656TIP3    H140925   2.642   1.890   1.816
13656TIP3    H240926   2.737   1.860   1.930
13657TIP3   OH240927   2.259   3.814   1.485
13657TIP3    H140928   2.186   3.758   1.511
13657TIP3    H240929   2.318   3.756   1.437
13658TIP3   OH240930   7.044   6.039   2.683
13658TIP3    H140931   7.050   5.952   2.645
13658TIP3    H240932   7.086   6.096   2.618
13659TIP3   OH240933   2.863   0.793   1.444
13659TIP3    H140934   2.948   0.779   1.484
13659TIP3    H240935   2.882   0.820   1.355
13660TIP3   OH240936   6.565   5.568   5.883
13660TIP3    H140937   6.640   5.511   5.897
13660TIP3    H240938   6.495   5.529   5.936
13661TIP3   OH240939   1.798   1.621   5.437
13661TIP3    H140940   1.843   1.693   5.393
13661TIP3    H240941   1.779   1.558   5.368
13662TIP3   OH240942   7.627   6.194   4.063
13662TIP3    H140943   7.718   6.217   4.047
13662TIP3    H240944   7.624   6.177   4.157
13663TIP3   OH240945   0.846   4.251   3.821
13663TIP3    H140946   0.816   4.334   3.859
13663TIP3    H240947   0.804   4.184   3.874
13664TIP3   OH240948   1.466   7.070   5.416
13664TIP3    H140949   1.471   6.975   5.407
13664TIP3    H240950   1.470   7.103   5.326
13665TIP3   OH240951   6.752   3.086   0.188
13665TIP3    H140952   6.773   3.179   0.193
13665TIP3    H240953   6.730   3.063   0.278
13666TIP3   OH240954   1.138   5.099   1.056
13666TIP3    H140955   1.149   5.013   1.016
13666TIP3    H240956   1.193   5.158   1.004
13667TIP3   OH240957   2.643   0.639   3.421
13667TIP3    H140958   2.593   0.695   3.362
13667TIP3    H240959   2.576   0.592   3.472
13668TIP3   OH240960   0.933   5.862   2.920
13668TIP3    H140961   1.024   5.891   2.925
13668TIP3    H240962   0.938   5.768   2.903
13669TIP3   OH240963   7.166   7.236   1.660
13669TIP3    H140964   7.158   7.237   1.756
13669TIP3    H240965   7.111   7.163   1.632
13670TIP3   OH240966   6.038   3.927   2.369
13670TIP3    H140967   6.105   3.932   2.301
13670TIP3    H240968   5.995   4.013   2.367
13671TIP3   OH240969   3.247   7.219   3.058
13671TIP3    H140970   3.273   7.171   3.136
13671TIP3    H240971   3.235   7.309   3.088
13672TIP3   OH240972   8.177   3.844   6.133
13672TIP3    H140973   8.093   3.890   6.131
13672TIP3    H240974   8.209   3.849   6.043
13673TIP3   OH240975   5.723   6.989   3.069
13673TIP3    H140976   5.651   6.927   3.080
13673TIP3    H240977   5.783   6.969   3.142
13674TIP3   OH240978   4.447   6.605   2.543
13674TIP3    H140979   4.364   6.652   2.534
13674TIP3    H240980   4.515   6.672   2.529
13675TIP3   OH240981   8.182   5.806   1.799
13675TIP3    H140982   8.225   5.891   1.803
13675TIP3    H240983   8.181   5.775   1.890
13676TIP3   OH240984   0.133   2.444   0.754
13676TIP3    H140985   0.068   2.426   0.823
13676TIP3    H240986   0.102   2.395   0.678
13677TIP3   OH240987   7.564   3.327   4.443
13677TIP3    H140988   7.481   3.372   4.460
13677TIP3    H240989   7.585   3.284   4.526
13678TIP3   OH240990   3.189   4.518   5.257
13678TIP3    H140991   3.178   4.585   5.325
13678TIP3    H240992   3.100   4.498   5.229
13679TIP3   OH240993   3.075   6.323   4.558
13679TIP3    H140994   3.034   6.390   4.612
13679TIP3    H240995   3.034   6.241   4.586
13680TIP3   OH240996   3.454   7.593   1.228
13680TIP3    H140997   3.540   7.624   1.199
13680TIP3    H240998   3.393   7.626   1.162
13681TIP3   OH240999   4.640   7.384   1.759
13681TIP3    H141000   4.568   7.337   1.802
13681TIP3    H241001   4.678   7.320   1.699
13682TIP3   OH241002   2.292   2.876   2.473
13682TIP3    H141003   2.214   2.920   2.508
13682TIP3    H241004   2.348   2.860   2.549
13683TIP3   OH241005   6.234   4.326   5.636
13683TIP3    H141006   6.304   4.389   5.620
13683TIP3    H241007   6.265   4.245   5.596
13684TIP3   OH241008   3.079   5.148   5.192
13684TIP3    H141009   2.999   5.110   5.157
13684TIP3    H241010   3.120   5.192   5.118
13685TIP3   OH241011   4.248   1.623   0.312
13685TIP3    H141012   4.340   1.637   0.291
13685TIP3    H241013   4.234   1.670   0.394
13686TIP3   OH241014   1.726   1.547   5.980
13686TIP3    H141015   1.690   1.521   6.065
13686TIP3    H241016   1.670   1.619   5.951
13687TIP3   OH241017   0.173   2.111   4.356
13687TIP3    H141018   0.203   2.028   4.393
13687TIP3    H241019   0.148   2.090   4.266
13688TIP3   OH241020   4.478   2.743   3.833
13688TIP3    H141021   4.418   2.818   3.838
13688TIP3    H241022   4.453   2.699   3.752
13689TIP3   OH241023   2.794   5.857   5.663
13689TIP3    H141024   2.842   5.906   5.731
13689TIP3    H241025   2.755   5.925   5.608
13690TIP3   OH241026   4.338   4.060   1.271
13690TIP3    H141027   4.382   4.099   1.195
13690TIP3    H241028   4.395   3.987   1.296
13691TIP3   OH241029   1.560   2.074   6.600
13691TIP3    H141030   1.523   2.016   6.533
13691TIP3    H241031   1.649   2.042   6.612
13692TIP3   OH241032   7.544   4.809   1.500
13692TIP3    H141033   7.628   4.795   1.456
13692TIP3    H241034   7.528   4.903   1.492
13693TIP3   OH241035   2.287   5.881   2.565
13693TIP3    H141036   2.257   5.791   2.551
13693TIP3    H241037   2.207   5.932   2.574
13694TIP3   OH241038   2.492   4.014   0.391
13694TIP3    H141039   2.551   3.971   0.453
13694TIP3    H241040   2.487   4.105   0.421
13695TIP3   OH241041   2.753   5.003   6.637
13695TIP3    H141042   2.831   4.949   6.625
13695TIP3    H241043   2.684   4.941   6.658
13696TIP3   OH241044   0.799   3.269   6.559
13696TIP3    H141045   0.831   3.201   6.619
13696TIP3    H241046   0.756   3.221   6.489
13697TIP3   OH241047   0.764   0.189   5.633
13697TIP3    H141048   0.737   0.281   5.638
13697TIP3    H241049   0.827   0.178   5.704
13698TIP3   OH241050   0.780   1.938   2.337
13698TIP3    H141051   0.744   1.891   2.412
13698TIP3    H241052   0.816   1.870   2.281
13699TIP3   OH241053   2.125   1.383   3.937
13699TIP3    H141054   2.162   1.326   4.004
13699TIP3    H241055   2.182   1.372   3.861
13700TIP3   OH241056   2.683   0.279   2.638
13700TIP3    H141057   2.627   0.339   2.689
13700TIP3    H241058   2.732   0.337   2.580
13701TIP3   OH241059   5.671   2.486   0.023
13701TIP3    H141060   5.739   2.473  -0.043
13701TIP3    H241061   5.652   2.399   0.056
13702TIP3   OH241062   6.637   6.703   6.137
13702TIP3    H141063   6.549   6.704   6.099
13702TIP3    H241064   6.647   6.790   6.176
13703TIP3   OH241065   6.148   6.428   1.324
13703TIP3    H141066   6.052   6.430   1.317
13703TIP3    H241067   6.165   6.357   1.386
13704TIP3   OH241068   4.523   3.937   4.709
13704TIP3    H141069   4.507   4.031   4.712
13704TIP3    H241070   4.438   3.899   4.688
13705TIP3   OH241071   1.135   4.794   0.504
13705TIP3    H141072   1.084   4.719   0.536
13705TIP3    H241073   1.082   4.830   0.433
13706TIP3   OH241074   1.080   6.294   6.707
13706TIP3    H141075   1.019   6.222   6.693
13706TIP3    H241076   1.033   6.354   6.765
13707TIP3   OH241077   5.098   0.512   3.224
13707TIP3    H141078   5.093   0.565   3.304
13707TIP3    H241079   5.093   0.576   3.153
13708TIP3   OH241080   4.273   4.830   1.105
13708TIP3    H141081   4.204   4.891   1.079
13708TIP3    H241082   4.324   4.879   1.170
13709TIP3   OH241083   2.669   5.328   1.683
13709TIP3    H141084   2.751   5.355   1.726
13709TIP3    H241085   2.615   5.407   1.682
13710TIP3   OH241086   0.357   1.499   0.289
13710TIP3    H141087   0.350   1.511   0.195
13710TIP3    H241088   0.374   1.587   0.324
13711TIP3   OH241089   8.186   7.357   3.662
13711TIP3    H141090   8.202   7.392   3.575
13711TIP3    H241091   8.269   7.316   3.687
13712TIP3   OH241092   6.600   7.477   0.506
13712TIP3    H141093   6.685   7.441   0.533
13712TIP3    H241094   6.537   7.410   0.532
13713TIP3   OH241095   3.435   6.483   1.153
13713TIP3    H141096   3.404   6.484   1.243
13713TIP3    H241097   3.530   6.475   1.161
13714TIP3   OH241098   1.088   7.355   5.680
13714TIP3    H141099   1.170   7.357   5.729
13714TIP3    H241100   1.082   7.442   5.641
13715TIP3   OH241101   2.867   0.972   2.481
13715TIP3    H141102   2.778   0.951   2.507
13715TIP3    H241103   2.868   0.958   2.386
13716TIP3   OH241104   2.272   7.246   4.775
13716TIP3    H141105   2.232   7.258   4.861
13716TIP3    H241106   2.209   7.283   4.714
13717TIP3   OH241107   4.706   2.242   2.810
13717TIP3    H141108   4.729   2.245   2.903
13717TIP3    H241109   4.708   2.334   2.783
13718TIP3   OH241110   7.678   5.600   2.178
13718TIP3    H141111   7.675   5.518   2.228
13718TIP3    H241112   7.771   5.613   2.158
13719TIP3   OH241113   6.564   0.522   2.345
13719TIP3    H141114   6.518   0.577   2.408
13719TIP3    H241115   6.497   0.461   2.314
13720TIP3   OH241116   0.449   7.377   3.327
13720TIP3    H141117   0.530   7.389   3.277
13720TIP3    H241118   0.383   7.354   3.261
13721TIP3   OH241119   4.500   3.733   0.609
13721TIP3    H141120   4.414   3.691   0.599
13721TIP3    H241121   4.497   3.809   0.551
13722TIP3   OH241122   2.548   0.164   2.110
13722TIP3    H141123   2.603   0.188   2.035
13722TIP3    H241124   2.548   0.068   2.109
13723TIP3   OH241125   2.441   5.592   6.233
13723TIP3    H141126   2.508   5.660   6.237
13723TIP3    H241127   2.466   5.530   6.302
13724TIP3   OH241128   5.643   2.937   2.930
13724TIP3    H141129   5.554   2.953   2.960
13724TIP3    H241130   5.632   2.890   2.848
13725TIP3   OH241131   6.675   1.357   4.861
13725TIP3    H141132   6.684   1.422   4.792
13725TIP3    H241133   6.743   1.292   4.842
13726TIP3   OH241134   1.955   1.834   1.673
13726TIP3    H141135   1.880   1.865   1.724
13726TIP3    H241136   1.917   1.778   1.605
13727TIP3   OH241137   5.053   4.929   1.056
13727TIP3    H141138   5.036   5.022   1.039
13727TIP3    H241139   5.136   4.928   1.104
13728TIP3   OH241140   5.473   5.962   3.825
13728TIP3    H141141   5.531   5.942   3.752
13728TIP3    H241142   5.446   5.876   3.858
13729TIP3   OH241143   4.927   0.518   3.665
13729TIP3    H141144   4.870   0.458   3.713
13729TIP3    H241145   4.953   0.583   3.731
13730TIP3   OH241146   1.265   7.736   1.572
13730TIP3    H141147   1.328   7.665   1.560
13730TIP3    H241148   1.232   7.755   1.485
13731TIP3   OH241149   1.505   1.331   2.649
13731TIP3    H141150   1.523   1.240   2.626
13731TIP3    H241151   1.560   1.348   2.725
13732TIP3   OH241152   3.687   6.476   4.272
13732TIP3    H141153   3.778   6.469   4.298
13732TIP3    H241154   3.688   6.537   4.198
13733TIP3   OH241155   3.295   6.022   0.413
13733TIP3    H141156   3.216   6.015   0.466
13733TIP3    H241157   3.266   6.000   0.324
13734TIP3   OH241158   3.279   4.142   1.529
13734TIP3    H141159   3.228   4.095   1.595
13734TIP3    H241160   3.327   4.074   1.482
13735TIP3   OH241161   5.724   0.540   3.638
13735TIP3    H141162   5.755   0.607   3.577
13735TIP3    H241163   5.629   0.551   3.639
13736TIP3   OH241164   3.667   4.550   4.032
13736TIP3    H141165   3.733   4.515   4.091
13736TIP3    H241166   3.701   4.533   3.945
13737TIP3   OH241167   7.724   3.178   4.165
13737TIP3    H141168   7.685   3.097   4.132
13737TIP3    H241169   7.660   3.246   4.144
13738TIP3   OH241170   2.017   5.997   0.390
13738TIP3    H141171   2.069   6.019   0.312
13738TIP3    H241172   1.928   5.988   0.357
13739TIP3   OH241173   2.141   4.736   0.522
13739TIP3    H141174   2.108   4.722   0.611
13739TIP3    H241175   2.083   4.683   0.467
13740TIP3   OH241176   7.916   3.884   4.234
13740TIP3    H141177   7.956   3.833   4.305
13740TIP3    H241178   7.965   3.860   4.156
13741TIP3   OH241179   1.791   6.463   4.795
13741TIP3    H141180   1.829   6.434   4.713
13741TIP3    H241181   1.809   6.392   4.857
13742TIP3   OH241182   0.648   5.062   2.224
13742TIP3    H141183   0.718   4.998   2.208
13742TIP3    H241184   0.571   5.009   2.243
13743TIP3   OH241185   6.819   3.302   3.821
13743TIP3    H141186   6.766   3.241   3.770
13743TIP3    H241187   6.815   3.268   3.910
13744TIP3   OH241188   4.638   1.379   3.413
13744TIP3    H141189   4.554   1.343   3.385
13744TIP3    H241190   4.697   1.363   3.339
13745TIP3   OH241191   5.652   7.590   3.825
13745TIP3    H141192   5.577   7.599   3.766
13745TIP3    H241193   5.683   7.500   3.812
13746TIP3   OH241194   3.166   3.434   1.498
13746TIP3    H141195   3.259   3.413   1.486
13746TIP3    H241196   3.140   3.382   1.574
13747TIP3   OH241197   7.499   2.500   0.850
13747TIP3    H141198   7.488   2.593   0.828
13747TIP3    H241199   7.513   2.499   0.945
13748TIP3   OH241200   6.989   6.537   0.489
13748TIP3    H141201   7.010   6.540   0.582
13748TIP3    H241202   6.894   6.545   0.485
13749TIP3   OH241203   6.377   2.622   1.323
13749TIP3    H141204   6.451   2.623   1.384
13749TIP3    H241205   6.312   2.566   1.366
13750TIP3   OH241206   5.851   1.715   5.864
13750TIP3    H141207   5.786   1.644   5.866
13750TIP3    H241208   5.799   1.795   5.876
13751TIP3   OH241209   1.122   6.941   0.513
13751TIP3    H141210   1.180   6.899   0.576
13751TIP3    H241211   1.108   6.876   0.444
13752TIP3   OH241212   7.898   4.794   0.747
13752TIP3    H141213   7.934   4.882   0.753
13752TIP3    H241214   7.949   4.743   0.810
13753TIP3   OH241215   5.217   2.172   0.192
13753TIP3    H141216   5.244   2.104   0.254
13753TIP3    H241217   5.122   2.177   0.202
13754TIP3   OH241218   6.852   4.983   1.613
13754TIP3    H141219   6.800   4.914   1.571
13754TIP3    H241220   6.788   5.037   1.659
13755TIP3   OH241221   1.738   2.339   1.124
13755TIP3    H141222   1.780   2.423   1.109
13755TIP3    H241223   1.808   2.274   1.109
13756TIP3   OH241224   3.323   1.510   6.070
13756TIP3    H141225   3.414   1.540   6.062
13756TIP3    H241226   3.305   1.515   6.164
13757TIP3   OH241227   1.336   1.994   5.542
13757TIP3    H141228   1.312   2.087   5.538
13757TIP3    H241229   1.407   1.985   5.479
13758TIP3   OH241230   3.853   2.756   2.278
13758TIP3    H141231   3.840   2.777   2.186
13758TIP3    H241232   3.839   2.839   2.324
13759TIP3   OH241233   5.629   3.676   4.618
13759TIP3    H141234   5.711   3.725   4.616
13759TIP3    H241235   5.589   3.692   4.532
13760TIP3   OH241236   2.873   6.503   1.390
13760TIP3    H141237   2.944   6.493   1.325
13760TIP3    H241238   2.794   6.512   1.338
13761TIP3   OH241239   0.116   4.794   4.301
13761TIP3    H141240   0.079   4.710   4.273
13761TIP3    H241241   0.072   4.859   4.247
13762TIP3   OH241242   3.241   6.638   3.313
13762TIP3    H141243   3.238   6.729   3.285
13762TIP3    H241244   3.313   6.635   3.376
13763TIP3   OH241245   1.520   2.178   1.113
13763TIP3    H141246   1.527   2.150   1.021
13763TIP3    H241247   1.587   2.246   1.122
13764TIP3   OH241248   3.771   4.086   0.885
13764TIP3    H141249   3.722   4.131   0.953
13764TIP3    H241250   3.710   4.078   0.812
13765TIP3   OH241251   1.440   6.852   0.305
13765TIP3    H141252   1.354   6.811   0.315
13765TIP3    H241253   1.472   6.862   0.395
13766TIP3   OH241254   1.106   4.694   3.230
13766TIP3    H141255   1.056   4.613   3.243
13766TIP3    H241256   1.040   4.761   3.213
13767TIP3   OH241257   1.419   0.809   6.229
13767TIP3    H141258   1.430   0.891   6.182
13767TIP3    H241259   1.423   0.833   6.322
13768TIP3   OH241260   7.392   1.618   5.808
13768TIP3    H141261   7.417   1.686   5.745
13768TIP3    H241262   7.367   1.666   5.887
13769TIP3   OH241263   1.416   3.312   5.412
13769TIP3    H141264   1.489   3.374   5.398
13769TIP3    H241265   1.427   3.247   5.343
13770TIP3   OH241266   6.514   4.955   4.178
13770TIP3    H141267   6.609   4.953   4.166
13770TIP3    H241268   6.479   4.955   4.089
13771TIP3   OH241269   5.539   1.141   3.168
13771TIP3    H141270   5.496   1.226   3.157
13771TIP3    H241271   5.577   1.145   3.256
13772TIP3   OH241272   5.272   5.124   5.706
13772TIP3    H141273   5.256   5.127   5.800
13772TIP3    H241274   5.340   5.190   5.691
13773TIP3   OH241275   7.254   4.124   5.570
13773TIP3    H141276   7.337   4.106   5.614
13773TIP3    H241277   7.232   4.042   5.527
13774TIP3   OH241278   4.717   5.678   6.499
13774TIP3    H141279   4.729   5.696   6.592
13774TIP3    H241280   4.768   5.599   6.483
13775TIP3   OH241281   7.715   5.455   0.814
13775TIP3    H141282   7.677   5.410   0.739
13775TIP3    H241283   7.649   5.447   0.883
13776TIP3   OH241284   0.970   6.895   5.639
13776TIP3    H141285   0.928   6.944   5.568
13776TIP3    H241286   1.044   6.949   5.665
13777TIP3   OH241287   4.099   1.532   5.815
13777TIP3    H141288   4.132   1.621   5.826
13777TIP3    H241289   4.004   1.542   5.811
13778TIP3   OH241290   4.174   2.255   3.878
13778TIP3    H141291   4.149   2.191   3.812
13778TIP3    H241292   4.160   2.340   3.836
13779TIP3   OH241293   3.831   0.620   4.554
13779TIP3    H141294   3.920   0.612   4.520
13779TIP3    H241295   3.828   0.707   4.594
13780TIP3   OH241296   1.112   2.376   3.084
13780TIP3    H141297   1.081   2.457   3.125
13780TIP3    H241298   1.108   2.393   2.990
13781TIP3   OH241299   1.006   6.043   6.657
13781TIP3    H141300   0.965   5.960   6.635
13781TIP3    H241301   0.995   6.051   6.752
13782TIP3   OH241302   2.094   4.289   3.517
13782TIP3    H141303   2.172   4.260   3.470
13782TIP3    H241304   2.114   4.380   3.542
13783TIP3   OH241305   2.749   0.116   6.143
13783TIP3    H141306   2.836   0.133   6.179
13783TIP3    H241307   2.698   0.082   6.217
13784TIP3   OH241308   1.759   3.059   2.321
13784TIP3    H141309   1.777   3.030   2.410
13784TIP3    H241310   1.731   3.150   2.330
13785TIP3   OH241311   3.137   3.231   5.374
13785TIP3    H141312   3.137   3.274   5.460
13785TIP3    H241313   3.165   3.300   5.313
13786TIP3   OH241314   3.081   3.073   1.038
13786TIP3    H141315   3.092   2.996   0.981
13786TIP3    H241316   3.001   3.115   1.006
13787TIP3   OH241317   3.358   2.427   1.498
13787TIP3    H141318   3.447   2.438   1.531
13787TIP3    H241319   3.367   2.425   1.403
13788TIP3   OH241320   5.499   6.076   2.724
13788TIP3    H141321   5.524   6.164   2.694
13788TIP3    H241322   5.439   6.044   2.657
13789TIP3   OH241323   4.310   3.240   6.758
13789TIP3    H141324   4.345   3.273   6.840
13789TIP3    H241325   4.373   3.268   6.691
13790TIP3   OH241326   0.283   6.873   0.757
13790TIP3    H141327   0.216   6.806   0.744
13790TIP3    H241328   0.243   6.954   0.725
13791TIP3   OH241329   2.862   5.039   5.062
13791TIP3    H141330   2.799   4.991   5.008
13791TIP3    H241331   2.840   5.131   5.047
13792TIP3   OH241332   0.340   2.829   1.923
13792TIP3    H141333   0.293   2.909   1.898
13792TIP3    H241334   0.397   2.811   1.849
13793TIP3   OH241335   0.591   1.713   3.650
13793TIP3    H141336   0.582   1.761   3.568
13793TIP3    H241337   0.626   1.778   3.712
13794TIP3   OH241338   2.527   5.832   4.439
13794TIP3    H141339   2.488   5.772   4.375
13794TIP3    H241340   2.487   5.806   4.522
13795TIP3   OH241341   5.558   0.594   2.939
13795TIP3    H141342   5.513   0.602   2.854
13795TIP3    H241343   5.649   0.577   2.916
13796TIP3   OH241344   5.567   5.443   4.727
13796TIP3    H141345   5.526   5.406   4.649
13796TIP3    H241346   5.557   5.538   4.717
13797TIP3   OH241347   5.983   7.325   2.533
13797TIP3    H141348   5.925   7.259   2.496
13797TIP3    H241349   5.927   7.403   2.542
13798TIP3   OH241350   1.768   6.336   2.668
13798TIP3    H141351   1.852   6.341   2.712
13798TIP3    H241352   1.714   6.404   2.708
13799TIP3   OH241353   8.095   7.141   1.667
13799TIP3    H141354   8.125   7.078   1.602
13799TIP3    H241355   8.170   7.198   1.682
13800TIP3   OH241356   6.083   4.311   4.441
13800TIP3    H141357   6.170   4.328   4.476
13800TIP3    H241358   6.076   4.215   4.439
13801TIP3   OH241359   6.163   6.779   5.841
13801TIP3    H141360   6.102   6.708   5.864
13801TIP3    H241361   6.110   6.858   5.846
13802TIP3   OH241362   7.355   2.039   2.001
13802TIP3    H141363   7.402   1.956   1.990
13802TIP3    H241364   7.409   2.104   1.957
13803TIP3   OH241365   4.340   4.890   4.620
13803TIP3    H141366   4.321   4.970   4.573
13803TIP3    H241367   4.310   4.907   4.710
13804TIP3   OH241368   1.610   0.200   6.377
13804TIP3    H141369   1.649   0.125   6.332
13804TIP3    H241370   1.516   0.182   6.377
13805TIP3   OH241371   8.108   6.361   0.070
13805TIP3    H141372   8.176   6.318   0.019
13805TIP3    H241373   8.059   6.414   0.007
13806TIP3   OH241374   7.292   5.901   2.532
13806TIP3    H141375   7.322   5.840   2.600
13806TIP3    H241376   7.252   5.845   2.466
13807TIP3   OH241377   7.686   2.608   4.519
13807TIP3    H141378   7.658   2.608   4.428
13807TIP3    H241379   7.770   2.561   4.518
13808TIP3   OH241380   7.846   0.882   5.661
13808TIP3    H141381   7.878   0.794   5.641
13808TIP3    H241382   7.902   0.941   5.609
13809TIP3   OH241383   3.798   3.939   1.392
13809TIP3    H141384   3.885   3.938   1.352
13809TIP3    H241385   3.739   3.911   1.322
13810TIP3   OH241386   0.095   5.576   6.488
13810TIP3    H141387   0.166   5.601   6.546
13810TIP3    H241388   0.113   5.485   6.466
13811TIP3   OH241389   1.082   5.382   6.347
13811TIP3    H141390   1.161   5.398   6.295
13811TIP3    H241391   1.099   5.426   6.431
13812TIP3   OH241392   0.315   0.048   0.700
13812TIP3    H141393   0.339   0.132   0.739
13812TIP3    H241394   0.236   0.066   0.649
13813TIP3   OH241395   2.065   5.728   6.531
13813TIP3    H141396   2.122   5.719   6.455
13813TIP3    H241397   2.027   5.815   6.523
13814TIP3   OH241398   2.440   5.421   0.061
13814TIP3    H141399   2.522   5.375   0.076
13814TIP3    H241400   2.377   5.375   0.116
13815TIP3   OH241401   3.964   3.364   1.808
13815TIP3    H141402   4.044   3.320   1.837
13815TIP3    H241403   3.987   3.457   1.810
13816TIP3   OH241404   4.726   4.038   3.217
13816TIP3    H141405   4.764   4.038   3.304
13816TIP3    H241406   4.797   4.066   3.159
13817TIP3   OH241407   3.209   1.691   2.912
13817TIP3    H141408   3.281   1.632   2.933
13817TIP3    H241409   3.182   1.727   2.997
13818TIP3   OH241410   8.121   5.065   6.086
13818TIP3    H141411   8.078   5.147   6.062
13818TIP3    H241412   8.153   5.080   6.175
13819TIP3   OH241413   3.388   6.460   2.399
13819TIP3    H141414   3.347   6.387   2.353
13819TIP3    H241415   3.452   6.495   2.336
13820TIP3   OH241416   7.336   5.467   5.754
13820TIP3    H141417   7.344   5.483   5.660
13820TIP3    H241418   7.426   5.472   5.786
13821TIP3   OH241419   3.990   2.709   4.345
13821TIP3    H141420   4.074   2.686   4.384
13821TIP3    H241421   4.009   2.729   4.254
13822TIP3   OH241422   4.225   1.525   0.754
13822TIP3    H141423   4.271   1.602   0.786
13822TIP3    H241424   4.294   1.461   0.736
13823TIP3   OH241425   7.199   5.180   1.176
13823TIP3    H141426   7.178   5.221   1.093
13823TIP3    H241427   7.247   5.100   1.152
13824TIP3   OH241428   2.215   6.814   1.683
13824TIP3    H141429   2.238   6.803   1.775
13824TIP3    H241430   2.130   6.857   1.684
13825TIP3   OH241431   7.160   7.108   4.530
13825TIP3    H141432   7.223   7.175   4.506
13825TIP3    H241433   7.075   7.144   4.507
13826TIP3   OH241434   3.524   4.512   2.740
13826TIP3    H141435   3.507   4.426   2.779
13826TIP3    H241436   3.596   4.498   2.680
13827TIP3   OH241437   0.669   0.045   0.742
13827TIP3    H141438   0.714   0.050   0.658
13827TIP3    H241439   0.618  -0.035   0.738
13828TIP3   OH241440   1.138   1.175   5.456
13828TIP3    H141441   1.214   1.168   5.514
13828TIP3    H241442   1.072   1.220   5.508
13829TIP3   OH241443   1.383   0.617   3.050
13829TIP3    H141444   1.358   0.675   3.122
13829TIP3    H241445   1.470   0.648   3.024
13830TIP3   OH241446   4.970   1.398   4.722
13830TIP3    H141447   4.965   1.441   4.636
13830TIP3    H241448   5.052   1.431   4.760
13831TIP3   OH241449   0.895   3.084   6.736
13831TIP3    H141450   0.851   3.119   6.814
13831TIP3    H241451   0.871   2.991   6.735
13832TIP3   OH241452   1.646   6.160   4.917
13832TIP3    H141453   1.729   6.200   4.893
13832TIP3    H241454   1.669   6.074   4.951
13833TIP3   OH241455   0.330   6.144   4.096
13833TIP3    H141456   0.344   6.111   4.007
13833TIP3    H241457   0.409   6.119   4.143
13834TIP3   OH241458   5.011   2.925   2.227
13834TIP3    H141459   5.010   3.020   2.237
13834TIP3    H241460   5.082   2.895   2.284
13835TIP3   OH241461   4.951   1.717   4.998
13835TIP3    H141462   4.986   1.727   5.086
13835TIP3    H241463   4.894   1.640   5.004
13836TIP3   OH241464   4.994   4.493   3.269
13836TIP3    H141465   5.054   4.541   3.211
13836TIP3    H241466   5.010   4.531   3.355
13837TIP3   OH241467   2.225   5.463   4.125
13837TIP3    H141468   2.223   5.536   4.062
13837TIP3    H241469   2.156   5.483   4.187
13838TIP3   OH241470   2.982   7.281   4.364
13838TIP3    H141471   2.958   7.222   4.292
13838TIP3    H241472   2.929   7.250   4.438
13839TIP3   OH241473   6.031   5.372   2.192
13839TIP3    H141474   6.027   5.439   2.259
13839TIP3    H241475   6.099   5.312   2.222
13840TIP3   OH241476   7.176   2.052   3.680
13840TIP3    H141477   7.244   1.994   3.716
13840TIP3    H241478   7.130   2.086   3.757
13841TIP3   OH241479   7.858   2.673   0.726
13841TIP3    H141480   7.772   2.712   0.742
13841TIP3    H241481   7.839   2.585   0.694
13842TIP3   OH241482   4.283   3.268   3.349
13842TIP3    H141483   4.199   3.230   3.323
13842TIP3    H241484   4.272   3.362   3.337
13843TIP3   OH241485   4.210   0.836   6.056
13843TIP3    H141486   4.271   0.774   6.014
13843TIP3    H241487   4.253   0.921   6.046
13844TIP3   OH241488   7.684   6.002   2.573
13844TIP3    H141489   7.739   5.929   2.597
13844TIP3    H241490   7.719   6.076   2.622
13845TIP3   OH241491   1.738   4.015   2.972
13845TIP3    H141492   1.684   4.027   2.894
13845TIP3    H241493   1.822   4.054   2.950
13846TIP3   OH241494   2.888   0.206   1.673
13846TIP3    H141495   2.851   0.135   1.726
13846TIP3    H241496   2.865   0.286   1.720
13847TIP3   OH241497   4.194   1.656   1.552
13847TIP3    H141498   4.246   1.637   1.630
13847TIP3    H241499   4.148   1.737   1.574
13848TIP3   OH241500   1.182   6.881   4.990
13848TIP3    H141501   1.105   6.840   4.951
13848TIP3    H241502   1.194   6.962   4.940
13849TIP3   OH241503   7.797   6.977   5.586
13849TIP3    H141504   7.736   6.903   5.578
13849TIP3    H241505   7.837   6.966   5.673
13850TIP3   OH241506   4.591   0.876   3.882
13850TIP3    H141507   4.574   0.792   3.924
13850TIP3    H241508   4.581   0.859   3.789
13851TIP3   OH241509   1.361   1.101   6.647
13851TIP3    H141510   1.377   1.182   6.696
13851TIP3    H241511   1.316   1.044   6.709
13852TIP3   OH241512   1.118   2.224   4.782
13852TIP3    H141513   1.096   2.249   4.692
13852TIP3    H241514   1.038   2.185   4.817
13853TIP3   OH241515   0.767   4.860   3.662
13853TIP3    H141516   0.861   4.864   3.643
13853TIP3    H241517   0.754   4.919   3.736
13854TIP3   OH241518   4.479   4.822   1.999
13854TIP3    H141519   4.397   4.841   2.045
13854TIP3    H241520   4.536   4.896   2.021
13855TIP3   OH241521   3.266   7.760   1.368
13855TIP3    H141522   3.336   7.821   1.393
13855TIP3    H241523   3.307   7.702   1.303
13856TIP3   OH241524   2.520   2.577   4.675
13856TIP3    H141525   2.615   2.566   4.664
13856TIP3    H241526   2.504   2.668   4.651
13857TIP3   OH241527   2.229   6.705   0.981
13857TIP3    H141528   2.258   6.786   0.938
13857TIP3    H241529   2.228   6.726   1.074
13858TIP3   OH241530   7.993   3.473   1.246
13858TIP3    H141531   8.043   3.465   1.328
13858TIP3    H241532   7.905   3.497   1.273
13859TIP3   OH241533   6.783   3.588   4.424
13859TIP3    H141534   6.801   3.545   4.507
13859TIP3    H241535   6.720   3.657   4.446
13860TIP3   OH241536   4.145   5.473   6.286
13860TIP3    H141537   4.198   5.476   6.206
13860TIP3    H241538   4.167   5.554   6.332
13861TIP3   OH241539   0.307   1.155   0.866
13861TIP3    H141540   0.255   1.131   0.790
13861TIP3    H241541   0.247   1.149   0.940
13862TIP3   OH241542   0.225   5.321   5.356
13862TIP3    H141543   0.130   5.335   5.350
13862TIP3    H241544   0.235   5.249   5.417
13863TIP3   OH241545   4.878   1.485   2.401
13863TIP3    H141546   4.833   1.413   2.447
13863TIP3    H241547   4.824   1.562   2.419
13864TIP3   OH241548   6.988   5.397   2.161
13864TIP3    H141549   6.974   5.396   2.256
13864TIP3    H241550   6.912   5.441   2.126
13865TIP3   OH241551   3.815   5.736   5.806
13865TIP3    H141552   3.731   5.782   5.816
13865TIP3    H241553   3.876   5.804   5.778
13866TIP3   OH241554   3.827   6.129   2.941
13866TIP3    H141555   3.900   6.125   2.879
13866TIP3    H241556   3.767   6.193   2.902
13867TIP3   OH241557   3.025   2.755   3.667
13867TIP3    H141558   3.070   2.696   3.728
13867TIP3    H241559   3.094   2.788   3.610
13868TIP3   OH241560   3.029   0.558   0.515
13868TIP3    H141561   2.967   0.621   0.478
13868TIP3    H241562   3.112   0.578   0.471
13869TIP3   OH241563   6.351   1.909   3.547
13869TIP3    H141564   6.443   1.897   3.568
13869TIP3    H241565   6.308   1.830   3.581
13870TIP3   OH241566   4.987   2.053   4.275
13870TIP3    H141567   5.014   2.089   4.359
13870TIP3    H241568   5.012   2.118   4.211
13871TIP3   OH241569   3.713   2.178   3.356
13871TIP3    H141570   3.683   2.096   3.317
13871TIP3    H241571   3.726   2.158   3.448
13872TIP3   OH241572   0.862   3.726   0.277
13872TIP3    H141573   0.897   3.713   0.189
13872TIP3    H241574   0.775   3.764   0.263
13873TIP3   OH241575   3.088   4.852   2.798
13873TIP3    H141576   2.994   4.867   2.787
13873TIP3    H241577   3.097   4.817   2.886
13874TIP3   OH241578   4.150   4.456   1.956
13874TIP3    H141579   4.186   4.368   1.959
13874TIP3    H241580   4.070   4.448   1.905
13875TIP3   OH241581   6.578   1.047   3.320
13875TIP3    H141582   6.541   0.966   3.284
13875TIP3    H241583   6.503   1.107   3.324
13876TIP3   OH241584   5.201   3.815   3.273
13876TIP3    H141585   5.138   3.764   3.324
13876TIP3    H241586   5.234   3.880   3.334
13877TIP3   OH241587   6.196   0.961   2.563
13877TIP3    H141588   6.184   1.019   2.488
13877TIP3    H241589   6.183   1.018   2.639
13878TIP3   OH241590   2.660   3.728   0.872
13878TIP3    H141591   2.617   3.675   0.940
13878TIP3    H241592   2.738   3.764   0.915
13879TIP3   OH241593   7.984   7.014   0.886
13879TIP3    H141594   8.041   6.939   0.903
13879TIP3    H241595   7.899   6.976   0.864
13880TIP3   OH241596   3.120   0.974   0.856
13880TIP3    H141597   3.130   1.031   0.779
13880TIP3    H241598   3.029   0.947   0.853
13881TIP3   OH241599   6.617   3.545   3.847
13881TIP3    H141600   6.559   3.528   3.921
13881TIP3    H241601   6.673   3.468   3.842
13882TIP3   OH241602   6.892   4.362   4.576
13882TIP3    H141603   6.945   4.440   4.559
13882TIP3    H241604   6.825   4.363   4.507
13883TIP3   OH241605   6.885   2.367   4.294
13883TIP3    H141606   6.900   2.284   4.340
13883TIP3    H241607   6.805   2.402   4.333
13884TIP3   OH241608   8.104   1.710   1.061
13884TIP3    H141609   8.189   1.746   1.036
13884TIP3    H241610   8.089   1.639   0.998
13885TIP3   OH241611   7.945   4.233   4.704
13885TIP3    H141612   8.030   4.203   4.670
13885TIP3    H241613   7.964   4.260   4.794
13886TIP3   OH241614   1.899   1.141   1.772
13886TIP3    H141615   1.835   1.130   1.702
13886TIP3    H241616   1.976   1.092   1.742
13887TIP3   OH241617   0.618   1.804   0.793
13887TIP3    H141618   0.541   1.857   0.774
13887TIP3    H241619   0.660   1.847   0.867
13888TIP3   OH241620   1.913   3.759   1.044
13888TIP3    H141621   1.910   3.746   1.139
13888TIP3    H241622   1.897   3.673   1.007
13889TIP3   OH241623   5.454   0.992   2.188
13889TIP3    H141624   5.537   0.946   2.198
13889TIP3    H241625   5.392   0.942   2.242
13890TIP3   OH241626   5.685   3.726   3.794
13890TIP3    H141627   5.746   3.800   3.795
13890TIP3    H241628   5.738   3.651   3.766
13891TIP3   OH241629   0.440   6.756   6.054
13891TIP3    H141630   0.501   6.724   6.122
13891TIP3    H241631   0.463   6.705   5.976
13892TIP3   OH241632   3.520   6.398   0.160
13892TIP3    H141633   3.610   6.406   0.130
13892TIP3    H241634   3.490   6.488   0.172
13893TIP3   OH241635   5.576   5.709   3.548
13893TIP3    H141636   5.507   5.772   3.567
13893TIP3    H241637   5.558   5.679   3.459
13894TIP3   OH241638   0.717   1.891   3.434
13894TIP3    H141639   0.789   1.928   3.484
13894TIP3    H241640   0.751   1.884   3.345
13895TIP3   OH241641   1.172   4.215   6.395
13895TIP3    H141642   1.265   4.212   6.416
13895TIP3    H241643   1.162   4.294   6.341
13896TIP3   OH241644   3.983   6.196   0.708
13896TIP3    H141645   4.025   6.273   0.748
13896TIP3    H241646   3.889   6.216   0.712
13897TIP3   OH241647   7.357   6.742   1.142
13897TIP3    H141648   7.365   6.817   1.083
13897TIP3    H241649   7.278   6.760   1.193
13898TIP3   OH241650   2.411   0.924   2.298
13898TIP3    H141651   2.380   0.949   2.385
13898TIP3    H241652   2.374   0.990   2.239
13899TIP3   OH241653   6.807   7.218   2.845
13899TIP3    H141654   6.879   7.281   2.840
13899TIP3    H241655   6.735   7.267   2.885
13900TIP3   OH241656   5.323   7.232   5.891
13900TIP3    H141657   5.369   7.177   5.828
13900TIP3    H241658   5.382   7.236   5.966
13901TIP3   OH241659   3.285   0.061   4.185
13901TIP3    H141660   3.211   0.096   4.235
13901TIP3    H241661   3.278  -0.034   4.196
13902TIP3   OH241662   1.335   6.534   3.020
13902TIP3    H141663   1.289   6.565   2.942
13902TIP3    H241664   1.289   6.454   3.045
13903TIP3   OH241665   3.828   3.203   3.935
13903TIP3    H141666   3.740   3.235   3.954
13903TIP3    H241667   3.886   3.260   3.985
13904TIP3   OH241668   5.473   2.153   4.707
13904TIP3    H141669   5.525   2.209   4.650
13904TIP3    H241670   5.408   2.212   4.746
13905TIP3   OH241671   1.603   5.160   0.422
13905TIP3    H141672   1.610   5.233   0.483
13905TIP3    H241673   1.694   5.135   0.405
13906TIP3   OH241674   1.142   0.495   1.355
13906TIP3    H141675   1.209   0.520   1.292
13906TIP3    H241676   1.171   0.535   1.437
13907TIP3   OH241677   5.264   5.050   0.420
13907TIP3    H141678   5.243   4.976   0.478
13907TIP3    H241679   5.233   5.127   0.468
13908TIP3   OH241680   5.741   4.262   5.448
13908TIP3    H141681   5.787   4.346   5.454
13908TIP3    H241682   5.734   4.233   5.539
13909TIP3   OH241683   5.957   5.881   3.399
13909TIP3    H141684   5.910   5.918   3.324
13909TIP3    H241685   5.914   5.797   3.416
13910TIP3   OH241686   7.314   4.338   3.345
13910TIP3    H141687   7.329   4.244   3.351
13910TIP3    H241688   7.384   4.376   3.399
13911TIP3   OH241689   2.126   4.180   5.309
13911TIP3    H141690   2.106   4.273   5.318
13911TIP3    H241691   2.118   4.145   5.398
13912TIP3   OH241692   2.590   6.939   2.701
13912TIP3    H141693   2.607   6.881   2.627
13912TIP3    H241694   2.575   7.025   2.662
13913TIP3   OH241695   0.452   3.748   1.892
13913TIP3    H141696   0.528   3.689   1.892
13913TIP3    H241697   0.434   3.762   1.799
13914TIP3   OH241698   4.597   4.016   2.061
13914TIP3    H141699   4.603   4.026   2.156
13914TIP3    H241700   4.522   3.959   2.047
13915TIP3   OH241701   2.537   5.729   1.969
13915TIP3    H141702   2.616   5.773   1.938
13915TIP3    H241703   2.495   5.793   2.026
13916TIP3   OH241704   1.649   5.835   1.499
13916TIP3    H141705   1.682   5.865   1.584
13916TIP3    H241706   1.709   5.872   1.435
13917TIP3   OH241707   7.629   0.198   6.245
13917TIP3    H141708   7.565   0.245   6.191
13917TIP3    H241709   7.714   0.235   6.219
13918TIP3   OH241710   2.735   4.016   1.854
13918TIP3    H141711   2.732   4.070   1.776
13918TIP3    H241712   2.825   3.982   1.855
13919TIP3   OH241713   2.448   1.141   4.437
13919TIP3    H141714   2.439   1.090   4.517
13919TIP3    H241715   2.511   1.210   4.460
13920TIP3   OH241716   0.429   4.411   0.766
13920TIP3    H141717   0.418   4.470   0.841
13920TIP3    H241718   0.524   4.398   0.760
13921TIP3   OH241719   7.697   4.591   1.043
13921TIP3    H141720   7.729   4.502   1.029
13921TIP3    H241721   7.666   4.592   1.134
13922TIP3   OH241722   1.165   4.750   2.974
13922TIP3    H141723   1.147   4.708   3.058
13922TIP3    H241724   1.212   4.683   2.923
13923TIP3   OH241725   8.090   7.678   3.368
13923TIP3    H141726   8.156   7.664   3.436
13923TIP3    H241727   8.016   7.625   3.395
13924TIP3   OH241728   3.296   2.749   2.174
13924TIP3    H141729   3.292   2.656   2.199
13924TIP3    H241730   3.233   2.757   2.103
13925TIP3   OH241731   7.248   0.854   2.572
13925TIP3    H141732   7.253   0.761   2.549
13925TIP3    H241733   7.168   0.885   2.531
13926TIP3   OH241734   3.656   3.245   1.383
13926TIP3    H141735   3.729   3.212   1.435
13926TIP3    H241736   3.614   3.166   1.349
13927TIP3   OH241737   1.233   5.884   5.367
13927TIP3    H141738   1.257   5.975   5.383
13927TIP3    H241739   1.249   5.871   5.274
13928TIP3   OH241740   7.000   6.699   4.786
13928TIP3    H141741   6.992   6.725   4.695
13928TIP3    H241742   6.939   6.626   4.796
13929TIP3   OH241743   7.892   1.452   1.196
13929TIP3    H141744   7.819   1.415   1.244
13929TIP3    H241745   7.865   1.449   1.104
13930TIP3   OH241746   7.731   6.307   2.054
13930TIP3    H141747   7.757   6.393   2.087
13930TIP3    H241748   7.639   6.298   2.079
13931TIP3   OH241749   0.910   5.120   3.449
13931TIP3    H141750   0.851   5.130   3.523
13931TIP3    H241751   0.969   5.195   3.455
13932TIP3   OH241752   1.881   3.136   5.744
13932TIP3    H141753   1.961   3.156   5.695
13932TIP3    H241754   1.911   3.121   5.833
13933TIP3   OH241755   4.739   7.543   6.770
13933TIP3    H141756   4.766   7.588   6.690
13933TIP3    H241757   4.670   7.599   6.806
13934TIP3   OH241758   5.398   0.435   3.173
13934TIP3    H141759   5.385   0.341   3.159
13934TIP3    H241760   5.492   0.448   3.157
13935TIP3   OH241761   1.551   3.092   2.123
13935TIP3    H141762   1.506   3.008   2.128
13935TIP3    H241763   1.636   3.072   2.084
13936TIP3   OH241764   2.885   6.834   1.840
13936TIP3    H141765   2.928   6.913   1.872
13936TIP3    H241766   2.928   6.762   1.887
13937TIP3   OH241767   6.996   7.801   5.809
13937TIP3    H141768   7.070   7.770   5.758
13937TIP3    H241769   6.956   7.722   5.846
13938TIP3   OH241770   4.907   6.675   3.328
13938TIP3    H141771   4.983   6.685   3.385
13938TIP3    H241772   4.935   6.612   3.261
13939TIP3   OH241773   3.258   0.464   4.871
13939TIP3    H141774   3.338   0.470   4.818
13939TIP3    H241775   3.191   0.436   4.810
13940TIP3   OH241776   7.101   1.320   4.648
13940TIP3    H141777   7.179   1.286   4.691
13940TIP3    H241778   7.089   1.408   4.685
13941TIP3   OH241779   3.026   0.662   1.931
13941TIP3    H141780   3.087   0.604   1.884
13941TIP3    H241781   3.060   0.750   1.915
13942TIP3   OH241782   6.362   0.360   3.832
13942TIP3    H141783   6.326   0.288   3.883
13942TIP3    H241784   6.333   0.439   3.879
13943TIP3   OH241785   3.890   6.857   0.729
13943TIP3    H141786   3.945   6.846   0.652
13943TIP3    H241787   3.945   6.906   0.791
13944TIP3   OH241788   2.955   6.017   5.346
13944TIP3    H141789   2.922   6.076   5.279
13944TIP3    H241790   2.882   6.005   5.407
13945TIP3   OH241791   1.689   4.205   3.405
13945TIP3    H141792   1.781   4.215   3.430
13945TIP3    H241793   1.679   4.260   3.327
13946TIP3   OH241794   7.964   3.086   6.631
13946TIP3    H141795   7.924   3.120   6.552
13946TIP3    H241796   8.018   3.158   6.664
13947TIP3   OH241797   6.357   1.834   1.245
13947TIP3    H141798   6.334   1.777   1.319
13947TIP3    H241799   6.453   1.833   1.243
13948TIP3   OH241800   2.823   4.408   3.463
13948TIP3    H141801   2.914   4.429   3.480
13948TIP3    H241802   2.807   4.440   3.374
13949TIP3   OH241803   2.266   0.518   3.487
13949TIP3    H141804   2.274   0.531   3.393
13949TIP3    H241805   2.199   0.581   3.514
13950TIP3   OH241806   5.159   3.581   1.418
13950TIP3    H141807   5.175   3.505   1.363
13950TIP3    H241808   5.122   3.545   1.499
13951TIP3   OH241809   5.724   2.208   5.034
13951TIP3    H141810   5.803   2.156   5.047
13951TIP3    H241811   5.676   2.162   4.965
13952TIP3   OH241812   7.925   4.498   5.434
13952TIP3    H141813   7.906   4.468   5.523
13952TIP3    H241814   7.869   4.574   5.422
13953TIP3   OH241815   0.299   6.831   4.074
13953TIP3    H141816   0.376   6.794   4.118
13953TIP3    H241817   0.226   6.778   4.106
13954TIP3   OH241818   6.339   6.305   5.806
13954TIP3    H141819   6.342   6.351   5.889
13954TIP3    H241820   6.431   6.286   5.786
13955TIP3   OH241821   4.573   4.174   6.318
13955TIP3    H141822   4.648   4.140   6.366
13955TIP3    H241823   4.596   4.165   6.226
13956TIP3   OH241824   5.438   2.416   2.311
13956TIP3    H141825   5.388   2.374   2.241
13956TIP3    H241826   5.530   2.404   2.286
13957TIP3   OH241827   6.256   0.563   2.084
13957TIP3    H141828   6.347   0.569   2.055
13957TIP3    H241829   6.205   0.566   2.004
13958TIP3   OH241830   8.125   2.564   2.472
13958TIP3    H141831   8.140   2.478   2.432
13958TIP3    H241832   8.184   2.623   2.424
13959TIP3   OH241833   3.029   1.565   0.728
13959TIP3    H141834   3.119   1.596   0.725
13959TIP3    H241835   3.011   1.535   0.638
13960TIP3   OH241836   1.678   1.871   0.878
13960TIP3    H141837   1.719   1.896   0.961
13960TIP3    H241838   1.734   1.910   0.811
13961TIP3   OH241839   7.400   0.005   1.470
13961TIP3    H141840   7.403   0.017   1.565
13961TIP3    H241841   7.406  -0.089   1.457
13962TIP3   OH241842   0.572   3.158   6.429
13962TIP3    H141843   0.586   3.077   6.380
13962TIP3    H241844   0.547   3.222   6.362
13963TIP3   OH241845   3.652   3.884   4.121
13963TIP3    H141846   3.589   3.930   4.065
13963TIP3    H241847   3.611   3.799   4.137
13964TIP3   OH241848   1.202   0.443   4.195
13964TIP3    H141849   1.227   0.353   4.217
13964TIP3    H241850   1.273   0.497   4.229
13965TIP3   OH241851   1.958   4.696   2.712
13965TIP3    H141852   2.022   4.719   2.644
13965TIP3    H241853   2.006   4.705   2.794
13966TIP3   OH241854   6.485   3.500   4.094
13966TIP3    H141855   6.507   3.585   4.131
13966TIP3    H241856   6.484   3.440   4.169
13967TIP3   OH241857   4.483   0.177   3.471
13967TIP3    H141858   4.494   0.247   3.407
13967TIP3    H241859   4.544   0.109   3.443
13968TIP3   OH241860   7.096   2.700   6.447
13968TIP3    H141861   7.035   2.774   6.448
13968TIP3    H241862   7.170   2.730   6.395
13969TIP3   OH241863   4.871   0.278   0.687
13969TIP3    H141864   4.823   0.196   0.677
13969TIP3    H241865   4.861   0.300   0.780
13970TIP3   OH241866   1.923   1.656   6.713
13970TIP3    H141867   2.005   1.696   6.742
13970TIP3    H241868   1.917   1.574   6.762
13971TIP3   OH241869   6.344   2.071   1.076
13971TIP3    H141870   6.388   2.019   1.143
13971TIP3    H241871   6.256   2.085   1.111
13972TIP3   OH241872   6.922   6.716   2.820
13972TIP3    H141873   6.920   6.669   2.737
13972TIP3    H241874   6.888   6.803   2.800
13973TIP3   OH241875   2.456   1.037   2.975
13973TIP3    H141876   2.425   0.946   2.972
13973TIP3    H241877   2.463   1.063   2.883
13974TIP3   OH241878   3.231   1.636   2.393
13974TIP3    H141879   3.185   1.571   2.447
13974TIP3    H241880   3.162   1.675   2.339
13975TIP3   OH241881   2.829   1.735   5.810
13975TIP3    H141882   2.820   1.689   5.893
13975TIP3    H241883   2.747   1.718   5.764
13976TIP3   OH241884   3.129   0.219   6.423
13976TIP3    H141885   3.135   0.265   6.507
13976TIP3    H241886   3.210   0.169   6.418
13977TIP3   OH241887   3.917   5.875   3.419
13977TIP3    H141888   3.937   5.790   3.460
13977TIP3    H241889   3.847   5.856   3.357
13978TIP3   OH241890   7.281   4.678   6.782
13978TIP3    H141891   7.237   4.618   6.723
13978TIP3    H241892   7.336   4.623   6.837
13979TIP3   OH241893   4.830   3.138   1.809
13979TIP3    H141894   4.738   3.138   1.783
13979TIP3    H241895   4.864   3.055   1.778
13980TIP3   OH241896   0.342   5.345   1.798
13980TIP3    H141897   0.424   5.395   1.798
13980TIP3    H241898   0.353   5.282   1.869
13981TIP3   OH241899   3.870   3.472   1.520
13981TIP3    H141900   3.854   3.385   1.558
13981TIP3    H241901   3.936   3.511   1.576
13982TIP3   OH241902   6.518   1.454   6.209
13982TIP3    H141903   6.604   1.416   6.228
13982TIP3    H241904   6.515   1.459   6.113
13983TIP3   OH241905   2.938   6.032   4.886
13983TIP3    H141906   2.856   6.046   4.933
13983TIP3    H241907   2.990   5.977   4.945
13984TIP3   OH241908   7.766   5.137   1.946
13984TIP3    H141909   7.717   5.177   2.018
13984TIP3    H241910   7.849   5.183   1.946
13985TIP3   OH241911   3.400   3.412   4.304
13985TIP3    H141912   3.330   3.477   4.305
13985TIP3    H241913   3.376   3.349   4.372
13986TIP3   OH241914   8.098   3.499   3.323
13986TIP3    H141915   8.078   3.441   3.396
13986TIP3    H241916   8.012   3.523   3.287
13987TIP3   OH241917   3.369   7.770   5.887
13987TIP3    H141918   3.357   7.813   5.803
13987TIP3    H241919   3.407   7.685   5.866
13988TIP3   OH241920   7.335   4.767   6.364
13988TIP3    H141921   7.407   4.705   6.365
13988TIP3    H241922   7.261   4.718   6.401
13989TIP3   OH241923   2.027   5.280   5.659
13989TIP3    H141924   1.957   5.329   5.614
13989TIP3    H241925   2.002   5.282   5.751
13990TIP3   OH241926   6.380   1.145   4.099
13990TIP3    H141927   6.332   1.118   4.021
13990TIP3    H241928   6.324   1.211   4.140
13991TIP3   OH241929   3.401   5.704   1.410
13991TIP3    H141930   3.325   5.648   1.424
13991TIP3    H241931   3.436   5.677   1.325
13992TIP3   OH241932   0.307   1.060   3.847
13992TIP3    H141933   0.275   0.987   3.899
13992TIP3    H241934   0.262   1.137   3.882
13993TIP3   OH241935   6.975   4.367   3.273
13993TIP3    H141936   6.999   4.377   3.181
13993TIP3    H241937   7.024   4.436   3.318
13994TIP3   OH241938   1.034   4.170   5.080
13994TIP3    H141939   0.999   4.097   5.030
13994TIP3    H241940   0.976   4.176   5.157
13995TIP3   OH241941   5.331   3.771   3.047
13995TIP3    H141942   5.290   3.791   3.132
13995TIP3    H241943   5.260   3.735   2.994
13996TIP3   OH241944   7.800   3.694   2.312
13996TIP3    H141945   7.766   3.758   2.250
13996TIP3    H241946   7.782   3.731   2.398
13997TIP3   OH241947   6.993   2.906   2.889
13997TIP3    H141948   6.974   2.830   2.944
13997TIP3    H241949   6.937   2.895   2.812
13998TIP3   OH241950   3.613   6.349   2.893
13998TIP3    H141951   3.561   6.429   2.888
13998TIP3    H241952   3.560   6.291   2.949
13999TIP3   OH241953   1.389   3.643   1.251
13999TIP3    H141954   1.429   3.659   1.165
13999TIP3    H241955   1.424   3.713   1.307
14000TIP3   OH241956   3.739   4.039   2.822
14000TIP3    H141957   3.686   3.964   2.851
14000TIP3    H241958   3.793   4.060   2.898
14001TIP3   OH241959   2.350   0.217   0.371
14001TIP3    H141960   2.424   0.277   0.359
14001TIP3    H241961   2.288   0.266   0.426
14002TIP3   OH241962   5.506   1.846   3.215
14002TIP3    H141963   5.427   1.860   3.164
14002TIP3    H241964   5.577   1.845   3.151
14003TIP3   OH241965   5.031   4.839   6.363
14003TIP3    H141966   5.109   4.893   6.349
14003TIP3    H241967   5.043   4.763   6.306
14004TIP3   OH241968   6.180   3.996   5.902
14004TIP3    H141969   6.269   4.019   5.877
14004TIP3    H241970   6.188   3.958   5.990
14005TIP3   OH241971   3.567   4.226   3.740
14005TIP3    H141972   3.477   4.257   3.741
14005TIP3    H241973   3.619   4.299   3.774
14006TIP3   OH241974   4.887   0.951   3.879
14006TIP3    H141975   4.931   0.929   3.961
14006TIP3    H241976   4.807   0.899   3.880
14007TIP3   OH241977   0.654   6.582   0.178
14007TIP3    H141978   0.731   6.529   0.156
14007TIP3    H241979   0.661   6.594   0.273
14008TIP3   OH241980   0.895   1.356   3.322
14008TIP3    H141981   0.874   1.433   3.375
14008TIP3    H241982   0.828   1.292   3.346
14009TIP3   OH241983   7.786   1.746   1.424
14009TIP3    H141984   7.816   1.803   1.353
14009TIP3    H241985   7.758   1.806   1.493
14010TIP3   OH241986   2.761   6.668   2.758
14010TIP3    H141987   2.799   6.756   2.759
14010TIP3    H241988   2.711   6.664   2.677
14011TIP3   OH241989   2.446   5.511   2.503
14011TIP3    H141990   2.494   5.490   2.423
14011TIP3    H241991   2.354   5.496   2.482
14012TIP3   OH241992   7.490   3.901   4.307
14012TIP3    H141993   7.486   3.952   4.227
14012TIP3    H241994   7.582   3.902   4.332
14013TIP3   OH241995   7.497   3.317   0.506
14013TIP3    H141996   7.553   3.288   0.434
14013TIP3    H241997   7.477   3.238   0.555
14014TIP3   OH241998   3.694   1.441   2.408
14014TIP3    H141999   3.732   1.523   2.441
14014TIP3    H242000   3.760   1.374   2.427
14015TIP3   OH242001   6.098   2.818   6.270
14015TIP3    H142002   6.050   2.842   6.349
14015TIP3    H242003   6.178   2.870   6.273
14016TIP3   OH242004   3.346   1.822   0.457
14016TIP3    H142005   3.278   1.852   0.397
14016TIP3    H242006   3.395   1.901   0.480
14017TIP3   OH242007   6.784   4.932   0.330
14017TIP3    H142008   6.814   4.841   0.330
14017TIP3    H242009   6.814   4.967   0.246
14018TIP3   OH242010   5.834   0.985   5.419
14018TIP3    H142011   5.896   1.051   5.389
14018TIP3    H242012   5.748   1.021   5.397
14019TIP3   OH242013   3.082   2.589   0.818
14019TIP3    H142014   3.011   2.527   0.802
14019TIP3    H242015   3.067   2.660   0.756
14020TIP3   OH242016   2.655   7.367   6.114
14020TIP3    H142017   2.734   7.419   6.101
14020TIP3    H242018   2.610   7.409   6.187
14021TIP3   OH242019   4.969   2.450   3.954
14021TIP3    H142020   4.891   2.499   3.930
14021TIP3    H242021   5.030   2.516   3.987
14022TIP3   OH242022   0.512   0.410   2.772
14022TIP3    H142023   0.449   0.346   2.740
14022TIP3    H242024   0.567   0.430   2.696
14023TIP3   OH242025   6.356   1.222   5.936
14023TIP3    H142026   6.429   1.163   5.919
14023TIP3    H242027   6.371   1.297   5.878
14024TIP3   OH242028   0.965   0.814   6.484
14024TIP3    H142029   0.873   0.815   6.509
14024TIP3    H242030   0.973   0.884   6.420
14025TIP3   OH242031   0.719   1.071   6.623
14025TIP3    H142032   0.659   1.125   6.572
14025TIP3    H242033   0.725   0.989   6.574
14026TIP3   OH242034   6.354   3.667   1.258
14026TIP3    H142035   6.375   3.629   1.173
14026TIP3    H242036   6.416   3.740   1.268
14027TIP3   OH242037   6.883   5.110   6.000
14027TIP3    H142038   6.909   5.153   6.082
14027TIP3    H242039   6.815   5.049   6.026
14028TIP3   OH242040   1.188   1.115   4.289
14028TIP3    H142041   1.275   1.153   4.298
14028TIP3    H242042   1.205   1.022   4.271
14029TIP3   OH242043   4.221   4.767   2.898
14029TIP3    H142044   4.195   4.675   2.896
14029TIP3    H242045   4.174   4.807   2.825
14030TIP3   OH242046   4.322   2.398   0.162
14030TIP3    H142047   4.271   2.475   0.188
14030TIP3    H242048   4.289   2.327   0.218
14031TIP3   OH242049   4.470   4.221   1.107
14031TIP3    H142050   4.548   4.184   1.065
14031TIP3    H242051   4.425   4.269   1.038
14032TIP3   OH242052   6.322   5.046   1.960
14032TIP3    H142053   6.381   5.017   1.891
14032TIP3    H242054   6.372   5.035   2.041
14033TIP3   OH242055   5.094   2.393   6.083
14033TIP3    H142056   5.039   2.469   6.062
14033TIP3    H242057   5.032   2.326   6.112
14034TIP3   OH242058   1.107   7.286   5.996
14034TIP3    H142059   1.163   7.355   5.959
14034TIP3    H242060   1.020   7.325   6.000
14035TIP3   OH242061   3.895   0.174   3.617
14035TIP3    H142062   3.837   0.117   3.566
14035TIP3    H242063   3.848   0.190   3.699
14036TIP3   OH242064   3.081   1.475   1.950
14036TIP3    H142065   3.008   1.535   1.936
14036TIP3    H242066   3.159   1.531   1.940
14037TIP3   OH242067   1.759   0.044   1.229
14037TIP3    H142068   1.773   0.138   1.239
14037TIP3    H242069   1.846   0.005   1.237
14038TIP3   OH242070   4.974   5.551   1.245
14038TIP3    H142071   5.028   5.580   1.319
14038TIP3    H242072   4.921   5.480   1.280
14039TIP3   OH242073   4.251   2.061   4.840
14039TIP3    H142074   4.177   2.039   4.897
14039TIP3    H242075   4.225   2.143   4.798
14040TIP3   OH242076   6.280   2.066   4.136
14040TIP3    H142077   6.376   2.074   4.135
14040TIP3    H242078   6.264   1.973   4.120
14041TIP3   OH242079   0.911   4.016   5.923
14041TIP3    H142080   0.828   3.992   5.881
14041TIP3    H242081   0.921   3.952   5.993
14042TIP3   OH242082   3.128   7.801   1.727
14042TIP3    H142083   3.217   7.836   1.720
14042TIP3    H242084   3.114   7.790   1.821
14043TIP3   OH242085   2.203   1.764   2.781
14043TIP3    H142086   2.249   1.842   2.811
14043TIP3    H242087   2.193   1.710   2.859
14044TIP3   OH242088   6.282   0.113   6.364
14044TIP3    H142089   6.261   0.072   6.280
14044TIP3    H242090   6.367   0.156   6.349
14045TIP3   OH242091   3.592   2.528   4.407
14045TIP3    H142092   3.499   2.504   4.406
14045TIP3    H242093   3.594   2.617   4.442
14046TIP3   OH242094   5.127   4.473   6.427
14046TIP3    H142095   5.182   4.400   6.396
14046TIP3    H242096   5.118   4.530   6.351
14047TIP3   OH242097   0.836   1.853   4.094
14047TIP3    H142098   0.763   1.887   4.146
14047TIP3    H242099   0.907   1.841   4.157
14048TIP3   OH242100   4.731   5.550   3.656
14048TIP3    H142101   4.662   5.483   3.653
14048TIP3    H242102   4.693   5.620   3.708
14049TIP3   OH242103   6.583   1.475   1.765
14049TIP3    H142104   6.637   1.431   1.831
14049TIP3    H242105   6.601   1.568   1.777
14050TIP3   OH242106   0.090   5.245   4.399
14050TIP3    H142107   0.145   5.193   4.457
14050TIP3    H242108   0.056   5.183   4.335
14051TIP3   OH242109   8.176   3.914   4.935
14051TIP3    H142110   8.233   3.987   4.912
14051TIP3    H242111   8.087   3.948   4.923
14052TIP3   OH242112   0.572   5.942   3.447
14052TIP3    H142113   0.568   6.035   3.469
14052TIP3    H242114   0.547   5.938   3.354
14053TIP3   OH242115   7.484   4.816   4.218
14053TIP3    H142116   7.392   4.826   4.238
14053TIP3    H242117   7.528   4.887   4.266
14054TIP3   OH242118   7.549   4.383   3.543
14054TIP3    H142119   7.619   4.448   3.550
14054TIP3    H242120   7.498   4.394   3.623
14055TIP3   OH242121   1.979   5.097   5.311
14055TIP3    H142122   2.020   5.179   5.283
14055TIP3    H242123   2.047   5.050   5.358
14056TIP3   OH242124   2.256   0.717   5.450
14056TIP3    H142125   2.223   0.719   5.360
14056TIP3    H242126   2.196   0.657   5.495
14057TIP3   OH242127   3.965   4.700   2.149
14057TIP3    H142128   3.920   4.624   2.186
14057TIP3    H242129   4.018   4.734   2.222
14058TIP3   OH242130   6.466   3.719   5.961
14058TIP3    H142131   6.470   3.676   6.047
14058TIP3    H242132   6.486   3.811   5.980
14059TIP3   OH242133   7.615   5.127   1.547
14059TIP3    H142134   7.682   5.174   1.497
14059TIP3    H242135   7.544   5.114   1.484
14060TIP3   OH242136   5.319   4.622   3.924
14060TIP3    H142137   5.408   4.596   3.900
14060TIP3    H242138   5.314   4.609   4.019
14061TIP3   OH242139   4.644  -0.002   4.842
14061TIP3    H142140   4.699   0.070   4.811
14061TIP3    H242141   4.578   0.039   4.897
14062TIP3   OH242142   2.288   6.441  -0.012
14062TIP3    H142143   2.370   6.416   0.031
14062TIP3    H242144   2.231   6.365  -0.001
14063TIP3   OH242145   0.061   3.439   3.337
14063TIP3    H142146   0.081   3.440   3.243
14063TIP3    H242147  -0.034   3.450   3.340
14064TIP3   OH242148   1.751   5.652   6.615
14064TIP3    H142149   1.755   5.731   6.669
14064TIP3    H242150   1.827   5.601   6.642
14065TIP3   OH242151   3.987   7.774   5.103
14065TIP3    H142152   4.022   7.863   5.109
14065TIP3    H242153   3.903   7.784   5.058
14066TIP3   OH242154   3.221   2.643   1.658
14066TIP3    H142155   3.163   2.568   1.646
14066TIP3    H242156   3.274   2.645   1.578
14067TIP3   OH242157   2.060   1.176   0.469
14067TIP3    H142158   2.102   1.092   0.489
14067TIP3    H242159   2.003   1.193   0.544
14068TIP3   OH242160   6.479   0.252   6.215
14068TIP3    H142161   6.413   0.314   6.247
14068TIP3    H242162   6.499   0.282   6.126
14069TIP3   OH242163   4.723   5.987   0.840
14069TIP3    H142164   4.636   6.018   0.865
14069TIP3    H242165   4.780   6.062   0.857
14070TIP3   OH242166   6.645   6.658   2.238
14070TIP3    H142167   6.626   6.752   2.248
14070TIP3    H242168   6.565   6.614   2.266
14071TIP3   OH242169   3.113   2.042   4.810
14071TIP3    H142170   3.076   2.047   4.898
14071TIP3    H242171   3.037   2.029   4.753
14072TIP3   OH242172   7.809   7.682   1.784
14072TIP3    H142173   7.760   7.601   1.772
14072TIP3    H242174   7.755   7.734   1.844
14073TIP3   OH242175   2.532   0.519   4.096
14073TIP3    H142176   2.584   0.439   4.092
14073TIP3    H242177   2.577   0.574   4.161
14074TIP3   OH242178   5.802   3.540   4.949
14074TIP3    H142179   5.813   3.571   5.039
14074TIP3    H242180   5.707   3.541   4.935
14075TIP3   OH242181   3.483   2.326   0.182
14075TIP3    H142182   3.494   2.390   0.253
14075TIP3    H242183   3.542   2.356   0.113
14076TIP3   OH242184   1.163   5.583   4.217
14076TIP3    H142185   1.230   5.582   4.285
14076TIP3    H242186   1.182   5.661   4.165
14077TIP3   OH242187   1.664   5.164   6.195
14077TIP3    H142188   1.743   5.113   6.218
14077TIP3    H242189   1.685   5.253   6.223
14078TIP3   OH242190   1.278   7.883   5.157
14078TIP3    H142191   1.189   7.876   5.124
14078TIP3    H242192   1.330   7.830   5.097
14079TIP3   OH242193   2.993   3.562   1.044
14079TIP3    H142194   3.049   3.510   1.102
14079TIP3    H242195   2.907   3.561   1.086
14080TIP3   OH242196   1.197   2.826   0.589
14080TIP3    H142197   1.145   2.882   0.530
14080TIP3    H242198   1.286   2.830   0.554
14081TIP3   OH242199   3.377   5.415   3.699
14081TIP3    H142200   3.317   5.479   3.738
14081TIP3    H242201   3.335   5.390   3.617
14082TIP3   OH242202   0.444   7.559   4.691
14082TIP3    H142203   0.466   7.643   4.732
14082TIP3    H242204   0.360   7.575   4.647
14083TIP3   OH242205   0.033   6.656   1.332
14083TIP3    H142206  -0.060   6.668   1.312
14083TIP3    H242207   0.071   6.627   1.249
14084TIP3   OH242208   5.967   1.630   4.414
14084TIP3    H142209   5.892   1.645   4.357
14084TIP3    H242210   5.936   1.567   4.479
14085TIP3   OH242211   3.539   1.228   3.263
14085TIP3    H142212   3.563   1.299   3.205
14085TIP3    H242213   3.443   1.232   3.269
14086TIP3   OH242214   1.860   6.286   1.764
14086TIP3    H142215   1.895   6.337   1.691
14086TIP3    H242216   1.937   6.248   1.806
14087TIP3   OH242217   1.886   0.378   4.925
14087TIP3    H142218   1.927   0.437   4.862
14087TIP3    H242219   1.941   0.300   4.925
14088TIP3   OH242220   1.837   2.340   6.695
14088TIP3    H142221   1.759   2.394   6.688
14088TIP3    H242222   1.803   2.251   6.711
14089TIP3   OH242223   7.514   7.276   5.844
14089TIP3    H142224   7.434   7.234   5.874
14089TIP3    H242225   7.484   7.349   5.789
14090TIP3   OH242226   8.010   5.068   0.850
14090TIP3    H142227   7.997   5.064   0.945
14090TIP3    H242228   8.097   5.029   0.836
14091TIP3   OH242229   6.729   5.735   1.284
14091TIP3    H142230   6.649   5.761   1.331
14091TIP3    H242231   6.796   5.794   1.318
14092TIP3   OH242232   1.346   4.418   5.275
14092TIP3    H142233   1.303   4.458   5.351
14092TIP3    H242234   1.368   4.493   5.219
14093TIP3   OH242235   7.805   0.441   2.118
14093TIP3    H142236   7.841   0.352   2.117
14093TIP3    H242237   7.882   0.498   2.114
14094TIP3   OH242238   0.580   6.584   6.237
14094TIP3    H142239   0.577   6.616   6.328
14094TIP3    H242240   0.519   6.511   6.235
14095TIP3   OH242241   2.724   2.101   0.124
14095TIP3    H142242   2.764   2.187   0.137
14095TIP3    H242243   2.662   2.114   0.053
14096TIP3   OH242244   8.081   3.325   3.519
14096TIP3    H142245   8.142   3.299   3.588
14096TIP3    H242246   8.050   3.243   3.481
14097TIP3   OH242247   6.906   4.612   3.668
14097TIP3    H142248   6.979   4.550   3.671
14097TIP3    H242249   6.892   4.637   3.759
14098TIP3   OH242250   4.568   2.200   0.785
14098TIP3    H142251   4.546   2.164   0.700
14098TIP3    H242252   4.636   2.141   0.819
14099TIP3   OH242253   4.077   7.540   0.050
14099TIP3    H142254   4.024   7.606   0.005
14099TIP3    H242255   4.025   7.459   0.044
14100TIP3   OH242256   6.732   1.407   4.244
14100TIP3    H142257   6.665   1.350   4.281
14100TIP3    H242258   6.802   1.407   4.309
14101TIP3   OH242259   7.950   5.207   3.896
14101TIP3    H142260   7.928   5.159   3.816
14101TIP3    H242261   8.021   5.266   3.870
14102TIP3   OH242262   8.089   4.747   4.484
14102TIP3    H142263   8.035   4.738   4.405
14102TIP3    H242264   8.092   4.841   4.501
14103TIP3   OH242265   5.847   7.353   5.910
14103TIP3    H142266   5.801   7.360   5.826
14103TIP3    H242267   5.936   7.329   5.886
14104TIP3   OH242268   3.992   5.950   5.788
14104TIP3    H142269   3.995   6.020   5.854
14104TIP3    H242270   4.010   5.994   5.705
14105TIP3   OH242271   8.164   0.964   6.606
14105TIP3    H142272   8.178   0.962   6.700
14105TIP3    H242273   8.245   0.930   6.568
14106TIP3   OH242274   6.038   2.380   2.733
14106TIP3    H142275   6.005   2.321   2.801
14106TIP3    H242276   6.023   2.467   2.768
14107TIP3   OH242277   7.378   1.902   0.759
14107TIP3    H142278   7.380   1.996   0.741
14107TIP3    H242279   7.452   1.866   0.710
14108TIP3   OH242280   3.994   1.624   2.892
14108TIP3    H142281   3.966   1.709   2.856
14108TIP3    H242282   4.089   1.632   2.901
14109TIP3   OH242283   0.824   7.461   4.565
14109TIP3    H142284   0.817   7.421   4.478
14109TIP3    H242285   0.775   7.543   4.557
14110TIP3   OH242286   6.404   7.254   0.225
14110TIP3    H142287   6.351   7.203   0.164
14110TIP3    H242288   6.353   7.333   0.241
14111TIP3   OH242289   7.443   1.306   3.995
14111TIP3    H142290   7.459   1.223   3.950
14111TIP3    H242291   7.501   1.304   4.072
14112TIP3   OH242292   2.982   7.155   3.211
14112TIP3    H142293   2.939   7.222   3.159
14112TIP3    H242294   2.939   7.074   3.187
14113TIP3   OH242295   6.471   0.168   0.976
14113TIP3    H142296   6.545   0.225   0.996
14113TIP3    H242297   6.430   0.151   1.061
14114TIP3   OH242298   3.304   5.743   2.552
14114TIP3    H142299   3.342   5.824   2.518
14114TIP3    H242300   3.373   5.705   2.606
14115TIP3   OH242301   7.225   7.651   5.980
14115TIP3    H142302   7.199   7.562   6.005
14115TIP3    H242303   7.320   7.646   5.970
14116TIP3   OH242304   8.165   0.967   2.343
14116TIP3    H142305   8.185   0.875   2.356
14116TIP3    H242306   8.201   1.011   2.420
14117TIP3   OH242307   0.808   2.590   2.967
14117TIP3    H142308   0.812   2.643   2.887
14117TIP3    H242309   0.855   2.642   3.033
14118TIP3   OH242310   1.135   7.458   3.621
14118TIP3    H142311   1.115   7.366   3.608
14118TIP3    H242312   1.104   7.478   3.709
14119TIP3   OH242313   2.217   1.191   1.901
14119TIP3    H142314   2.224   1.280   1.935
14119TIP3    H242315   2.194   1.203   1.808
14120TIP3   OH242316   6.971   3.141   3.015
14120TIP3    H142317   6.992   3.050   2.994
14120TIP3    H242318   7.056   3.182   3.031
14121TIP3   OH242319   4.710   0.815   6.281
14121TIP3    H142320   4.687   0.897   6.238
14121TIP3    H242321   4.722   0.752   6.210
14122TIP3   OH242322   5.217   7.067   2.759
14122TIP3    H142323   5.184   7.023   2.681
14122TIP3    H242324   5.285   7.008   2.792
14123TIP3   OH242325   6.936   7.439   5.030
14123TIP3    H142326   6.974   7.407   4.948
14123TIP3    H242327   6.847   7.466   5.005
14124TIP3   OH242328   3.707   5.625   0.804
14124TIP3    H142329   3.688   5.553   0.744
14124TIP3    H242330   3.672   5.596   0.888
14125TIP3   OH242331   2.456   7.781   3.062
14125TIP3    H142332   2.440   7.825   3.145
14125TIP3    H242333   2.398   7.705   3.063
14126TIP3   OH242334   3.010   4.354   0.588
14126TIP3    H142335   2.959   4.363   0.508
14126TIP3    H242336   2.951   4.308   0.649
14127TIP3   OH242337   5.648   0.346   3.398
14127TIP3    H142338   5.580   0.383   3.455
14127TIP3    H242339   5.671   0.263   3.440
14128TIP3   OH242340   2.707   2.628   6.583
14128TIP3    H142341   2.701   2.604   6.491
14128TIP3    H242342   2.617   2.646   6.609
14129TIP3   OH242343   4.803   5.855   6.287
14129TIP3    H142344   4.758   5.798   6.350
14129TIP3    H242345   4.889   5.871   6.325
14130TIP3   OH242346   5.609   1.559   6.694
14130TIP3    H142347   5.521   1.566   6.731
14130TIP3    H242348   5.641   1.475   6.724
14131TIP3   OH242349   1.516   2.529   2.235
14131TIP3    H142350   1.523   2.623   2.249
14131TIP3    H242351   1.508   2.491   2.323
14132TIP3   OH242352   4.470   2.549   1.598
14132TIP3    H142353   4.472   2.577   1.689
14132TIP3    H242354   4.561   2.553   1.570
14133TIP3   OH242355   1.823   4.459   2.729
14133TIP3    H142356   1.753   4.445   2.793
14133TIP3    H242357   1.860   4.545   2.751
14134TIP3   OH242358   5.584   7.822   3.967
14134TIP3    H142359   5.498   7.849   3.935
14134TIP3    H242360   5.609   7.750   3.910
14135TIP3   OH242361   5.009   0.556   2.520
14135TIP3    H142362   5.055   0.629   2.562
14135TIP3    H242363   4.932   0.595   2.480
14136TIP3   OH242364   3.948   7.474   5.964
14136TIP3    H142365   4.006   7.546   5.990
14136TIP3    H242366   3.879   7.516   5.914
14137TIP3   OH242367   3.631   0.995   0.838
14137TIP3    H142368   3.545   0.954   0.825
14137TIP3    H242369   3.636   1.011   0.932
14138TIP3   OH242370   6.326   5.478   5.656
14138TIP3    H142371   6.322   5.564   5.698
14138TIP3    H242372   6.388   5.488   5.585
14139TIP3   OH242373   0.817   3.790   3.923
14139TIP3    H142374   0.831   3.807   3.830
14139TIP3    H242375   0.733   3.744   3.927
14140TIP3   OH242376   5.453   6.651   0.124
14140TIP3    H142377   5.399   6.729   0.109
14140TIP3    H242378   5.389   6.581   0.135
14141TIP3   OH242379   1.836   4.247   3.152
14141TIP3    H142380   1.904   4.257   3.085
14141TIP3    H242381   1.869   4.178   3.209
14142TIP3   OH242382   7.450   0.931   3.273
14142TIP3    H142383   7.377   0.889   3.228
14142TIP3    H242384   7.420   0.941   3.363
14143TIP3   OH242385   1.327   3.959   2.995
14143TIP3    H142386   1.269   3.907   3.052
14143TIP3    H242387   1.394   3.993   3.054
14144TIP3   OH242388   3.280   2.200   5.354
14144TIP3    H142389   3.342   2.134   5.320
14144TIP3    H242390   3.196   2.155   5.353
14145TIP3   OH242391   6.413   0.901   0.588
14145TIP3    H142392   6.421   0.994   0.567
14145TIP3    H242393   6.496   0.863   0.559
14146TIP3   OH242394   0.589   0.432   2.047
14146TIP3    H142395   0.639   0.411   2.126
14146TIP3    H242396   0.592   0.527   2.041
14147TIP3   OH242397   7.161   4.811   3.641
14147TIP3    H142398   7.248   4.801   3.603
14147TIP3    H242399   7.160   4.748   3.714
14148TIP3   OH242400   1.069   5.580   6.006
14148TIP3    H142401   0.997   5.588   6.068
14148TIP3    H242402   1.126   5.514   6.044
14149TIP3   OH242403   1.683   2.373   1.737
14149TIP3    H142404   1.684   2.301   1.674
14149TIP3    H242405   1.775   2.399   1.745
14150TIP3   OH242406   6.828   1.163   3.375
14150TIP3    H142407   6.751   1.107   3.362
14150TIP3    H242408   6.902   1.107   3.351
14151TIP3   OH242409   0.652   2.879   3.254
14151TIP3    H142410   0.622   2.864   3.165
14151TIP3    H242411   0.582   2.845   3.310
14152TIP3   OH242412   0.311   6.119   0.995
14152TIP3    H142413   0.362   6.122   0.914
14152TIP3    H242414   0.337   6.199   1.042
14153TIP3   OH242415   3.716   3.759   3.662
14153TIP3    H142416   3.772   3.792   3.733
14153TIP3    H242417   3.627   3.766   3.696
14154TIP3   OH242418   6.547   5.451   5.502
14154TIP3    H142419   6.595   5.369   5.515
14154TIP3    H242420   6.601   5.518   5.545
14155TIP3   OH242421   6.139   6.271   4.339
14155TIP3    H142422   6.126   6.176   4.339
14155TIP3    H242423   6.157   6.293   4.430
14156TIP3   OH242424   5.573   1.338   0.425
14156TIP3    H142425   5.601   1.417   0.473
14156TIP3    H242426   5.509   1.297   0.483
14157TIP3   OH242427   7.391   2.620   2.839
14157TIP3    H142428   7.469   2.566   2.829
14157TIP3    H242429   7.369   2.614   2.932
14158TIP3   OH242430   1.629   3.224   6.624
14158TIP3    H142431   1.637   3.151   6.685
14158TIP3    H242432   1.579   3.189   6.550
14159TIP3   OH242433   3.133   0.661   5.926
14159TIP3    H142434   3.136   0.620   6.012
14159TIP3    H242435   3.189   0.606   5.871
14160TIP3   OH242436   2.031   0.354   2.163
14160TIP3    H142437   1.966   0.340   2.094
14160TIP3    H242438   2.106   0.302   2.137
14161TIP3   OH242439   1.777   3.418   3.096
14161TIP3    H142440   1.730   3.436   3.014
14161TIP3    H242441   1.870   3.427   3.072
14162TIP3   OH242442   6.445   0.425   4.558
14162TIP3    H142443   6.482   0.468   4.635
14162TIP3    H242444   6.520   0.404   4.503
14163TIP3   OH242445   0.077   1.244   5.085
14163TIP3    H142446   0.096   1.337   5.100
14163TIP3    H242447   0.151   1.213   5.032
14164TIP3   OH242448   4.885   1.061   2.885
14164TIP3    H142449   4.968   1.014   2.888
14164TIP3    H242450   4.819   0.993   2.873
14165TIP3   OH242451   3.268   0.323   2.868
14165TIP3    H142452   3.304   0.312   2.780
14165TIP3    H242453   3.193   0.263   2.871
14166TIP3   OH242454   5.212   6.159   6.348
14166TIP3    H142455   5.117   6.151   6.350
14166TIP3    H242456   5.241   6.133   6.435
14167TIP3   OH242457   5.480   1.384   2.968
14167TIP3    H142458   5.531   1.407   3.046
14167TIP3    H242459   5.408   1.447   2.966
14168TIP3   OH242460   1.164   2.437   5.194
14168TIP3    H142461   1.189   2.483   5.113
14168TIP3    H242462   1.247   2.400   5.226
14169TIP3   OH242463   5.674   6.885   2.192
14169TIP3    H142464   5.624   6.944   2.136
14169TIP3    H242465   5.764   6.917   2.186
14170TIP3   OH242466   6.465   6.802   3.503
14170TIP3    H142467   6.453   6.776   3.412
14170TIP3    H242468   6.544   6.757   3.531
14171TIP3   OH242469   0.200   0.504   2.693
14171TIP3    H142470   0.191   0.598   2.683
14171TIP3    H242471   0.177   0.487   2.785
14172TIP3   OH242472   2.747   7.222   1.483
14172TIP3    H142473   2.835   7.257   1.469
14172TIP3    H242474   2.731   7.232   1.577
14173TIP3   OH242475   5.379   4.576   1.782
14173TIP3    H142476   5.402   4.485   1.804
14173TIP3    H242477   5.299   4.593   1.832
14174TIP3   OH242478   2.265   1.043   5.792
14174TIP3    H142479   2.273   1.040   5.697
14174TIP3    H242480   2.341   1.095   5.820
14175TIP3   OH242481   4.999   2.044   1.360
14175TIP3    H142482   5.009   1.979   1.291
14175TIP3    H242483   4.958   1.997   1.432
14176TIP3   OH242484   2.720   0.300   0.918
14176TIP3    H142485   2.635   0.325   0.882
14176TIP3    H242486   2.766   0.259   0.846
14177TIP3   OH242487   0.977   4.923   4.672
14177TIP3    H142488   0.884   4.901   4.677
14177TIP3    H242489   1.020   4.843   4.643
14178TIP3   OH242490   0.055   1.511   3.666
14178TIP3    H142491   0.148   1.527   3.680
14178TIP3    H242492   0.030   1.452   3.737
14179TIP3   OH242493   4.923   2.983   5.675
14179TIP3    H142494   4.834   2.947   5.675
14179TIP3    H242495   4.976   2.913   5.638
14180TIP3   OH242496   1.633   2.802   2.210
14180TIP3    H142497   1.660   2.886   2.247
14180TIP3    H242498   1.543   2.817   2.181
14181TIP3   OH242499   1.352   4.709   0.730
14181TIP3    H142500   1.398   4.788   0.758
14181TIP3    H242501   1.300   4.737   0.655
14182TIP3   OH242502   4.145   5.922   0.126
14182TIP3    H142503   4.109   5.836   0.102
14182TIP3    H242504   4.240   5.908   0.127
14183TIP3   OH242505   1.124   1.653   3.552
14183TIP3    H142506   1.088   1.641   3.464
14183TIP3    H242507   1.216   1.628   3.544
14184TIP3   OH242508   6.117   2.741   3.839
14184TIP3    H142509   6.078   2.654   3.848
14184TIP3    H242510   6.156   2.758   3.925
14185TIP3   OH242511   3.333   0.438   3.127
14185TIP3    H142512   3.324   0.532   3.117
14185TIP3    H242513   3.346   0.405   3.038
14186TIP3   OH242514   3.243   2.452   1.189
14186TIP3    H142515   3.266   2.362   1.212
14186TIP3    H242516   3.298   2.472   1.113
14187TIP3   OH242517   3.454   7.239   5.952
14187TIP3    H142518   3.540   7.201   5.963
14187TIP3    H242519   3.404   7.173   5.904
14188TIP3   OH242520   5.255   1.392   1.114
14188TIP3    H142521   5.319   1.460   1.135
14188TIP3    H242522   5.289   1.351   1.034
14189TIP3   OH242523   7.904   7.395   4.100
14189TIP3    H142524   7.905   7.320   4.040
14189TIP3    H242525   7.920   7.471   4.045
14190TIP3   OH242526   1.715   0.506   3.119
14190TIP3    H142527   1.667   0.570   3.066
14190TIP3    H242528   1.660   0.428   3.116
14191TIP3   OH242529   4.209   7.412   6.230
14191TIP3    H142530   4.257   7.365   6.161
14191TIP3    H242531   4.182   7.494   6.189
14192TIP3   OH242532   6.647   6.937   2.577
14192TIP3    H142533   6.590   7.014   2.580
14192TIP3    H242534   6.590   6.866   2.547
14193TIP3   OH242535   3.787   0.122   6.044
14193TIP3    H142536   3.840   0.131   5.965
14193TIP3    H242537   3.789   0.028   6.064
14194TIP3   OH242538   5.111   2.037   1.073
14194TIP3    H142539   5.153   2.071   1.151
14194TIP3    H242540   5.182   2.021   1.012
14195TIP3   OH242541   6.451   2.535   6.525
14195TIP3    H142542   6.498   2.601   6.576
14195TIP3    H242543   6.362   2.536   6.562
14196TIP3   OH242544   0.530   0.011   0.386
14196TIP3    H142545   0.510   0.041   0.297
14196TIP3    H242546   0.452   0.034   0.437
14197TIP3   OH242547   5.833   0.930   1.728
14197TIP3    H142548   5.793   0.973   1.653
14197TIP3    H242549   5.905   0.988   1.753
14198TIP3   OH242550   4.873   5.095   3.107
14198TIP3    H142551   4.850   5.179   3.066
14198TIP3    H242552   4.960   5.076   3.073
14199TIP3   OH242553   0.555   0.376   5.374
14199TIP3    H142554   0.561   0.444   5.306
14199TIP3    H242555   0.562   0.424   5.456
14200TIP3   OH242556   7.210   4.284   6.482
14200TIP3    H142557   7.157   4.304   6.405
14200TIP3    H242558   7.233   4.191   6.471
14201TIP3   OH242559   2.278   7.400   2.502
14201TIP3    H142560   2.308   7.370   2.417
14201TIP3    H242561   2.198   7.351   2.519
14202TIP3   OH242562   2.482   3.402   1.079
14202TIP3    H142563   2.460   3.372   0.991
14202TIP3    H242564   2.426   3.350   1.137
14203TIP3   OH242565   0.104   4.409   5.339
14203TIP3    H142566   0.011   4.404   5.361
14203TIP3    H242567   0.124   4.324   5.298
14204TIP3   OH242568   0.472   1.307   6.171
14204TIP3    H142569   0.437   1.239   6.228
14204TIP3    H242570   0.566   1.309   6.190
14205TIP3   OH242571   5.377   7.510   4.408
14205TIP3    H142572   5.410   7.572   4.342
14205TIP3    H242573   5.379   7.425   4.363
14206TIP3   OH242574   7.476   0.214   5.269
14206TIP3    H142575   7.556   0.253   5.235
14206TIP3    H242576   7.468   0.130   5.223
14207TIP3   OH242577   7.841   3.547   1.981
14207TIP3    H142578   7.919   3.495   1.961
14207TIP3    H242579   7.780   3.485   2.022
14208TIP3   OH242580   6.036   5.388   5.778
14208TIP3    H142581   6.098   5.445   5.733
14208TIP3    H242582   6.087   5.309   5.800
14209TIP3   OH242583   1.133   4.172   2.986
14209TIP3    H142584   1.143   4.078   2.997
14209TIP3    H242585   1.127   4.184   2.891
14210TIP3   OH242586   7.338   0.788   5.485
14210TIP3    H142587   7.323   0.703   5.527
14210TIP3    H242588   7.419   0.777   5.436
14211TIP3   OH242589   4.228   0.773   3.879
14211TIP3    H142590   4.285   0.698   3.891
14211TIP3    H242591   4.231   0.819   3.963
14212TIP3   OH242592   4.674   0.674   4.663
14212TIP3    H142593   4.761   0.647   4.693
14212TIP3    H242594   4.692   0.729   4.586
14213TIP3   OH242595   3.899   1.122   4.233
14213TIP3    H142596   3.871   1.031   4.239
14213TIP3    H242597   3.827   1.171   4.274
14214TIP3   OH242598   8.177   7.260   3.080
14214TIP3    H142599   8.122   7.338   3.077
14214TIP3    H242600   8.246   7.277   3.015
14215TIP3   OH242601   0.295   4.219   1.882
14215TIP3    H142602   0.342   4.297   1.851
14215TIP3    H242603   0.203   4.242   1.877
14216TIP3   OH242604   7.491   2.180   6.179
14216TIP3    H142605   7.409   2.175   6.130
14216TIP3    H242606   7.554   2.216   6.117
14217TIP3   OH242607   8.067   5.026   4.249
14217TIP3    H142608   8.044   5.114   4.217
14217TIP3    H242609   8.009   5.013   4.324
14218TIP3   OH242610   1.590   7.274   5.983
14218TIP3    H142611   1.497   7.256   5.969
14218TIP3    H242612   1.636   7.203   5.939
14219TIP3   OH242613   6.166   5.185   0.898
14219TIP3    H142614   6.172   5.207   0.804
14219TIP3    H242615   6.137   5.266   0.939
14220TIP3   OH242616   2.721   5.722   0.843
14220TIP3    H142617   2.701   5.812   0.872
14220TIP3    H242618   2.665   5.710   0.766
14221TIP3   OH242619   3.444   0.560   3.435
14221TIP3    H142620   3.481   0.626   3.494
14221TIP3    H242621   3.368   0.603   3.396
14222TIP3   OH242622   5.892   5.631   1.263
14222TIP3    H142623   5.826   5.696   1.240
14222TIP3    H242624   5.861   5.551   1.222
14223TIP3   OH242625   4.628   5.601   4.825
14223TIP3    H142626   4.616   5.545   4.902
14223TIP3    H242627   4.588   5.685   4.850
14224TIP3   OH242628   5.589   5.357   1.704
14224TIP3    H142629   5.533   5.284   1.728
14224TIP3    H242630   5.555   5.387   1.620
14225TIP3   OH242631   1.598   5.085   5.316
14225TIP3    H142632   1.513   5.042   5.325
14225TIP3    H242633   1.584   5.152   5.249
14226TIP3   OH242634   6.538   3.757   3.322
14226TIP3    H142635   6.603   3.824   3.300
14226TIP3    H242636   6.589   3.679   3.343
14227TIP3   OH242637   7.023   0.822   0.981
14227TIP3    H142638   7.053   0.732   0.992
14227TIP3    H242639   6.951   0.831   1.044
14228TIP3   OH242640   0.085   1.722   2.081
14228TIP3    H142641   0.146   1.745   2.011
14228TIP3    H242642   0.036   1.802   2.098
14229TIP3   OH242643   0.477   4.445   6.670
14229TIP3    H142644   0.524   4.468   6.750
14229TIP3    H242645   0.478   4.526   6.618
14230TIP3   OH242646   7.068   4.212  -0.013
14230TIP3    H142647   7.020   4.205   0.069
14230TIP3    H242648   7.155   4.178   0.007
14231TIP3   OH242649   0.330   2.714   5.535
14231TIP3    H142650   0.343   2.808   5.546
14231TIP3    H242651   0.258   2.692   5.594
14232TIP3   OH242652   1.329   2.945   1.192
14232TIP3    H142653   1.273   2.921   1.118
14232TIP3    H242654   1.371   3.027   1.165
14233TIP3   OH242655   6.939   0.890   0.397
14233TIP3    H142656   6.992   0.828   0.348
14233TIP3    H242657   6.983   0.899   0.481
14234TIP3   OH242658   5.863   2.073   4.611
14234TIP3    H142659   5.890   1.984   4.636
14234TIP3    H242660   5.863   2.072   4.515
14235TIP3   OH242661   0.775   6.172   2.168
14235TIP3    H142662   0.813   6.108   2.228
14235TIP3    H242663   0.785   6.132   2.082
14236TIP3   OH242664   8.184   1.835   3.813
14236TIP3    H142665   8.135   1.916   3.799
14236TIP3    H242666   8.170   1.785   3.733
14237TIP3   OH242667   2.110   7.625   1.536
14237TIP3    H142668   2.186   7.629   1.594
14237TIP3    H242669   2.140   7.577   1.459
14238TIP3   OH242670   6.514   5.806   5.742
14238TIP3    H142671   6.517   5.721   5.784
14238TIP3    H242672   6.432   5.845   5.773
14239TIP3   OH242673   0.869   2.168   5.771
14239TIP3    H142674   0.799   2.106   5.793
14239TIP3    H242675   0.909   2.130   5.692
14240TIP3   OH242676   6.466   0.791   3.322
14240TIP3    H142677   6.507   0.705   3.311
14240TIP3    H242678   6.375   0.778   3.298
14241TIP3   OH242679   0.130   2.721   2.076
14241TIP3    H142680   0.203   2.754   2.023
14241TIP3    H242681   0.057   2.781   2.056
14242TIP3   OH242682   3.213   1.115   5.743
14242TIP3    H142683   3.271   1.057   5.792
14242TIP3    H242684   3.196   1.188   5.802
14243TIP3   OH242685   0.827   3.854   4.251
14243TIP3    H142686   0.814   3.884   4.160
14243TIP3    H242687   0.918   3.874   4.270
14244TIP3   OH242688   4.838   4.839   3.656
14244TIP3    H142689   4.831   4.918   3.710
14244TIP3    H242690   4.930   4.838   3.628
14245TIP3   OH242691   5.247   3.100   4.925
14245TIP3    H142692   5.206   3.032   4.871
14245TIP3    H242693   5.275   3.167   4.862
14246TIP3   OH242694   8.080   2.589   1.119
14246TIP3    H142695   8.049   2.651   1.053
14246TIP3    H242696   8.075   2.638   1.202
14247TIP3   OH242697   3.857   5.963   1.319
14247TIP3    H142698   3.887   5.917   1.240
14247TIP3    H242699   3.774   6.003   1.292
14248TIP3   OH242700   6.714   4.079   1.174
14248TIP3    H142701   6.735   4.172   1.185
14248TIP3    H242702   6.620   4.073   1.190
14249TIP3   OH242703   6.163   2.034   2.709
14249TIP3    H142704   6.115   2.090   2.770
14249TIP3    H242705   6.123   2.052   2.623
14250TIP3   OH242706   6.734   1.312   6.281
14250TIP3    H142707   6.742   1.340   6.373
14250TIP3    H242708   6.823   1.286   6.256
14251TIP3   OH242709   5.289   7.761   3.121
14251TIP3    H142710   5.201   7.724   3.111
14251TIP3    H242711   5.280   7.826   3.191
14252TIP3   OH242712   2.771   3.362   2.906
14252TIP3    H142713   2.792   3.446   2.864
14252TIP3    H242714   2.680   3.345   2.880
14253TIP3   OH242715   6.627   3.440   4.774
14253TIP3    H142716   6.586   3.524   4.755
14253TIP3    H242717   6.715   3.463   4.806
14254TIP3   OH242718   5.633   5.839   0.738
14254TIP3    H142719   5.618   5.750   0.769
14254TIP3    H242720   5.654   5.888   0.818
14255TIP3   OH242721   6.008   0.642   4.062
14255TIP3    H142722   5.925   0.636   4.109
14255TIP3    H242723   5.987   0.618   3.972
14256TIP3   OH242724   7.479   3.624   1.181
14256TIP3    H142725   7.424   3.667   1.117
14256TIP3    H242726   7.457   3.666   1.264
14257TIP3   OH242727   3.107   0.276   6.688
14257TIP3    H142728   3.137   0.261   6.777
14257TIP3    H242729   3.028   0.223   6.680
14258TIP3   OH242730   3.505   2.042   0.332
14258TIP3    H142731   3.575   2.106   0.336
14258TIP3    H242732   3.470   2.051   0.243
14259TIP3   OH242733   5.561   6.395   6.075
14259TIP3    H142734   5.555   6.338   5.998
14259TIP3    H242735   5.502   6.467   6.055
14260TIP3   OH242736   6.155   4.064   1.447
14260TIP3    H142737   6.205   4.145   1.459
14260TIP3    H242738   6.079   4.091   1.396
14261TIP3   OH242739   0.667   5.946   5.896
14261TIP3    H142740   0.635   5.976   5.811
14261TIP3    H242741   0.616   5.868   5.915
14262TIP3   OH242742   2.393   0.994   6.449
14262TIP3    H142743   2.345   0.934   6.391
14262TIP3    H242744   2.476   1.010   6.403
14263TIP3   OH242745   5.936   0.122   2.988
14263TIP3    H142746   5.865   0.080   2.939
14263TIP3    H242747   5.902   0.129   3.078
14264TIP3   OH242748   3.777   6.375   1.038
14264TIP3    H142749   3.837   6.434   0.992
14264TIP3    H242750   3.711   6.352   0.974
14265TIP3   OH242751   0.977   4.445   5.611
14265TIP3    H142752   1.004   4.361   5.648
14265TIP3    H242753   0.904   4.424   5.552
14266TIP3   OH242754   5.316   7.787   5.074
14266TIP3    H142755   5.252   7.721   5.099
14266TIP3    H242756   5.274   7.835   5.003
14267TIP3   OH242757   0.640   7.708   5.000
14267TIP3    H142758   0.701   7.647   4.959
14267TIP3    H242759   0.628   7.777   4.934
14268TIP3   OH242760   4.247   1.145   3.549
14268TIP3    H142761   4.195   1.107   3.619
14268TIP3    H242762   4.229   1.090   3.473
14269TIP3   OH242763   1.242   1.642   0.149
14269TIP3    H142764   1.227   1.548   0.136
14269TIP3    H242765   1.260   1.675   0.061
14270TIP3   OH242766   1.452   7.433   4.195
14270TIP3    H142767   1.475   7.488   4.269
14270TIP3    H242768   1.520   7.366   4.192
14271TIP3   OH242769   3.690   1.501   3.405
14271TIP3    H142770   3.672   1.417   3.361
14271TIP3    H242771   3.774   1.529   3.369
14272TIP3   OH242772   2.033   5.789   3.284
14272TIP3    H142773   2.072   5.702   3.285
14272TIP3    H242774   2.047   5.822   3.373
14273TIP3   OH242775   6.256   5.908   2.918
14273TIP3    H142776   6.161   5.907   2.930
14273TIP3    H242777   6.284   5.993   2.954
14274TIP3   OH242778   4.902   5.692   0.252
14274TIP3    H142779   4.888   5.786   0.262
14274TIP3    H242780   4.814   5.654   0.254
14275TIP3   OH242781   5.175   4.835   3.138
14275TIP3    H142782   5.150   4.828   3.230
14275TIP3    H242783   5.181   4.929   3.121
14276TIP3   OH242784   7.646   6.875   1.255
14276TIP3    H142785   7.674   6.941   1.319
14276TIP3    H242786   7.613   6.926   1.181
14277TIP3   OH242787   0.667   3.452   5.662
14277TIP3    H142788   0.609   3.413   5.597
14277TIP3    H242789   0.723   3.511   5.612
14278TIP3   OH242790   3.784   1.513   2.745
14278TIP3    H142791   3.875   1.535   2.767
14278TIP3    H242792   3.778   1.527   2.651
14279TIP3   OH242793   6.162   1.479   6.444
14279TIP3    H142794   6.152   1.462   6.351
14279TIP3    H242795   6.123   1.566   6.457
14280TIP3   OH242796   0.907   5.343   0.963
14280TIP3    H142797   0.860   5.367   0.883
14280TIP3    H242798   0.959   5.266   0.939
14281TIP3   OH242799   8.161   1.592   0.495
14281TIP3    H142800   8.081   1.615   0.448
14281TIP3    H242801   8.220   1.558   0.428
14282TIP3   OH242802   0.556   6.277   1.970
14282TIP3    H142803   0.556   6.271   2.065
14282TIP3    H242804   0.631   6.223   1.943
14283TIP3   OH242805   6.652   3.335   0.965
14283TIP3    H142806   6.618   3.354   0.878
14283TIP3    H242807   6.574   3.331   1.021
14284TIP3   OH242808   0.406   7.514   2.864
14284TIP3    H142809   0.352   7.565   2.926
14284TIP3    H242810   0.352   7.509   2.785
14285TIP3   OH242811   0.360   2.757   3.284
14285TIP3    H142812   0.279   2.787   3.242
14285TIP3    H242813   0.336   2.747   3.376
14286TIP3   OH242814   5.814   0.576   0.664
14286TIP3    H142815   5.735   0.629   0.670
14286TIP3    H242816   5.882   0.637   0.633
14287TIP3   OH242817   4.600   1.176   6.357
14287TIP3    H142818   4.589   1.085   6.330
14287TIP3    H242819   4.536   1.189   6.427
14288TIP3   OH242820   8.126   0.069   1.375
14288TIP3    H142821   8.040   0.047   1.340
14288TIP3    H242822   8.109   0.132   1.445
14289TIP3   OH242823   4.423   7.066   2.007
14289TIP3    H142824   4.516   7.047   2.021
14289TIP3    H242825   4.409   7.148   2.055
14290TIP3   OH242826   1.038   3.601   5.075
14290TIP3    H142827   1.096   3.594   4.999
14290TIP3    H242828   1.013   3.510   5.093
14291TIP3   OH242829   5.973   3.484   3.404
14291TIP3    H142830   5.962   3.573   3.370
14291TIP3    H242831   5.889   3.441   3.386
14292TIP3   OH242832   1.856   5.269   5.903
14292TIP3    H142833   1.848   5.249   5.996
14292TIP3    H242834   1.791   5.336   5.886
14293TIP3   OH242835   4.498   3.579   0.149
14293TIP3    H142836   4.466   3.609   0.064
14293TIP3    H242837   4.592   3.596   0.146
14294TIP3   OH242838   2.995   2.651   6.054
14294TIP3    H142839   2.961   2.635   5.966
14294TIP3    H242840   2.996   2.566   6.096
14295TIP3   OH242841   5.118   2.645   4.067
14295TIP3    H142842   5.151   2.609   4.149
14295TIP3    H242843   5.058   2.714   4.093
14296TIP3   OH242844   2.562   4.304   3.460
14296TIP3    H142845   2.560   4.322   3.366
14296TIP3    H242846   2.650   4.330   3.488
14297TIP3   OH242847   7.298   3.820   5.581
14297TIP3    H142848   7.377   3.808   5.634
14297TIP3    H242849   7.267   3.732   5.564
14298TIP3   OH242850   0.720   3.947   4.511
14298TIP3    H142851   0.733   3.905   4.426
14298TIP3    H242852   0.802   3.993   4.528
14299TIP3   OH242853   5.254   2.452   0.077
14299TIP3    H142854   5.313   2.446   0.152
14299TIP3    H242855   5.211   2.367   0.074
14300TIP3   OH242856   5.646   6.726   5.904
14300TIP3    H142857   5.677   6.779   5.830
14300TIP3    H242858   5.551   6.737   5.903
14301TIP3   OH242859   0.555   1.334   5.885
14301TIP3    H142860   0.499   1.410   5.898
14301TIP3    H242861   0.579   1.306   5.974
14302TIP3   OH242862   0.071   6.041   6.444
14302TIP3    H142863   0.148   6.024   6.498
14302TIP3    H242864   0.037   5.954   6.423
14303TIP3   OH242865   3.440   5.401   6.749
14303TIP3    H142866   3.493   5.331   6.710
14303TIP3    H242867   3.487   5.425   6.829
14304TIP3   OH242868   1.945   2.269   4.084
14304TIP3    H142869   1.997   2.281   4.005
14304TIP3    H242870   1.950   2.354   4.129
14305TIP3   OH242871   0.124   4.243   5.617
14305TIP3    H142872   0.191   4.213   5.557
14305TIP3    H242873   0.093   4.326   5.580
14306TIP3   OH242874   4.742   0.636   6.081
14306TIP3    H142875   4.772   0.586   6.005
14306TIP3    H242876   4.759   0.579   6.156
14307TIP3   OH242877   0.892   1.564   3.701
14307TIP3    H142878   0.976   1.591   3.663
14307TIP3    H242879   0.861   1.641   3.748
14308TIP3   OH242880   6.799   1.717   0.970
14308TIP3    H142881   6.816   1.766   0.889
14308TIP3    H242882   6.852   1.638   0.961
14309TIP3   OH242883   7.850   2.460   6.238
14309TIP3    H142884   7.839   2.446   6.332
14309TIP3    H242885   7.773   2.510   6.212
14310TIP3   OH242886   1.807   7.037   4.301
14310TIP3    H142887   1.874   6.985   4.257
14310TIP3    H242888   1.814   7.011   4.393
14311TIP3   OH242889   0.430   7.824   3.389
14311TIP3    H142890   0.461   7.914   3.379
14311TIP3    H242891   0.504   7.778   3.430
14312TIP3   OH242892   8.229   1.255   5.444
14312TIP3    H142893   8.219   1.320   5.376
14312TIP3    H242894   8.256   1.176   5.398
14313TIP3   OH242895   1.452   7.745   0.905
14313TIP3    H142896   1.446   7.738   0.810
14313TIP3    H242897   1.473   7.656   0.934
14314TIP3   OH242898   5.904   7.088   1.364
14314TIP3    H142899   5.997   7.084   1.386
14314TIP3    H242900   5.902   7.101   1.269
14315TIP3   OH242901   4.980   4.954   5.813
14315TIP3    H142902   4.902   4.900   5.824
14315TIP3    H242903   4.951   5.026   5.757
14316TIP3   OH242904   7.475   6.593   4.858
14316TIP3    H142905   7.510   6.567   4.773
14316TIP3    H242906   7.515   6.678   4.876
14317TIP3   OH242907   7.304   0.366   6.006
14317TIP3    H142908   7.339   0.453   6.027
14317TIP3    H242909   7.217   0.365   6.046
14318TIP3   OH242910   3.904   1.093   3.466
14318TIP3    H142911   3.933   1.174   3.423
14318TIP3    H242912   3.904   1.027   3.397
14319TIP3   OH242913   2.112   6.354   3.711
14319TIP3    H142914   2.094   6.444   3.738
14319TIP3    H242915   2.101   6.302   3.791
14320TIP3   OH242916   5.947   5.742   6.219
14320TIP3    H142917   5.942   5.656   6.177
14320TIP3    H242918   5.914   5.802   6.153
14321TIP3   OH242919   4.696   5.691   5.661
14321TIP3    H142920   4.759   5.714   5.592
14321TIP3    H242921   4.620   5.746   5.644
14322TIP3   OH242922   6.568   3.340   2.377
14322TIP3    H142923   6.663   3.350   2.366
14322TIP3    H242924   6.546   3.394   2.452
14323TIP3   OH242925   4.633   4.425   4.628
14323TIP3    H142926   4.664   4.432   4.718
14323TIP3    H242927   4.594   4.338   4.623
14324TIP3   OH242928   1.429   4.024   1.968
14324TIP3    H142929   1.452   4.043   1.877
14324TIP3    H242930   1.505   3.977   2.003
14325TIP3   OH242931   0.685   0.913   2.797
14325TIP3    H142932   0.720   0.832   2.762
14325TIP3    H242933   0.590   0.902   2.794
14326TIP3   OH242934   3.265   2.546   2.413
14326TIP3    H142935   3.205   2.473   2.427
14326TIP3    H242936   3.240   2.611   2.479
14327TIP3   OH242937   1.368   7.197   2.591
14327TIP3    H142938   1.318   7.245   2.656
14327TIP3    H242939   1.302   7.142   2.547
14328TIP3   OH242940   5.102   3.537   3.402
14328TIP3    H142941   5.135   3.535   3.492
14328TIP3    H242942   5.007   3.528   3.410
14329TIP3   OH242943   1.144   5.109   5.971
14329TIP3    H142944   1.110   5.045   5.908
14329TIP3    H242945   1.090   5.097   6.049
14330TIP3   OH242946   3.443   7.237   2.204
14330TIP3    H142947   3.463   7.294   2.278
14330TIP3    H242948   3.527   7.227   2.158
14331TIP3   OH242949   4.244   4.482   2.870
14331TIP3    H142950   4.219   4.405   2.922
14331TIP3    H242951   4.326   4.456   2.827
14332TIP3   OH242952   3.783   4.820   6.690
14332TIP3    H142953   3.866   4.776   6.712
14332TIP3    H242954   3.754   4.777   6.610
14333TIP3   OH242955   3.028   7.589   1.362
14333TIP3    H142956   2.980   7.566   1.441
14333TIP3    H242957   3.119   7.600   1.391
14334TIP3   OH242958   4.922   2.806   3.062
14334TIP3    H142959   4.871   2.846   3.132
14334TIP3    H242960   4.867   2.736   3.028
14335TIP3   OH242961   6.449   4.027   5.826
14335TIP3    H142962   6.451   3.966   5.752
14335TIP3    H242963   6.500   3.984   5.894
14336TIP3   OH242964   3.696   7.053   1.688
14336TIP3    H142965   3.727   6.962   1.693
14336TIP3    H242966   3.750   7.100   1.751
14337TIP3   OH242967   2.075   1.305   3.192
14337TIP3    H142968   1.990   1.263   3.208
14337TIP3    H242969   2.104   1.271   3.107
14338TIP3   OH242970   8.142   0.537   6.054
14338TIP3    H142971   8.062   0.572   6.094
14338TIP3    H242972   8.166   0.603   5.988
14339TIP3   OH242973   1.922   0.745   1.765
14339TIP3    H142974   1.842   0.795   1.746
14339TIP3    H242975   1.901   0.699   1.847
14340TIP3   OH242976   4.377   5.766   3.861
14340TIP3    H142977   4.318   5.778   3.935
14340TIP3    H242978   4.347   5.685   3.819
14341TIP3   OH242979   7.712   5.044   3.054
14341TIP3    H142980   7.728   4.986   3.128
14341TIP3    H242981   7.781   5.110   3.059
14342TIP3   OH242982   4.429   5.268   2.491
14342TIP3    H142983   4.354   5.287   2.434
14342TIP3    H242984   4.404   5.302   2.577
14343TIP3   OH242985   8.217   3.295   2.850
14343TIP3    H142986   8.281   3.252   2.793
14343TIP3    H242987   8.163   3.346   2.791
14344TIP3   OH242988   2.387   4.836   4.243
14344TIP3    H142989   2.362   4.744   4.253
14344TIP3    H242990   2.460   4.848   4.303
14345TIP3   OH242991   0.695   0.574   4.659
14345TIP3    H142992   0.786   0.570   4.687
14345TIP3    H242993   0.681   0.666   4.635
14346TIP3   OH242994   7.526   1.597   5.185
14346TIP3    H142995   7.591   1.571   5.119
14346TIP3    H242996   7.443   1.596   5.138
14347TIP3   OH242997   6.413   4.126   2.567
14347TIP3    H142998   6.506   4.128   2.591
14347TIP3    H242999   6.386   4.036   2.585
14348TIP3   OH243000   2.284   3.876   2.154
14348TIP3    H143001   2.372   3.839   2.166
14348TIP3    H243002   2.282   3.900   2.061
14349TIP3   OH243003   3.458   4.597   5.441
14349TIP3    H143004   3.481   4.544   5.365
14349TIP3    H243005   3.374   4.637   5.419
14350TIP3   OH243006   0.935   5.412   5.045
14350TIP3    H143007   0.881   5.469   4.992
14350TIP3    H243008   1.013   5.464   5.065
14351TIP3   OH243009   2.452   1.116   1.505
14351TIP3    H143010   2.495   1.080   1.582
14351TIP3    H243011   2.488   1.065   1.432
14352TIP3   OH243012   6.259   0.179   4.904
14352TIP3    H143013   6.276   0.195   4.811
14352TIP3    H243014   6.170   0.145   4.907
14353TIP3   OH243015   5.017   5.903   6.470
14353TIP3    H143016   5.044   5.990   6.497
14353TIP3    H243017   4.995   5.858   6.552
14354TIP3   OH243018   7.394   4.715   4.687
14354TIP3    H143019   7.365   4.651   4.752
14354TIP3    H243020   7.483   4.688   4.665
14355TIP3   OH243021   5.896   7.055   5.723
14355TIP3    H143022   5.820   7.069   5.667
14355TIP3    H243023   5.950   7.133   5.711
14356TIP3   OH243024   6.867   6.463   4.827
14356TIP3    H143025   6.772   6.476   4.830
14356TIP3    H243026   6.890   6.428   4.913
14357TIP3   OH243027   6.510   6.355   1.338
14357TIP3    H143028   6.601   6.371   1.314
14357TIP3    H243029   6.481   6.284   1.281
14358TIP3   OH243030   4.948   0.850   2.226
14358TIP3    H143031   5.016   0.822   2.164
14358TIP3    H243032   4.929   0.941   2.202
14359TIP3   OH243033   4.601   7.831   0.250
14359TIP3    H143034   4.626   7.799   0.337
14359TIP3    H243035   4.560   7.915   0.267
14360TIP3   OH243036   6.351   6.233   0.208
14360TIP3    H143037   6.432   6.268   0.171
14360TIP3    H243038   6.377   6.149   0.246
14361TIP3   OH243039   2.119   2.836   5.229
14361TIP3    H143040   2.194   2.849   5.172
14361TIP3    H243041   2.044   2.871   5.180
14362TIP3   OH243042   7.806   1.978   0.438
14362TIP3    H143043   7.855   2.056   0.411
14362TIP3    H243044   7.844   1.907   0.388
14363TIP3   OH243045   0.187   0.914   5.737
14363TIP3    H143046   0.203   0.852   5.666
14363TIP3    H243047   0.238   0.991   5.713
14364TIP3   OH243048   0.588   2.820   5.294
14364TIP3    H143049   0.653   2.807   5.363
14364TIP3    H243050   0.507   2.783   5.330
14365TIP3   OH243051   2.958   4.074   5.214
14365TIP3    H143052   2.869   4.040   5.222
14365TIP3    H243053   3.000   4.017   5.150
14366TIP3   OH243054   0.572   3.216   3.755
14366TIP3    H143055   0.548   3.295   3.803
14366TIP3    H243056   0.557   3.238   3.663
14367TIP3   OH243057   3.533   3.145   4.459
14367TIP3    H143058   3.566   3.142   4.370
14367TIP3    H243059   3.608   3.122   4.514
14368TIP3   OH243060   2.680   2.189   6.037
14368TIP3    H143061   2.641   2.113   5.993
14368TIP3    H243062   2.764   2.157   6.069
14369TIP3   OH243063   5.507   5.362   2.814
14369TIP3    H143064   5.488   5.341   2.906
14369TIP3    H243065   5.441   5.428   2.791
14370TIP3   OH243066   1.951   3.359   2.838
14370TIP3    H143067   1.986   3.331   2.923
14370TIP3    H243068   1.944   3.278   2.787
14371TIP3   OH243069   1.138  -0.030   3.282
14371TIP3    H143070   1.140  -0.086   3.204
14371TIP3    H243071   1.136   0.059   3.248
14372TIP3   OH243072   6.264   6.922   3.694
14372TIP3    H143073   6.190   6.865   3.715
14372TIP3    H243074   6.310   6.876   3.624
14373TIP3   OH243075   4.910   4.235   5.069
14373TIP3    H143076   4.841   4.219   5.133
14373TIP3    H243077   4.966   4.301   5.109
14374TIP3   OH243078   6.175   0.109   2.140
14374TIP3    H143079   6.180   0.081   2.049
14374TIP3    H243080   6.265   0.106   2.171
14375TIP3   OH243081   6.609   3.842   2.380
14375TIP3    H143082   6.566   3.906   2.324
14375TIP3    H243083   6.633   3.892   2.459
14376TIP3   OH243084   6.058   1.699   0.471
14376TIP3    H143085   6.022   1.614   0.495
14376TIP3    H243086   6.140   1.705   0.521
14377TIP3   OH243087   1.836   7.714   5.186
14377TIP3    H143088   1.784   7.771   5.243
14377TIP3    H243089   1.877   7.652   5.247
14378TIP3   OH243090   4.061   2.726   3.553
14378TIP3    H143091   4.062   2.822   3.555
14378TIP3    H243092   4.153   2.702   3.564
14379TIP3   OH243093   6.104   2.777   1.236
14379TIP3    H143094   6.069   2.762   1.323
14379TIP3    H243095   6.199   2.785   1.248
14380TIP3   OH243096   3.936   2.524   0.154
14380TIP3    H143097   3.948   2.599   0.095
14380TIP3    H243098   3.949   2.560   0.242
14381TIP3   OH243099   0.196   3.577   2.291
14381TIP3    H143100   0.192   3.621   2.206
14381TIP3    H243101   0.275   3.523   2.287
14382TIP3   OH243102   3.455   5.692   3.168
14382TIP3    H143103   3.534   5.639   3.172
14382TIP3    H243104   3.383   5.630   3.179
14383TIP3   OH243105   7.957   6.596   3.718
14383TIP3    H143106   7.870   6.556   3.723
14383TIP3    H243107   8.018   6.524   3.731
14384TIP3   OH243108   7.774   7.555   2.876
14384TIP3    H143109   7.760   7.649   2.886
14384TIP3    H243110   7.754   7.518   2.963
14385TIP3   OH243111   3.327   3.985   4.147
14385TIP3    H143112   3.273   4.062   4.129
14385TIP3    H243113   3.393   3.985   4.077
14386TIP3   OH243114   6.316   6.178   3.992
14386TIP3    H143115   6.399   6.224   3.991
14386TIP3    H243116   6.327   6.106   3.931
14387TIP3   OH243117   1.507   3.988   5.367
14387TIP3    H143118   1.449   3.966   5.440
14387TIP3    H243119   1.560   3.909   5.354
14388TIP3   OH243120   1.087   6.898   1.531
14388TIP3    H143121   1.165   6.871   1.579
14388TIP3    H243122   1.078   6.991   1.551
14389TIP3   OH243123   6.276   4.610   2.437
14389TIP3    H143124   6.260   4.629   2.344
14389TIP3    H243125   6.290   4.696   2.477
14390TIP3   OH243126   3.239   1.514   5.090
14390TIP3    H143127   3.181   1.461   5.035
14390TIP3    H243128   3.262   1.457   5.163
14391TIP3   OH243129   5.547   4.779   1.891
14391TIP3    H143130   5.501   4.695   1.891
14391TIP3    H243131   5.589   4.783   1.805
14392TIP3   OH243132   5.763   6.382   0.763
14392TIP3    H143133   5.691   6.375   0.700
14392TIP3    H243134   5.841   6.393   0.709
14393TIP3   OH243135   6.038   0.571   4.869
14393TIP3    H143136   6.025   0.500   4.932
14393TIP3    H243137   6.085   0.638   4.918
14394TIP3   OH243138   2.570   4.623   3.669
14394TIP3    H143139   2.521   4.540   3.668
14394TIP3    H243140   2.541   4.667   3.749
14395TIP3   OH243141   4.994   2.810   5.444
14395TIP3    H143142   4.937   2.840   5.373
14395TIP3    H243143   5.083   2.829   5.413
14396TIP3   OH243144   0.111   2.889   4.136
14396TIP3    H143145   0.035   2.920   4.184
14396TIP3    H243146   0.075   2.832   4.069
14397TIP3   OH243147   4.077   6.707   1.916
14397TIP3    H143148   4.088   6.753   1.832
14397TIP3    H243149   4.051   6.618   1.891
14398TIP3   OH243150   0.789   4.520   1.930
14398TIP3    H143151   0.779   4.540   1.837
14398TIP3    H243152   0.883   4.532   1.947
14399TIP3   OH243153   7.845   6.183   3.048
14399TIP3    H143154   7.844   6.087   3.047
14399TIP3    H243155   7.923   6.206   2.997
14400TIP3   OH243156   1.702   2.434   4.218
14400TIP3    H143157   1.717   2.369   4.286
14400TIP3    H243158   1.634   2.395   4.162
14401TIP3   OH243159   5.624   6.254   6.641
14401TIP3    H143160   5.617   6.218   6.553
14401TIP3    H243161   5.549   6.312   6.650
14402TIP3   OH243162   4.871   6.584   2.263
14402TIP3    H143163   4.890   6.565   2.171
14402TIP3    H243164   4.924   6.521   2.312
14403TIP3   OH243165   3.930   1.053   5.824
14403TIP3    H143166   3.850   1.104   5.813
14403TIP3    H243167   3.945   1.050   5.919
14404TIP3   OH243168   4.412   5.782   5.709
14404TIP3    H143169   4.342   5.826   5.757
14404TIP3    H243170   4.397   5.806   5.617
14405TIP3   OH243171   6.167   7.624   3.130
14405TIP3    H143172   6.076   7.636   3.103
14405TIP3    H243173   6.216   7.687   3.077
14406TIP3   OH243174   6.654   6.966   4.262
14406TIP3    H143175   6.679   6.874   4.259
14406TIP3    H243176   6.563   6.967   4.231
14407TIP3   OH243177   1.659   6.708   0.157
14407TIP3    H143178   1.660   6.751   0.242
14407TIP3    H243179   1.650   6.615   0.177
14408TIP3   OH243180   4.639   6.723   0.175
14408TIP3    H143181   4.612   6.632   0.184
14408TIP3    H243182   4.727   6.726   0.212
14409TIP3   OH243183   3.780   6.047   6.432
14409TIP3    H143184   3.870   6.071   6.455
14409TIP3    H243185   3.759   5.974   6.491
14410TIP3   OH243186   4.853   6.059   3.877
14410TIP3    H143187   4.945   6.044   3.899
14410TIP3    H243188   4.808   5.981   3.911
14411TIP3   OH243189   6.509   2.947   0.878
14411TIP3    H143190   6.477   2.921   0.792
14411TIP3    H243191   6.590   2.896   0.890
14412TIP3   OH243192   5.311   4.942   1.859
14412TIP3    H143193   5.386   4.884   1.869
14412TIP3    H243194   5.260   4.929   1.940
14413TIP3   OH243195   7.461   7.180   3.062
14413TIP3    H143196   7.449   7.113   3.130
14413TIP3    H243197   7.485   7.130   2.984
14414TIP3   OH243198   8.085   2.973   3.863
14414TIP3    H143199   8.173   2.980   3.828
14414TIP3    H243200   8.070   2.880   3.875
14415TIP3   OH243201   6.693   6.958   3.059
14415TIP3    H143202   6.671   6.887   3.119
14415TIP3    H243203   6.635   7.030   3.085
14416TIP3   OH243204   1.068   4.251   1.792
14416TIP3    H143205   1.056   4.182   1.858
14416TIP3    H243206   1.060   4.333   1.841
14417TIP3   OH243207   8.293   6.161   3.215
14417TIP3    H143208   8.204   6.191   3.194
14417TIP3    H243209   8.336   6.238   3.253
14418TIP3   OH243210   2.725   0.453   3.715
14418TIP3    H143211   2.813   0.440   3.680
14418TIP3    H243212   2.672   0.387   3.670
14419TIP3   OH243213   6.860   4.642   1.937
14419TIP3    H143214   6.768   4.662   1.954
14419TIP3    H243215   6.903   4.727   1.930
14420TIP3   OH243216   3.357   5.394   1.608
14420TIP3    H143217   3.448   5.420   1.625
14420TIP3    H243218   3.325   5.363   1.693
14421TIP3   OH243219   7.297   4.391   5.745
14421TIP3    H143220   7.236   4.465   5.747
14421TIP3    H243221   7.296   4.361   5.655
14422TIP3   OH243222   4.743   7.388   5.499
14422TIP3    H143223   4.743   7.472   5.452
14422TIP3    H243224   4.718   7.324   5.433
14423TIP3   OH243225   7.308   3.180   2.543
14423TIP3    H143226   7.251   3.141   2.608
14423TIP3    H243227   7.303   3.121   2.468
14424TIP3   OH243228   5.101   2.511   1.937
14424TIP3    H143229   5.033   2.488   2.001
14424TIP3    H243230   5.120   2.603   1.953
14425TIP3   OH243231   7.394   3.342   1.813
14425TIP3    H143232   7.346   3.356   1.731
14425TIP3    H243233   7.327   3.312   1.875
14426TIP3   OH243234   0.774   4.235   0.907
14426TIP3    H143235   0.846   4.172   0.906
14426TIP3    H243236   0.757   4.254   0.815
14427TIP3   OH243237   2.327   1.366   1.254
14427TIP3    H143238   2.320   1.429   1.183
14427TIP3    H243239   2.415   1.381   1.290
14428TIP3   OH243240   0.230   0.571   0.783
14428TIP3    H143241   0.234   0.660   0.816
14428TIP3    H243242   0.187   0.579   0.697
14429TIP3   OH243243   7.888   6.785   3.526
14429TIP3    H143244   7.917   6.870   3.561
14429TIP3    H243245   7.913   6.722   3.593
14430TIP3   OH243246   2.005   1.837   3.164
14430TIP3    H143247   1.922   1.828   3.117
14430TIP3    H243248   2.034   1.926   3.145
14431TIP3   OH243249   4.600   0.461   1.663
14431TIP3    H143250   4.695   0.468   1.658
14431TIP3    H243251   4.582   0.436   1.754
14432TIP3   OH243252   4.909   2.546   6.483
14432TIP3    H143253   4.865   2.484   6.425
14432TIP3    H243254   4.962   2.492   6.541
14433TIP3   OH243255   4.614   2.778   0.984
14433TIP3    H143256   4.585   2.737   1.066
14433TIP3    H243257   4.692   2.730   0.959
14434TIP3   OH243258   8.127   7.629   3.789
14434TIP3    H143259   8.163   7.547   3.754
14434TIP3    H243260   8.172   7.641   3.872
14435TIP3   OH243261   4.510   2.901   5.997
14435TIP3    H143262   4.531   2.850   5.919
14435TIP3    H243263   4.422   2.935   5.980
14436TIP3   OH243264   3.410   6.469   1.417
14436TIP3    H143265   3.322   6.473   1.453
14436TIP3    H243266   3.466   6.448   1.492
14437TIP3   OH243267   1.401   0.384   5.002
14437TIP3    H143268   1.334   0.416   5.062
14437TIP3    H243269   1.440   0.309   5.048
14438TIP3   OH243270   5.506   0.695   5.972
14438TIP3    H143271   5.452   0.685   6.051
14438TIP3    H243272   5.509   0.608   5.934
14439TIP3   OH243273   5.510   7.414   2.460
14439TIP3    H143274   5.442   7.394   2.525
14439TIP3    H243275   5.467   7.400   2.375
14440TIP3   OH243276   2.914   0.667   5.738
14440TIP3    H143277   2.974   0.665   5.812
14440TIP3    H243278   2.970   0.681   5.661
14441TIP3   OH243279   7.466   5.903   4.502
14441TIP3    H143280   7.486   5.847   4.427
14441TIP3    H243281   7.378   5.878   4.527
14442TIP3   OH243282   4.754   6.646   6.294
14442TIP3    H143283   4.842   6.637   6.257
14442TIP3    H243284   4.740   6.566   6.344
14443TIP3   OH243285   6.555   7.661   6.303
14443TIP3    H143286   6.541   7.746   6.346
14443TIP3    H243287   6.614   7.614   6.362
14444TIP3   OH243288   2.236   0.191   1.029
14444TIP3    H143289   2.258   0.273   1.075
14444TIP3    H243290   2.307   0.131   1.051
14445TIP3   OH243291   2.690   1.729   3.502
14445TIP3    H143292   2.612   1.758   3.549
14445TIP3    H243293   2.744   1.687   3.569
14446TIP3   OH243294   2.259   3.476   5.493
14446TIP3    H143295   2.302   3.461   5.577
14446TIP3    H243296   2.263   3.391   5.449
14447TIP3   OH243297   2.102   6.858   5.126
14447TIP3    H143298   2.178   6.831   5.074
14447TIP3    H243299   2.044   6.781   5.126
14448TIP3   OH243300   6.731   0.901   4.348
14448TIP3    H143301   6.664   0.888   4.416
14448TIP3    H243302   6.681   0.924   4.270
14449TIP3   OH243303   1.071   2.467   5.810
14449TIP3    H143304   1.115   2.549   5.786
14449TIP3    H243305   1.138   2.417   5.856
14450TIP3   OH243306   6.077   3.252   0.230
14450TIP3    H143307   6.056   3.187   0.164
14450TIP3    H243308   5.992   3.286   0.258
14451TIP3   OH243309   3.468   1.412   4.434
14451TIP3    H143310   3.445   1.375   4.518
14451TIP3    H243311   3.547   1.364   4.407
14452TIP3   OH243312   1.901   4.992   6.313
14452TIP3    H143313   1.959   5.065   6.290
14452TIP3    H243314   1.891   4.998   6.408
14453TIP3   OH243315   4.171   4.405   4.092
14453TIP3    H143316   4.108   4.338   4.064
14453TIP3    H243317   4.256   4.368   4.069
14454TIP3   OH243318   0.009   3.629   0.492
14454TIP3    H143319   0.046   3.617   0.404
14454TIP3    H243320   0.081   3.608   0.551
14455TIP3   OH243321   3.499   5.900   2.714
14455TIP3    H143322   3.573   5.912   2.774
14455TIP3    H243323   3.466   5.812   2.734
14456TIP3   OH243324   0.022   2.660   0.439
14456TIP3    H143325   0.077   2.599   0.488
14456TIP3    H243326  -0.056   2.609   0.417
14457TIP3   OH243327   4.587   4.208   3.535
14457TIP3    H143328   4.630   4.257   3.465
14457TIP3    H243329   4.629   4.239   3.616
14458TIP3   OH243330   4.533   0.779   4.853
14458TIP3    H143331   4.504   0.715   4.918
14458TIP3    H243332   4.585   0.728   4.791
14459TIP3   OH243333   7.796   5.976   1.396
14459TIP3    H143334   7.871   5.919   1.379
14459TIP3    H243335   7.743   5.971   1.316
14460TIP3   OH243336   8.381   1.523   5.040
14460TIP3    H143337   8.459   1.577   5.026
14460TIP3    H243338   8.335   1.525   4.956
14461TIP3   OH243339   4.671   7.403   2.941
14461TIP3    H143340   4.723   7.477   2.910
14461TIP3    H243341   4.662   7.418   3.035
14462TIP3   OH243342   2.416   3.930   6.424
14462TIP3    H143343   2.327   3.898   6.440
14462TIP3    H243344   2.405   4.012   6.377
14463TIP3   OH243345   4.421   5.890   2.618
14463TIP3    H143346   4.416   5.807   2.571
14463TIP3    H243347   4.336   5.930   2.605
14464TIP3   OH243348   3.439   2.170   6.478
14464TIP3    H143349   3.520   2.201   6.439
14464TIP3    H243350   3.465   2.136   6.564
14465TIP3   OH243351   2.534   6.155   1.061
14465TIP3    H143352   2.501   6.138   1.149
14465TIP3    H243353   2.627   6.173   1.073
14466TIP3   OH243354   2.103   2.129   5.256
14466TIP3    H143355   2.077   2.137   5.164
14466TIP3    H243356   2.102   2.219   5.289
14467TIP3   OH243357   4.546   2.780   0.163
14467TIP3    H143358   4.610   2.830   0.111
14467TIP3    H243359   4.597   2.707   0.199
14468TIP3   OH243360   2.875   0.676   6.768
14468TIP3    H143361   2.938   0.677   6.840
14468TIP3    H243362   2.930   0.671   6.689
14469TIP3   OH243363   1.847   6.548   4.446
14469TIP3    H143364   1.887   6.576   4.363
14469TIP3    H243365   1.890   6.602   4.512
14470TIP3   OH243366   0.852   0.593   1.804
14470TIP3    H143367   0.839   0.673   1.855
14470TIP3    H243368   0.918   0.544   1.853
14471TIP3   OH243369   1.449   6.104   5.311
14471TIP3    H143370   1.396   6.100   5.231
14471TIP3    H243371   1.539   6.097   5.281
14472TIP3   OH243372   5.151   0.678   3.446
14472TIP3    H143373   5.184   0.765   3.420
14472TIP3    H243374   5.119   0.691   3.535
14473TIP3   OH243375   7.074   2.897   1.788
14473TIP3    H143376   7.074   2.924   1.880
14473TIP3    H243377   7.064   2.978   1.739
14474TIP3   OH243378   4.459   6.734   5.013
14474TIP3    H143379   4.444   6.676   5.088
14474TIP3    H243380   4.460   6.822   5.050
14475TIP3   OH243381   3.174   3.864   3.452
14475TIP3    H143382   3.112   3.828   3.516
14475TIP3    H243383   3.201   3.948   3.490
14476TIP3   OH243384   7.789   0.427   4.217
14476TIP3    H143385   7.861   0.484   4.191
14476TIP3    H243386   7.823   0.379   4.293
14477TIP3   OH243387   6.336   2.278   0.856
14477TIP3    H143388   6.396   2.211   0.821
14477TIP3    H243389   6.331   2.258   0.949
14478TIP3   OH243390   3.451   2.039   0.042
14478TIP3    H143391   3.389   2.073  -0.021
14478TIP3    H243392   3.423   1.949   0.057
14479TIP3   OH243393   1.106   3.406   2.704
14479TIP3    H143394   1.071   3.341   2.643
14479TIP3    H243395   1.090   3.490   2.660
14480TIP3   OH243396   0.687   2.385   6.015
14480TIP3    H143397   0.691   2.424   5.928
14480TIP3    H243398   0.595   2.395   6.042
14481TIP3   OH243399   6.672   5.192   5.540
14481TIP3    H143400   6.595   5.146   5.573
14481TIP3    H243401   6.713   5.129   5.480
14482TIP3   OH243402   5.557   1.269   6.126
14482TIP3    H143403   5.462   1.277   6.121
14482TIP3    H243404   5.571   1.187   6.175
14483TIP3   OH243405   0.523   4.209   0.018
14483TIP3    H143406   0.570   4.196  -0.064
14483TIP3    H243407   0.466   4.284   0.002
14484TIP3   OH243408   1.325   0.932   5.674
14484TIP3    H143409   1.331   1.027   5.664
14484TIP3    H243410   1.276   0.920   5.756
14485TIP3   OH243411   0.218   4.093   1.247
14485TIP3    H143412   0.126   4.104   1.273
14485TIP3    H243413   0.214   4.077   1.153
14486TIP3   OH243414   2.476   4.270   0.484
14486TIP3    H143415   2.540   4.301   0.549
14486TIP3    H243416   2.394   4.313   0.510
14487TIP3   OH243417   1.470   4.632   4.269
14487TIP3    H143418   1.563   4.610   4.256
14487TIP3    H243419   1.468   4.679   4.352
14488TIP3   OH243420   1.585   5.970   2.260
14488TIP3    H143421   1.527   5.905   2.219
14488TIP3    H243422   1.654   5.917   2.301
14489TIP3   OH243423   2.977   0.936   4.980
14489TIP3    H143424   3.055   0.950   5.034
14489TIP3    H243425   2.931   1.020   4.980
14490TIP3   OH243426   3.370   2.058   4.676
14490TIP3    H143427   3.275   2.062   4.662
14490TIP3    H243428   3.395   2.149   4.694
14491TIP3   OH243429   6.062   0.083   4.187
14491TIP3    H143430   6.116   0.005   4.177
14491TIP3    H243431   5.972   0.051   4.182
14492TIP3   OH243432   4.617   0.961   0.904
14492TIP3    H143433   4.548   1.008   0.857
14492TIP3    H243434   4.681   1.028   0.928
14493TIP3   OH243435   3.026   2.900   4.055
14493TIP3    H143436   2.934   2.911   4.031
14493TIP3    H243437   3.029   2.816   4.100
14494TIP3   OH243438   7.595   5.542   4.513
14494TIP3    H143439   7.595   5.506   4.602
14494TIP3    H243440   7.550   5.626   4.522
14495TIP3   OH243441   5.685   7.710   1.854
14495TIP3    H143442   5.695   7.796   1.813
14495TIP3    H243443   5.649   7.729   1.941
14496TIP3   OH243444   1.465   5.123   2.251
14496TIP3    H143445   1.387   5.177   2.265
14496TIP3    H243446   1.445   5.041   2.296
14497TIP3   OH243447   2.028   6.993   3.317
14497TIP3    H143448   1.978   6.965   3.393
14497TIP3    H243449   2.119   6.983   3.343
14498TIP3   OH243450   2.076   1.695   2.290
14498TIP3    H143451   2.165   1.659   2.286
14498TIP3    H243452   2.077   1.767   2.228
14499TIP3   OH243453   1.624  -0.065   2.307
14499TIP3    H143454   1.649   0.025   2.328
14499TIP3    H243455   1.529  -0.062   2.296
14500TIP3   OH243456   5.303   3.044   3.844
14500TIP3    H143457   5.221   3.060   3.797
14500TIP3    H243458   5.324   3.127   3.886
14501TIP3   OH243459   6.302   0.366   2.876
14501TIP3    H143460   6.367   0.315   2.925
14501TIP3    H243461   6.334   0.364   2.786
14502TIP3   OH243462   6.699   6.590   3.245
14502TIP3    H143463   6.716   6.584   3.151
14502TIP3    H243464   6.780   6.625   3.282
14503TIP3   OH243465   6.945   3.652   6.426
14503TIP3    H143466   6.893   3.601   6.364
14503TIP3    H243467   6.881   3.687   6.489
14504TIP3   OH243468   6.407   5.920   6.557
14504TIP3    H143469   6.363   5.885   6.479
14504TIP3    H243470   6.435   5.843   6.606
14505TIP3   OH243471   5.211   4.682   4.551
14505TIP3    H143472   5.284   4.743   4.564
14505TIP3    H243473   5.200   4.679   4.456
14506TIP3   OH243474   2.799   4.491  -0.083
14506TIP3    H143475   2.806   4.407  -0.037
14506TIP3    H243476   2.718   4.529  -0.051
14507TIP3   OH243477   1.387   4.463   6.148
14507TIP3    H143478   1.425   4.376   6.160
14507TIP3    H243479   1.407   4.486   6.058
14508TIP3   OH243480   2.714   1.069   4.205
14508TIP3    H143481   2.747   1.131   4.140
14508TIP3    H243482   2.730   1.113   4.289
14509TIP3   OH243483   1.779   1.042   0.494
14509TIP3    H143484   1.783   0.947   0.485
14509TIP3    H243485   1.807   1.059   0.584
14510TIP3   OH243486   5.273   1.317   1.827
14510TIP3    H143487   5.256   1.227   1.856
14510TIP3    H243488   5.350   1.344   1.877
14511TIP3   OH243489   0.831   3.361   4.833
14511TIP3    H143490   0.871   3.347   4.747
14511TIP3    H243491   0.791   3.276   4.855
14512TIP3   OH243492   8.043   4.363   6.316
14512TIP3    H143493   7.987   4.286   6.332
14512TIP3    H243494   7.991   4.418   6.258
14513TIP3   OH243495   3.754   6.557   5.678
14513TIP3    H143496   3.685   6.497   5.708
14513TIP3    H243497   3.743   6.559   5.583
14514TIP3   OH243498   0.071   0.124   0.616
14514TIP3    H143499   0.066   0.217   0.638
14514TIP3    H243500  -0.015   0.089   0.637
14515TIP3   OH243501   4.716   4.812   3.986
14515TIP3    H143502   4.713   4.820   3.891
14515TIP3    H243503   4.632   4.774   4.010
14516TIP3   OH243504   8.033   4.308   4.944
14516TIP3    H143505   8.012   4.250   5.017
14516TIP3    H243506   8.115   4.351   4.970
14517TIP3   OH243507   2.022   5.853   4.468
14517TIP3    H143508   1.974   5.905   4.404
14517TIP3    H243509   2.108   5.840   4.429
14518TIP3   OH243510   0.428   0.417   1.135
14518TIP3    H143511   0.381   0.334   1.125
14518TIP3    H243512   0.474   0.408   1.218
14519TIP3   OH243513   3.198   5.321   1.833
14519TIP3    H143514   3.193   5.241   1.885
14519TIP3    H243515   3.108   5.337   1.804
14520TIP3   OH243516   1.929   7.087   2.749
14520TIP3    H143517   1.900   7.020   2.811
14520TIP3    H243518   2.022   7.101   2.771
14521TIP3   OH243519   7.309   3.451   4.545
14521TIP3    H143520   7.304   3.502   4.464
14521TIP3    H243521   7.231   3.395   4.543
14522TIP3   OH243522   3.347   4.334   5.670
14522TIP3    H143523   3.293   4.257   5.653
14522TIP3    H243524   3.391   4.314   5.753
14523TIP3   OH243525   7.334   7.313   4.402
14523TIP3    H143526   7.316   7.387   4.344
14523TIP3    H243527   7.397   7.259   4.354
14524TIP3   OH243528   5.415   1.780   0.237
14524TIP3    H143529   5.498   1.824   0.253
14524TIP3    H243530   5.403   1.723   0.314
14525TIP3   OH243531   0.748   0.105   0.985
14525TIP3    H143532   0.836   0.143   0.984
14525TIP3    H243533   0.728   0.087   0.893
14526TIP3   OH243534   3.364   4.438   3.630
14526TIP3    H143535   3.319   4.404   3.708
14526TIP3    H243536   3.389   4.527   3.654
14527TIP3   OH243537   3.913   6.279   1.823
14527TIP3    H143538   3.912   6.242   1.911
14527TIP3    H243539   3.897   6.205   1.765
14528TIP3   OH243540   3.282   2.470   6.507
14528TIP3    H143541   3.375   2.488   6.492
14528TIP3    H243542   3.281   2.395   6.566
14529TIP3   OH243543   4.346   6.694   5.492
14529TIP3    H143544   4.382   6.634   5.426
14529TIP3    H243545   4.422   6.736   5.531
14530TIP3   OH243546   6.063   0.555   2.436
14530TIP3    H143547   6.012   0.506   2.500
14530TIP3    H243548   6.091   0.490   2.372
14531TIP3   OH243549   7.895   0.508   6.733
14531TIP3    H143550   7.890   0.420   6.769
14531TIP3    H243551   7.811   0.548   6.755
14532TIP3   OH243552   4.699   4.316   5.771
14532TIP3    H143553   4.720   4.348   5.684
14532TIP3    H243554   4.682   4.223   5.759
14533TIP3   OH243555   0.332   6.081   2.245
14533TIP3    H143556   0.252   6.134   2.243
14533TIP3    H243557   0.402   6.144   2.258
14534TIP3   OH243558   1.890   3.187   1.794
14534TIP3    H143559   1.985   3.178   1.781
14534TIP3    H243560   1.877   3.281   1.807
14535TIP3   OH243561   3.837   3.896   3.405
14535TIP3    H143562   3.802   3.972   3.453
14535TIP3    H243563   3.774   3.882   3.335
14536TIP3   OH243564   5.958   6.324   1.621
14536TIP3    H143565   5.896   6.275   1.568
14536TIP3    H243566   6.028   6.261   1.641
14537TIP3   OH243567   4.634   5.866   2.787
14537TIP3    H143568   4.694   5.822   2.727
14537TIP3    H243569   4.557   5.887   2.734
14538TIP3   OH243570   1.294   2.415   3.844
14538TIP3    H143571   1.342   2.391   3.923
14538TIP3    H243572   1.246   2.495   3.869
14539TIP3   OH243573   2.618   6.264   1.477
14539TIP3    H143574   2.589   6.301   1.560
14539TIP3    H243575   2.687   6.323   1.447
14540TIP3   OH243576   3.696   6.162   2.596
14540TIP3    H143577   3.670   6.251   2.571
14540TIP3    H243578   3.656   6.149   2.682
14541TIP3   OH243579   7.450   0.912   5.976
14541TIP3    H143580   7.530   0.860   5.964
14541TIP3    H243581   7.476   0.981   6.036
14542TIP3   OH243582   5.295   0.006   0.363
14542TIP3    H143583   5.281  -0.079   0.405
14542TIP3    H243584   5.390   0.015   0.359
14543TIP3   OH243585   4.683   2.862   4.997
14543TIP3    H143586   4.606   2.843   5.051
14543TIP3    H243587   4.646   2.902   4.918
14544TIP3   OH243588   4.205   3.247   1.844
14544TIP3    H143589   4.233   3.200   1.923
14544TIP3    H243590   4.203   3.180   1.776
14545TIP3   OH243591   0.912   4.959   0.372
14545TIP3    H143592   0.878   5.048   0.376
14545TIP3    H243593   0.838   4.906   0.341
14546TIP3   OH243594   3.459   5.742   3.467
14546TIP3    H143595   3.416   5.701   3.392
14546TIP3    H243596   3.549   5.710   3.462
14547TIP3   OH243597   4.456   4.990   6.464
14547TIP3    H143598   4.425   5.077   6.437
14547TIP3    H243599   4.533   5.007   6.517
14548TIP3   OH243600   3.448   1.523   5.554
14548TIP3    H143601   3.423   1.576   5.630
14548TIP3    H243602   3.453   1.433   5.589
14549TIP3   OH243603   1.337   4.775   3.608
14549TIP3    H143604   1.366   4.746   3.521
14549TIP3    H243605   1.242   4.779   3.601
14550TIP3   OH243606   6.889   1.846   1.341
14550TIP3    H143607   6.868   1.936   1.368
14550TIP3    H243608   6.940   1.811   1.413
14551TIP3   OH243609   1.322   3.853   3.455
14551TIP3    H143610   1.406   3.897   3.468
14551TIP3    H243611   1.270   3.915   3.403
14552TIP3   OH243612   4.379   7.160   5.591
14552TIP3    H143613   4.308   7.223   5.603
14552TIP3    H243614   4.335   7.077   5.571
14553TIP3   OH243615   5.259   0.376   4.475
14553TIP3    H143616   5.204   0.319   4.421
14553TIP3    H243617   5.272   0.326   4.556
14554TIP3   OH243618   2.308   2.462   6.252
14554TIP3    H143619   2.296   2.429   6.341
14554TIP3    H243620   2.385   2.416   6.220
14555TIP3   OH243621   6.939   1.640   5.399
14555TIP3    H143622   6.999   1.714   5.408
14555TIP3    H243623   6.997   1.564   5.389
14556TIP3   OH243624   8.024   0.598   0.735
14556TIP3    H143625   8.079   0.563   0.805
14556TIP3    H243626   7.934   0.586   0.767
14557TIP3   OH243627   1.940   7.223   6.033
14557TIP3    H143628   1.931   7.128   6.019
14557TIP3    H243629   2.006   7.250   5.970
14558TIP3   OH243630   6.769   5.875   6.161
14558TIP3    H143631   6.822   5.955   6.169
14558TIP3    H243632   6.758   5.844   6.251
14559TIP3   OH243633   2.286   4.390   0.627
14559TIP3    H143634   2.255   4.303   0.651
14559TIP3    H243635   2.207   4.445   0.629
14560TIP3   OH243636   2.739   4.191   6.800
14560TIP3    H143637   2.827   4.173   6.832
14560TIP3    H243638   2.749   4.202   6.706
14561TIP3   OH243639   3.782   7.177   2.343
14561TIP3    H143640   3.859   7.221   2.379
14561TIP3    H243641   3.799   7.083   2.356
14562TIP3   OH243642   5.746   4.830   0.152
14562TIP3    H143643   5.659   4.808   0.186
14562TIP3    H243644   5.739   4.922   0.127
14563TIP3   OH243645   8.033   3.485   6.658
14563TIP3    H143646   8.066   3.524   6.739
14563TIP3    H243647   8.094   3.414   6.638
14564TIP3   OH243648   4.304   4.907   3.264
14564TIP3    H143649   4.282   4.829   3.315
14564TIP3    H243650   4.397   4.898   3.244
14565TIP3   OH243651   5.930   2.196   2.932
14565TIP3    H143652   5.889   2.256   2.995
14565TIP3    H243653   6.007   2.163   2.978
14566TIP3   OH243654   4.449   1.621   2.746
14566TIP3    H143655   4.417   1.550   2.691
14566TIP3    H243656   4.460   1.695   2.686
14567TIP3   OH243657   6.137   5.173   5.908
14567TIP3    H143658   6.170   5.196   5.994
14567TIP3    H243659   6.067   5.109   5.925
14568TIP3   OH243660   1.528   4.097   3.137
14568TIP3    H143661   1.527   4.186   3.172
14568TIP3    H243662   1.595   4.099   3.069
14569TIP3   OH243663   0.354   5.465   6.480
14569TIP3    H143664   0.316   5.389   6.434
14569TIP3    H243665   0.408   5.508   6.414
14570TIP3   OH243666   2.606   0.608   5.926
14570TIP3    H143667   2.682   0.553   5.908
14570TIP3    H243668   2.618   0.685   5.870
14571TIP3   OH243669   0.676   5.209   5.846
14571TIP3    H143670   0.585   5.187   5.865
14571TIP3    H243671   0.716   5.226   5.931
14572TIP3   OH243672   6.982   3.121   1.672
14572TIP3    H143673   6.946   3.188   1.614
14572TIP3    H243674   6.941   3.137   1.757
14573TIP3   OH243675   7.842   7.639   1.200
14573TIP3    H143676   7.921   7.592   1.226
14573TIP3    H243677   7.864   7.677   1.114
14574TIP3   OH243678   6.646   3.964   2.641
14574TIP3    H143679   6.715   3.898   2.654
14574TIP3    H243680   6.572   3.931   2.691
14575TIP3   OH243681   7.986   4.041   2.130
14575TIP3    H143682   7.994   3.998   2.215
14575TIP3    H243683   8.004   3.972   2.066
14576TIP3   OH243684   2.922   4.430   6.200
14576TIP3    H143685   3.007   4.415   6.243
14576TIP3    H243686   2.894   4.343   6.172
14577TIP3   OH243687   1.038   6.114   2.333
14577TIP3    H143688   1.120   6.071   2.358
14577TIP3    H243689   0.971   6.047   2.348
14578TIP3   OH243690   1.564   7.809   3.263
14578TIP3    H143691   1.582   7.715   3.269
14578TIP3    H243692   1.606   7.835   3.181
14579TIP3   OH243693   0.026   6.688   5.507
14579TIP3    H143694  -0.038   6.735   5.560
14579TIP3    H243695   0.058   6.753   5.445
14580TIP3   OH243696   4.065   5.427   0.233
14580TIP3    H143697   4.047   5.483   0.309
14580TIP3    H243698   4.049   5.483   0.157
14581TIP3   OH243699   5.414   7.240   5.002
14581TIP3    H143700   5.398   7.319   5.053
14581TIP3    H243701   5.509   7.228   5.005
14582TIP3   OH243702   8.018   4.614   5.827
14582TIP3    H143703   8.053   4.684   5.880
14582TIP3    H243704   8.062   4.535   5.858
14583TIP3   OH243705   5.921   4.011   3.984
14583TIP3    H143706   5.897   3.993   3.893
14583TIP3    H243707   6.004   4.057   3.978
14584TIP3   OH243708   3.903   3.442   2.776
14584TIP3    H143709   3.884   3.376   2.843
14584TIP3    H243710   3.886   3.526   2.819
14585TIP3   OH243711   1.738   2.307   6.392
14585TIP3    H143712   1.705   2.223   6.359
14585TIP3    H243713   1.783   2.346   6.317
14586TIP3   OH243714   5.714   5.953   2.860
14586TIP3    H143715   5.715   5.862   2.833
14586TIP3    H243716   5.628   5.986   2.834
14587TIP3   OH243717   3.004   2.223   6.526
14587TIP3    H143718   3.060   2.173   6.466
14587TIP3    H243719   3.065   2.274   6.579
14588TIP3   OH243720   2.460   3.242   5.329
14588TIP3    H143721   2.463   3.221   5.236
14588TIP3    H243722   2.531   3.304   5.343
14589TIP3   OH243723   0.909   2.805   6.747
14589TIP3    H143724   0.973   2.787   6.678
14589TIP3    H243725   0.895   2.720   6.789
14590TIP3   OH243726   6.321   3.168   2.825
14590TIP3    H143727   6.239   3.192   2.781
14590TIP3    H243728   6.299   3.090   2.876
14591TIP3   OH243729   0.139   4.202   0.192
14591TIP3    H143730   0.110   4.111   0.185
14591TIP3    H243731   0.193   4.203   0.271
14592TIP3   OH243732   4.992   1.901   0.146
14592TIP3    H143733   4.999   1.965   0.075
14592TIP3    H243734   5.025   1.820   0.109
14593TIP3   OH243735   2.814   1.548   0.964
14593TIP3    H143736   2.856   1.553   0.878
14593TIP3    H243737   2.813   1.638   0.996
14594TIP3   OH243738   6.973   0.451   6.710
14594TIP3    H143739   6.999   0.533   6.752
14594TIP3    H243740   7.040   0.436   6.644
14595TIP3   OH243741   6.481   6.403   1.789
14595TIP3    H143742   6.478   6.391   1.884
14595TIP3    H243743   6.419   6.474   1.771
14596TIP3   OH243744   5.368   6.949   0.539
14596TIP3    H143745   5.272   6.940   0.543
14596TIP3    H243746   5.399   6.908   0.620
14597TIP3   OH243747   2.235   0.410   0.610
14597TIP3    H143748   2.216   0.412   0.704
14597TIP3    H243749   2.176   0.344   0.574
14598TIP3   OH243750   0.075   0.587   2.948
14598TIP3    H143751   0.143   0.653   2.962
14598TIP3    H243752  -0.007   0.637   2.948
14599TIP3   OH243753   2.773   3.560   2.166
14599TIP3    H143754   2.786   3.629   2.231
14599TIP3    H243755   2.813   3.483   2.204
14600TIP3   OH243756   3.772   3.563   3.478
14600TIP3    H143757   3.746   3.636   3.534
14600TIP3    H243758   3.816   3.502   3.536
14601TIP3   OH243759   4.952   1.903   6.704
14601TIP3    H143760   5.000   1.985   6.697
14601TIP3    H243761   4.937   1.892   6.798
14602TIP3   OH243762   1.031   1.230   6.697
14602TIP3    H143763   1.048   1.138   6.715
14602TIP3    H243764   0.942   1.245   6.730
14603TIP3   OH243765   0.092   3.236   3.682
14603TIP3    H143766   0.034   3.170   3.720
14603TIP3    H243767   0.106   3.207   3.592
14604TIP3   OH243768   8.173   2.134   6.580
14604TIP3    H143769   8.084   2.105   6.562
14604TIP3    H243770   8.164   2.213   6.633
14605TIP3   OH243771   2.744   5.900   3.995
14605TIP3    H143772   2.785   5.871   3.914
14605TIP3    H243773   2.805   5.963   4.032
14606TIP3   OH243774   1.516   3.657   2.987
14606TIP3    H143775   1.571   3.698   3.054
14606TIP3    H243776   1.501   3.726   2.923
14607TIP3   OH243777   3.529   4.192   1.651
14607TIP3    H143778   3.489   4.223   1.569
14607TIP3    H243779   3.475   4.118   1.677
14608TIP3   OH243780   7.498   5.817   0.381
14608TIP3    H143781   7.465   5.849   0.465
14608TIP3    H243782   7.426   5.830   0.320
14609TIP3   OH243783   7.058   5.526   4.960
14609TIP3    H143784   7.089   5.598   4.905
14609TIP3    H243785   6.981   5.491   4.915
14610TIP3   OH243786   0.321   1.465   6.400
14610TIP3    H143787   0.378   1.487   6.326
14610TIP3    H243788   0.233   1.461   6.362
14611TIP3   OH243789   4.534   7.466   4.854
14611TIP3    H143790   4.602   7.433   4.794
14611TIP3    H243791   4.524   7.558   4.830
14612TIP3   OH243792   8.230   6.843   5.727
14612TIP3    H143793   8.218   6.927   5.770
14612TIP3    H243794   8.193   6.779   5.787
14613TIP3   OH243795   0.890   5.662   3.712
14613TIP3    H143796   0.865   5.714   3.636
14613TIP3    H243797   0.825   5.683   3.779
14614TIP3   OH243798   8.380   1.406   5.611
14614TIP3    H143799   8.473   1.395   5.593
14614TIP3    H243800   8.337   1.345   5.551
14615TIP3   OH243801   2.538   2.511   3.071
14615TIP3    H143802   2.579   2.453   3.007
14615TIP3    H243803   2.612   2.550   3.119
14616TIP3   OH243804   6.184   1.586   3.889
14616TIP3    H143805   6.256   1.530   3.860
14616TIP3    H243806   6.153   1.545   3.971
14617TIP3   OH243807   5.558   6.310   3.985
14617TIP3    H143808   5.464   6.306   4.001
14617TIP3    H243809   5.583   6.221   3.960
14618TIP3   OH243810   2.456   1.018   0.055
14618TIP3    H143811   2.422   0.992   0.140
14618TIP3    H243812   2.396   1.086   0.025
14619TIP3   OH243813   1.185   5.613   3.637
14619TIP3    H143814   1.186   5.639   3.545
14619TIP3    H243815   1.101   5.646   3.670
14620TIP3   OH243816   3.541   7.597   2.627
14620TIP3    H143817   3.539   7.515   2.676
14620TIP3    H243818   3.632   7.606   2.599
14621TIP3   OH243819   7.518   6.897   5.541
14621TIP3    H143820   7.426   6.871   5.538
14621TIP3    H243821   7.522   6.981   5.495
14622TIP3   OH243822   0.762   0.171   6.061
14622TIP3    H143823   0.852   0.179   6.027
14622TIP3    H243824   0.773   0.151   6.154
14623TIP3   OH243825   6.161   7.051   1.438
14623TIP3    H143826   6.172   7.081   1.528
14623TIP3    H243827   6.234   6.990   1.424
14624TIP3   OH243828   0.561   3.095   5.290
14624TIP3    H143829   0.579   3.004   5.314
14624TIP3    H243830   0.501   3.088   5.216
14625TIP3   OH243831   7.287   3.857   5.310
14625TIP3    H143832   7.286   3.838   5.404
14625TIP3    H243833   7.282   3.953   5.305
14626TIP3   OH243834   4.028   7.408   6.701
14626TIP3    H143835   4.010   7.352   6.777
14626TIP3    H243836   3.944   7.414   6.656
14627TIP3   OH243837   7.813   1.540   1.665
14627TIP3    H143838   7.789   1.516   1.575
14627TIP3    H243839   7.736   1.521   1.717
14628TIP3   OH243840   5.950   4.076   4.715
14628TIP3    H143841   6.004   4.124   4.778
14628TIP3    H243842   6.006   4.067   4.637
14629TIP3   OH243843   7.901   6.643   0.096
14629TIP3    H143844   7.810   6.629   0.069
14629TIP3    H243845   7.910   6.594   0.177
14630TIP3   OH243846   3.978   6.623   1.376
14630TIP3    H143847   3.929   6.545   1.400
14630TIP3    H243848   4.004   6.662   1.459
14631TIP3   OH243849   7.904   4.711   0.237
14631TIP3    H143850   7.983   4.765   0.239
14631TIP3    H243851   7.913   4.658   0.158
14632TIP3   OH243852   5.704   2.745   5.162
14632TIP3    H143853   5.738   2.792   5.238
14632TIP3    H243854   5.611   2.734   5.181
14633TIP3   OH243855   1.499   3.756   1.848
14633TIP3    H143856   1.511   3.761   1.942
14633TIP3    H243857   1.556   3.824   1.812
14634TIP3   OH243858   5.856   3.814   4.719
14634TIP3    H143859   5.919   3.886   4.724
14634TIP3    H243860   5.798   3.828   4.795
14635TIP3   OH243861   1.522   3.057   1.506
14635TIP3    H143862   1.536   3.122   1.437
14635TIP3    H243863   1.610   3.040   1.541
14636TIP3   OH243864   6.306   3.540   0.983
14636TIP3    H143865   6.383   3.564   0.932
14636TIP3    H243866   6.234   3.540   0.919
14637TIP3   OH243867   4.826   6.184   2.953
14637TIP3    H143868   4.798   6.099   2.985
14637TIP3    H243869   4.745   6.230   2.932
14638TIP3   OH243870   1.286   0.856   5.358
14638TIP3    H143871   1.258   0.883   5.446
14638TIP3    H243872   1.272   0.934   5.304
14639TIP3   OH243873   5.327   2.748   0.650
14639TIP3    H143874   5.405   2.759   0.596
14639TIP3    H243875   5.347   2.795   0.731
14640TIP3   OH243876   3.454   5.939   4.074
14640TIP3    H143877   3.504   5.860   4.054
14640TIP3    H243878   3.434   5.977   3.989
14641TIP3   OH243879   7.856   1.788   1.796
14641TIP3    H143880   7.865   1.698   1.763
14641TIP3    H243881   7.794   1.829   1.737
14642TIP3   OH243882   7.215   4.505   5.502
14642TIP3    H143883   7.241   4.595   5.521
14642TIP3    H243884   7.145   4.513   5.437
14643TIP3   OH243885   1.437   0.150   5.173
14643TIP3    H143886   1.504   0.198   5.222
14643TIP3    H243887   1.424   0.070   5.224
14644TIP3   OH243888   0.358   6.638   3.402
14644TIP3    H143889   0.310   6.557   3.418
14644TIP3    H243890   0.351   6.686   3.484
14645TIP3   OH243891   7.829   1.543   3.903
14645TIP3    H143892   7.758   1.600   3.933
14645TIP3    H243893   7.787   1.483   3.842
14646TIP3   OH243894   6.647   7.369   3.882
14646TIP3    H143895   6.604   7.303   3.937
14646TIP3    H243896   6.588   7.380   3.808
14647TIP3   OH243897   3.334   4.350   5.102
14647TIP3    H143898   3.281   4.322   5.027
14647TIP3    H243899   3.280   4.416   5.145
14648TIP3   OH243900   7.401   7.675   2.260
14648TIP3    H143901   7.429   7.698   2.172
14648TIP3    H243902   7.312   7.710   2.267
14649TIP3   OH243903   0.598   1.214   4.980
14649TIP3    H143904   0.655   1.254   4.914
14649TIP3    H243905   0.649   1.219   5.061
14650TIP3   OH243906   7.251   3.361   0.353
14650TIP3    H143907   7.308   3.435   0.333
14650TIP3    H243908   7.307   3.284   0.344
14651TIP3   OH243909   7.622   2.656   3.380
14651TIP3    H143910   7.637   2.642   3.287
14651TIP3    H243911   7.604   2.750   3.387
14652TIP3   OH243912   4.031   3.663   3.997
14652TIP3    H143913   3.998   3.573   4.002
14652TIP3    H243914   4.074   3.678   4.081
14653TIP3   OH243915   5.009   4.024   4.900
14653TIP3    H143916   4.996   4.094   4.963
14653TIP3    H243917   5.014   4.068   4.815
14654TIP3   OH243918   7.202   2.744   5.833
14654TIP3    H143919   7.231   2.835   5.835
14654TIP3    H243920   7.277   2.696   5.795
14655TIP3   OH243921   4.845   3.388   1.561
14655TIP3    H143922   4.874   3.431   1.480
14655TIP3    H243923   4.785   3.452   1.602
14656TIP3   OH243924   8.213   6.217   6.579
14656TIP3    H143925   8.227   6.186   6.669
14656TIP3    H243926   8.259   6.155   6.524
14657TIP3   OH243927   4.262   1.642   2.974
14657TIP3    H143928   4.308   1.595   2.904
14657TIP3    H243929   4.328   1.653   3.043
14658TIP3   OH243930   2.225   4.159   0.763
14658TIP3    H143931   2.132   4.162   0.782
14658TIP3    H243932   2.258   4.084   0.812
14659TIP3   OH243933   1.796   5.966   2.454
14659TIP3    H143934   1.858   6.039   2.446
14659TIP3    H243935   1.739   5.990   2.526
14660TIP3   OH243936   3.373   0.644   4.063
14660TIP3    H143937   3.358   0.697   3.984
14660TIP3    H243938   3.320   0.566   4.049
14661TIP3   OH243939   0.086   3.356   5.629
14661TIP3    H143940   0.157   3.419   5.636
14661TIP3    H243941   0.128   3.276   5.599
14662TIP3   OH243942   8.342   3.513   1.789
14662TIP3    H143943   8.363   3.578   1.857
14662TIP3    H243944   8.328   3.565   1.710
14663TIP3   OH243945   2.640   7.559   2.801
14663TIP3    H143946   2.664   7.616   2.728
14663TIP3    H243947   2.559   7.517   2.773
14664TIP3   OH243948   2.404   3.230   3.739
14664TIP3    H143949   2.460   3.193   3.808
14664TIP3    H243950   2.318   3.192   3.756
14665TIP3   OH243951   5.032   2.319   4.197
14665TIP3    H143952   5.014   2.324   4.103
14665TIP3    H243953   4.964   2.374   4.237
14666TIP3   OH243954   6.034   2.860   4.987
14666TIP3    H143955   5.942   2.888   4.985
14666TIP3    H243956   6.068   2.884   4.901
14667TIP3   OH243957   6.888   2.697   4.229
14667TIP3    H143958   6.841   2.629   4.278
14667TIP3    H243959   6.861   2.685   4.138
14668TIP3   OH243960   4.930   2.667   0.317
14668TIP3    H143961   4.908   2.752   0.279
14668TIP3    H243962   5.006   2.684   0.373
14669TIP3   OH243963   5.899   0.815   6.657
14669TIP3    H143964   5.943   0.858   6.583
14669TIP3    H243965   5.815   0.788   6.621
14670TIP3   OH243966   8.063   0.367   3.594
14670TIP3    H143967   8.010   0.319   3.658
14670TIP3    H243968   8.009   0.443   3.571
14671TIP3   OH243969   1.845   0.532   4.586
14671TIP3    H143970   1.781   0.463   4.572
14671TIP3    H243971   1.909   0.521   4.516
14672TIP3   OH243972   8.016   3.592   2.751
14672TIP3    H143973   7.979   3.565   2.667
14672TIP3    H243974   8.082   3.658   2.729
14673TIP3   OH243975   2.312   3.833   5.030
14673TIP3    H143976   2.340   3.824   5.121
14673TIP3    H243977   2.254   3.909   5.030
14674TIP3   OH243978   1.070   4.575   3.850
14674TIP3    H143979   1.126   4.498   3.861
14674TIP3    H243980   0.983   4.539   3.832
14675TIP3   OH243981   2.631   6.062   2.200
14675TIP3    H143982   2.612   6.020   2.285
14675TIP3    H243983   2.717   6.028   2.176
14676TIP3   OH243984   4.202   5.693   2.052
14676TIP3    H143985   4.214   5.785   2.074
14676TIP3    H243986   4.107   5.681   2.051
14677TIP3   OH243987  -0.071   5.065   2.982
14677TIP3    H143988  -0.048   5.077   2.889
14677TIP3    H243989  -0.166   5.058   2.982
14678TIP3   OH243990   5.229   2.278   4.823
14678TIP3    H143991   5.156   2.259   4.764
14678TIP3    H243992   5.188   2.308   4.904
14679TIP3   OH243993   6.024   1.111   0.098
14679TIP3    H143994   5.978   1.171   0.156
14679TIP3    H243995   5.994   1.133   0.010
14680TIP3   OH243996   3.786   6.928   1.986
14680TIP3    H143997   3.872   6.935   2.028
14680TIP3    H243998   3.806   6.915   1.893
14681TIP3   OH243999   5.207   1.091   4.421
14681TIP3    H144000   5.132   1.083   4.362
14681TIP3    H244001   5.276   1.129   4.366
14682TIP3   OH244002   3.026   5.397   0.591
14682TIP3    H144003   3.027   5.440   0.677
14682TIP3    H244004   3.111   5.354   0.585
14683TIP3   OH244005   7.895   6.695   4.546
14683TIP3    H144006   7.916   6.668   4.635
14683TIP3    H244007   7.941   6.632   4.490
14684TIP3   OH244008   8.191   5.751   3.132
14684TIP3    H144009   8.243   5.793   3.201
14684TIP3    H244010   8.255   5.725   3.066
14685TIP3   OH244011   7.348  -0.068   2.780
14685TIP3    H144012   7.286  -0.009   2.736
14685TIP3    H244013   7.367  -0.136   2.716
14686TIP3   OH244014   3.701   2.819   0.345
14686TIP3    H144015   3.649   2.899   0.347
14686TIP3    H244016   3.754   2.826   0.265
14687TIP3   OH244017   1.790   5.469   5.548
14687TIP3    H144018   1.740   5.532   5.600
14687TIP3    H244019   1.744   5.386   5.558
14688TIP3   OH244020   5.390   4.527   5.823
14688TIP3    H144021   5.478   4.490   5.824
14688TIP3    H244022   5.352   4.495   5.741
14689TIP3   OH244023   1.498   4.954   0.083
14689TIP3    H144024   1.404   4.955   0.063
14689TIP3    H244025   1.537   4.902   0.013
14690TIP3   OH244026   3.785   0.068   6.638
14690TIP3    H144027   3.734   0.006   6.586
14690TIP3    H244028   3.867   0.021   6.657
14691TIP3   OH244029   0.454   6.881   2.361
14691TIP3    H144030   0.457   6.822   2.285
14691TIP3    H244031   0.365   6.870   2.395
14692TIP3   OH244032   7.576   6.618   4.340
14692TIP3    H144033   7.499   6.642   4.289
14692TIP3    H244034   7.633   6.694   4.335
14693TIP3   OH244035   5.995   0.124   3.734
14693TIP3    H144036   5.900   0.131   3.741
14693TIP3    H244037   6.029   0.192   3.792
14694TIP3   OH244038   4.394   1.657   5.876
14694TIP3    H144039   4.397   1.563   5.890
14694TIP3    H244040   4.479   1.688   5.909
14695TIP3   OH244041   6.564   5.438   1.799
14695TIP3    H144042   6.597   5.394   1.878
14695TIP3    H244043   6.519   5.516   1.831
14696TIP3   OH244044   1.870   5.978   2.770
14696TIP3    H144045   1.912   5.939   2.694
14696TIP3    H244046   1.935   5.970   2.840
14697TIP3   OH244047   5.380   4.392   2.937
14697TIP3    H144048   5.445   4.401   2.868
14697TIP3    H244049   5.430   4.398   3.019
14698TIP3   OH244050   3.917   2.144   1.317
14698TIP3    H144051   4.010   2.142   1.341
14698TIP3    H244052   3.910   2.080   1.246
14699TIP3   OH244053   6.384   0.107   1.276
14699TIP3    H144054   6.457   0.132   1.332
14699TIP3    H244055   6.316   0.171   1.294
14700TIP3   OH244056   5.435   0.208   2.526
14700TIP3    H144057   5.393   0.217   2.611
14700TIP3    H244058   5.518   0.163   2.545
14701TIP3   OH244059   5.377   0.929   3.069
14701TIP3    H144060   5.410   0.883   2.992
14701TIP3    H244061   5.451   0.982   3.100
14702TIP3   OH244062   7.802   4.728   3.100
14702TIP3    H144063   7.843   4.718   3.014
14702TIP3    H244064   7.869   4.771   3.153
14703TIP3   OH244065   7.038   6.713   3.652
14703TIP3    H144066   7.088   6.792   3.628
14703TIP3    H244067   7.058   6.699   3.744
14704TIP3   OH244068   2.495   1.783   5.096
14704TIP3    H144069   2.430   1.854   5.096
14704TIP3    H244070   2.490   1.746   5.184
14705TIP3   OH244071   7.757   2.518   5.316
14705TIP3    H144072   7.769   2.601   5.269
14705TIP3    H244073   7.737   2.544   5.406
14706TIP3   OH244074   1.606   7.159   2.821
14706TIP3    H144075   1.612   7.087   2.759
14706TIP3    H244076   1.535   7.214   2.789
14707TIP3   OH244077   6.687   7.606   4.010
14707TIP3    H144078   6.692   7.522   3.963
14707TIP3    H244079   6.776   7.619   4.043
14708TIP3   OH244080   1.700   1.150   1.582
14708TIP3    H144081   1.687   1.244   1.574
14708TIP3    H244082   1.612   1.113   1.582
14709TIP3   OH244083   1.511   4.221   3.622
14709TIP3    H144084   1.588   4.200   3.568
14709TIP3    H244085   1.548   4.241   3.708
14710TIP3   OH244086   5.955   7.620   5.598
14710TIP3    H144087   6.017   7.671   5.545
14710TIP3    H244088   6.004   7.543   5.626
14711TIP3   OH244089   5.576   5.226   2.389
14711TIP3    H144090   5.600   5.264   2.304
14711TIP3    H244091   5.660   5.197   2.426
14712TIP3   OH244092   7.659   1.170   2.055
14712TIP3    H144093   7.664   1.125   1.970
14712TIP3    H244094   7.579   1.137   2.095
14713TIP3   OH244095   3.442   4.416   3.928
14713TIP3    H144096   3.449   4.385   4.018
14713TIP3    H244097   3.356   4.386   3.899
14714TIP3   OH244098   4.634   6.291   4.758
14714TIP3    H144099   4.552   6.339   4.773
14714TIP3    H244100   4.645   6.239   4.838
14715TIP3   OH244101   3.549   4.491   4.969
14715TIP3    H144102   3.509   4.439   5.039
14715TIP3    H244103   3.476   4.533   4.925
14716TIP3   OH244104   2.262   1.471   1.015
14716TIP3    H144105   2.200   1.453   0.945
14716TIP3    H244106   2.337   1.415   0.997
14717TIP3   OH244107   0.169   7.433   6.370
14717TIP3    H144108   0.209   7.390   6.446
14717TIP3    H244109   0.180   7.526   6.387
14718TIP3   OH244110   3.720   6.085   4.815
14718TIP3    H144111   3.680   6.081   4.728
14718TIP3    H244112   3.649   6.114   4.872
14719TIP3   OH244113   0.849   2.677   0.358
14719TIP3    H144114   0.898   2.743   0.309
14719TIP3    H244115   0.916   2.618   0.394
14720TIP3   OH244116   5.582   3.105   4.027
14720TIP3    H144117   5.677   3.116   4.027
14720TIP3    H244118   5.557   3.114   3.935
14721TIP3   OH244119   5.298   0.175   6.037
14721TIP3    H144120   5.253   0.093   6.058
14721TIP3    H244121   5.371   0.179   6.099
14722TIP3   OH244122   6.778   1.752   4.697
14722TIP3    H144123   6.759   1.747   4.604
14722TIP3    H244124   6.777   1.846   4.717
14723TIP3   OH244125   2.980   5.827   5.114
14723TIP3    H144126   2.889   5.857   5.107
14723TIP3    H244127   2.991   5.806   5.207
14724TIP3   OH244128   4.593   2.392   0.404
14724TIP3    H144129   4.632   2.477   0.422
14724TIP3    H244130   4.500   2.404   0.422
14725TIP3   OH244131   4.174   6.419   1.561
14725TIP3    H144132   4.145   6.499   1.517
14725TIP3    H244133   4.184   6.445   1.653
14726TIP3   OH244134   4.737   3.394   0.265
14726TIP3    H144135   4.700   3.460   0.322
14726TIP3    H244136   4.665   3.370   0.206
14727TIP3   OH244137   1.623   5.448   2.519
14727TIP3    H144138   1.683   5.379   2.490
14727TIP3    H244139   1.663   5.529   2.488
14728TIP3   OH244140   0.027   0.293   4.071
14728TIP3    H144141   0.045   0.338   4.154
14728TIP3    H244142   0.106   0.241   4.055
14729TIP3   OH244143   2.817   5.459   5.349
14729TIP3    H144144   2.902   5.418   5.363
14729TIP3    H244145   2.774   5.457   5.435
14730TIP3   OH244146   0.814   2.167   1.278
14730TIP3    H144147   0.727   2.206   1.267
14730TIP3    H244148   0.851   2.165   1.189
14731TIP3   OH244149   3.847   3.840   3.899
14731TIP3    H144150   3.819   3.885   3.978
14731TIP3    H244151   3.916   3.780   3.928
14732TIP3   OH244152   3.969   2.538   2.689
14732TIP3    H144153   3.933   2.513   2.604
14732TIP3    H244154   3.896   2.578   2.736
14733TIP3   OH244155   3.995   7.298   2.082
14733TIP3    H144156   3.948   7.350   2.147
14733TIP3    H244157   4.087   7.322   2.095
14734TIP3   OH244158   7.798   3.000   0.190
14734TIP3    H144159   7.882   3.013   0.146
14734TIP3    H244160   7.764   2.918   0.154
14735TIP3   OH244161   6.423   0.851   6.055
14735TIP3    H144162   6.346   0.890   6.097
14735TIP3    H244163   6.396   0.835   5.965
14736TIP3   OH244164   8.002   3.085   5.008
14736TIP3    H144165   7.919   3.119   4.973
14736TIP3    H244166   8.009   3.124   5.095
14737TIP3   OH244167   7.053   4.565   0.361
14737TIP3    H144168   7.035   4.498   0.426
14737TIP3    H244169   7.104   4.631   0.408
14738TIP3   OH244170   3.072   3.722   5.082
14738TIP3    H144171   3.142   3.782   5.108
14738TIP3    H244172   3.114   3.659   5.023
14739TIP3   OH244173   4.755   6.372   0.733
14739TIP3    H144174   4.674   6.353   0.685
14739TIP3    H244175   4.813   6.300   0.710
14740TIP3   OH244176  -0.047   4.317   0.507
14740TIP3    H144177  -0.074   4.363   0.428
14740TIP3    H244178   0.025   4.369   0.543
14741TIP3   OH244179   0.944   5.396   3.720
14741TIP3    H144180   0.910   5.486   3.721
14741TIP3    H244181   1.037   5.407   3.740
14742TIP3   OH244182   1.137   0.844   1.627
14742TIP3    H144183   1.116   0.937   1.623
14742TIP3    H244184   1.203   0.831   1.559
14743TIP3   OH244185   3.226   2.116   3.162
14743TIP3    H144186   3.192   2.095   3.075
14743TIP3    H244187   3.153   2.097   3.221
14744TIP3   OH244188   4.656   3.716   5.678
14744TIP3    H144189   4.712   3.751   5.747
14744TIP3    H244190   4.637   3.791   5.622
14745TIP3   OH244191   5.928   3.409   6.139
14745TIP3    H144192   5.975   3.326   6.146
14745TIP3    H244193   5.860   3.404   6.205
14746TIP3   OH244194   3.127   4.862   4.556
14746TIP3    H144195   3.115   4.957   4.565
14746TIP3    H244196   3.084   4.825   4.633
14747TIP3   OH244197   2.936   1.674   2.372
14747TIP3    H144198   2.869   1.698   2.437
14747TIP3    H244199   2.891   1.680   2.288
14748TIP3   OH244200   2.947   4.754   3.382
14748TIP3    H144201   3.028   4.780   3.426
14748TIP3    H244202   2.878   4.792   3.436
14749TIP3   OH244203   5.453   2.684   1.393
14749TIP3    H144204   5.530   2.740   1.396
14749TIP3    H244205   5.469   2.626   1.319
14750TIP3   OH244206   1.991   5.475   2.627
14750TIP3    H144207   1.969   5.382   2.622
14750TIP3    H244208   1.912   5.517   2.662
14751TIP3   OH244209   2.291   2.941   1.507
14751TIP3    H144210   2.224   2.892   1.556
14751TIP3    H244211   2.373   2.901   1.535
14752TIP3   OH244212   6.897   7.741   3.825
14752TIP3    H144213   6.974   7.757   3.772
14752TIP3    H244214   6.829   7.797   3.787
14753TIP3   OH244215   2.658   6.762   4.298
14753TIP3    H144216   2.585   6.818   4.272
14753TIP3    H244217   2.630   6.673   4.273
14754TIP3   OH244218   3.696   1.446   5.160
14754TIP3    H144219   3.633   1.486   5.101
14754TIP3    H244220   3.673   1.481   5.246
14755TIP3   OH244221   3.741   7.352   3.272
14755TIP3    H144222   3.671   7.354   3.338
14755TIP3    H244223   3.708   7.407   3.201
14756TIP3   OH244224   6.377   6.920   5.676
14756TIP3    H144225   6.337   6.841   5.640
14756TIP3    H244226   6.430   6.955   5.605
14757TIP3   OH244227   0.944   7.232   0.848
14757TIP3    H144228   0.917   7.291   0.919
14757TIP3    H244229   0.979   7.155   0.893
14758TIP3   OH244230   6.192   5.593   2.585
14758TIP3    H144231   6.150   5.677   2.601
14758TIP3    H244232   6.150   5.560   2.505
14759TIP3   OH244233   4.548   6.051   6.649
14759TIP3    H144234   4.638   6.041   6.681
14759TIP3    H244235   4.546   6.004   6.566
14760TIP3   OH244236   7.948   0.924   3.484
14760TIP3    H144237   7.957   0.959   3.396
14760TIP3    H244238   7.857   0.944   3.508
14761TIP3   OH244239   3.108   4.830   2.452
14761TIP3    H144240   3.087   4.835   2.546
14761TIP3    H244241   3.166   4.905   2.437
14762TIP3   OH244242   8.084   4.503   1.549
14762TIP3    H144243   8.067   4.513   1.455
14762TIP3    H244244   8.167   4.456   1.552
14763TIP3   OH244245   0.849   4.374   2.999
14763TIP3    H144246   0.853   4.459   3.042
14763TIP3    H244247   0.775   4.329   3.040
14764TIP3   OH244248   2.707   2.276   2.521
14764TIP3    H144249   2.771   2.316   2.580
14764TIP3    H244250   2.655   2.350   2.489
14765TIP3   OH244251   4.081   7.541   2.869
14765TIP3    H144252   4.102   7.452   2.898
14765TIP3    H244253   4.160   7.592   2.887
14766TIP3   OH244254   2.743   7.680   4.191
14766TIP3    H144255   2.722   7.666   4.099
14766TIP3    H244256   2.683   7.623   4.239
14767TIP3   OH244257   3.240   4.651   3.061
14767TIP3    H144258   3.276   4.567   3.032
14767TIP3    H244259   3.161   4.629   3.110
14768TIP3   OH244260   4.147   6.474   5.657
14768TIP3    H144261   4.210   6.530   5.611
14768TIP3    H244262   4.098   6.534   5.712
14769TIP3   OH244263   5.087   3.115   3.707
14769TIP3    H144264   5.017   3.125   3.643
14769TIP3    H244265   5.071   3.030   3.747
14770TIP3   OH244266   3.492   5.336   3.942
14770TIP3    H144267   3.429   5.298   4.004
14770TIP3    H244268   3.438   5.361   3.867
14771TIP3   OH244269   3.760   1.761   2.124
14771TIP3    H144270   3.747   1.809   2.206
14771TIP3    H244271   3.680   1.778   2.074
14772TIP3   OH244272   6.939   2.152   0.426
14772TIP3    H144273   6.958   2.109   0.509
14772TIP3    H244274   7.025   2.159   0.383
14773TIP3   OH244275   0.103   6.210   1.638
14773TIP3    H144276   0.080   6.264   1.563
14773TIP3    H244277   0.181   6.252   1.675
14774TIP3   OH244278   6.778   4.836   6.427
14774TIP3    H144279   6.748   4.916   6.471
14774TIP3    H244280   6.698   4.785   6.413
14775TIP3   OH244281   7.642   4.718   0.804
14775TIP3    H144282   7.675   4.669   0.879
14775TIP3    H244283   7.721   4.750   0.760
14776TIP3   OH244284   6.412   6.836   3.892
14776TIP3    H144285   6.357   6.856   3.817
14776TIP3    H244286   6.485   6.897   3.887
14777TIP3   OH244287   0.157   7.727   4.862
14777TIP3    H144288   0.220   7.707   4.932
14777TIP3    H244289   0.077   7.751   4.908
14778TIP3   OH244290   4.754   6.316   3.910
14778TIP3    H144291   4.797   6.230   3.913
14778TIP3    H244292   4.664   6.297   3.883
14779TIP3   OH244293   7.797   3.841   1.254
14779TIP3    H144294   7.836   3.758   1.281
14779TIP3    H244295   7.703   3.829   1.266
14780TIP3   OH244296   4.095   6.538   5.237
14780TIP3    H144297   4.072   6.595   5.164
14780TIP3    H244298   4.126   6.597   5.306
14781TIP3   OH244299   0.360   0.162   1.131
14781TIP3    H144300   0.439   0.110   1.119
14781TIP3    H244301   0.291   0.112   1.087
14782TIP3   OH244302   5.225   0.565   0.329
14782TIP3    H144303   5.316   0.593   0.321
14782TIP3    H244304   5.228   0.469   0.322
14783TIP3   OH244305   2.662   0.655   6.453
14783TIP3    H144306   2.592   0.622   6.396
14783TIP3    H244307   2.711   0.715   6.397
14784TIP3   OH244308   5.732   5.819   6.411
14784TIP3    H144309   5.809   5.809   6.355
14784TIP3    H244310   5.658   5.807   6.352
14785TIP3   OH244311   2.850   7.338   2.790
14785TIP3    H144312   2.788   7.411   2.789
14785TIP3    H244313   2.914   7.360   2.723
14786TIP3   OH244314   1.882   1.393   1.913
14786TIP3    H144315   1.811   1.455   1.895
14786TIP3    H244316   1.962   1.444   1.902
14787TIP3   OH244317   3.275   3.581   2.617
14787TIP3    H144318   3.253   3.653   2.559
14787TIP3    H244319   3.206   3.582   2.684
14788TIP3   OH244320   6.028   4.919   1.838
14788TIP3    H144321   5.999   4.921   1.747
14788TIP3    H244322   6.117   4.954   1.836
14789TIP3   OH244323   0.639   1.358   1.010
14789TIP3    H144324   0.679   1.368   1.096
14789TIP3    H244325   0.610   1.267   1.008
14790TIP3   OH244326   3.109   4.351   4.960
14790TIP3    H144327   3.052   4.277   4.942
14790TIP3    H244328   3.054   4.413   5.008
14791TIP3   OH244329   1.663   1.783   6.716
14791TIP3    H144330   1.744   1.732   6.706
14791TIP3    H244331   1.614   1.766   6.635
14792TIP3   OH244332   1.766   7.169   5.468
14792TIP3    H144333   1.689   7.112   5.462
14792TIP3    H244334   1.840   7.111   5.454
14793TIP3   OH244335   6.666   2.799   1.075
14793TIP3    H144336   6.724   2.856   1.125
14793TIP3    H244337   6.724   2.734   1.036
14794TIP3   OH244338   5.079   6.799   1.671
14794TIP3    H144339   5.019   6.870   1.647
14794TIP3    H244340   5.073   6.737   1.598
14795TIP3   OH244341   1.561   2.386   5.052
14795TIP3    H144342   1.575   2.480   5.063
14795TIP3    H244343   1.488   2.381   4.990
14796TIP3   OH244344   8.166   0.699   2.446
14796TIP3    H144345   8.119   0.625   2.407
14796TIP3    H244346   8.108   0.732   2.514
14797TIP3   OH244347   3.091   3.103   4.256
14797TIP3    H144348   3.050   3.056   4.183
14797TIP3    H244349   3.182   3.113   4.230
14798TIP3   OH244350   2.889   0.689   6.210
14798TIP3    H144351   2.941   0.746   6.266
14798TIP3    H244352   2.870   0.741   6.132
14799TIP3   OH244353   5.401   3.644   3.428
14799TIP3    H144354   5.401   3.569   3.368
14799TIP3    H244355   5.331   3.701   3.395
14800TIP3   OH244356   2.581   5.109   4.049
14800TIP3    H144357   2.554   5.108   4.140
14800TIP3    H244358   2.548   5.193   4.015
14801TIP3   OH244359   5.816   7.138   6.160
14801TIP3    H144360   5.865   7.163   6.239
14801TIP3    H244361   5.823   7.214   6.103
14802TIP3   OH244362   6.983   0.007   0.387
14802TIP3    H144363   6.939   0.056   0.456
14802TIP3    H244364   6.955   0.048   0.305
14803TIP3   OH244365   7.059   2.783   0.783
14803TIP3    H144366   7.004   2.707   0.761
14803TIP3    H244367   7.055   2.839   0.706
14804TIP3   OH244368   7.849   2.253   2.405
14804TIP3    H144369   7.824   2.190   2.338
14804TIP3    H244370   7.847   2.338   2.360
14805TIP3   OH244371   0.334   5.142   0.770
14805TIP3    H144372   0.258   5.083   0.768
14805TIP3    H244373   0.408   5.085   0.788
14806TIP3   OH244374   0.393   7.691   5.623
14806TIP3    H144375   0.417   7.710   5.533
14806TIP3    H244376   0.429   7.764   5.674
14807TIP3   OH244377   0.485   7.646   6.586
14807TIP3    H144378   0.507   7.560   6.622
14807TIP3    H244379   0.526   7.709   6.645
14808TIP3   OH244380   0.146   3.220   0.726
14808TIP3    H144381   0.215   3.192   0.786
14808TIP3    H244382   0.094   3.283   0.776
14809TIP3   OH244383   6.036   1.535   5.365
14809TIP3    H144384   6.013   1.535   5.457
14809TIP3    H244385   5.953   1.522   5.319
14810TIP3   OH244386   6.296   0.969   1.996
14810TIP3    H144387   6.276   0.917   2.073
14810TIP3    H244388   6.342   1.046   2.030
14811TIP3   OH244389   0.521   5.827   3.691
14811TIP3    H144390   0.555   5.741   3.669
14811TIP3    H244391   0.528   5.876   3.609
14812TIP3   OH244392   6.059   2.763   3.069
14812TIP3    H144393   6.069   2.697   3.137
14812TIP3    H244394   5.988   2.819   3.100
14813TIP3   OH244395   2.994   4.519   6.537
14813TIP3    H144396   3.037   4.434   6.546
14813TIP3    H244397   2.933   4.523   6.610
14814TIP3   OH244398   2.142   3.774   1.847
14814TIP3    H144399   2.083   3.764   1.922
14814TIP3    H244400   2.181   3.860   1.859
14815TIP3   OH244401   3.354   1.525   4.767
14815TIP3    H144402   3.283   1.589   4.762
14815TIP3    H244403   3.418   1.564   4.826
14816TIP3   OH244404   7.373   5.053   5.638
14816TIP3    H144405   7.311   5.095   5.698
14816TIP3    H244406   7.455   5.051   5.687
14817TIP3   OH244407   7.489   6.225   2.595
14817TIP3    H144408   7.563   6.281   2.570
14817TIP3    H244409   7.527   6.139   2.611
14818TIP3   OH244410   3.143   6.392   6.031
14818TIP3    H144411   3.056   6.424   6.057
14818TIP3    H244412   3.194   6.394   6.112
14819TIP3   OH244413   4.965   2.164   6.178
14819TIP3    H144414   4.964   2.137   6.270
14819TIP3    H244415   4.914   2.096   6.133
14820TIP3   OH244416   7.805   2.705   4.243
14820TIP3    H144417   7.854   2.768   4.190
14820TIP3    H244418   7.788   2.631   4.184
14821TIP3   OH244419   6.297   4.999   4.398
14821TIP3    H144420   6.379   5.001   4.350
14821TIP3    H244421   6.296   4.912   4.440
14822TIP3   OH244422   6.914   0.048   2.962
14822TIP3    H144423   6.879   0.099   3.035
14822TIP3    H244424   6.851   0.062   2.891
14823TIP3   OH244425   5.211   1.321   6.714
14823TIP3    H144426   5.117   1.336   6.703
14823TIP3    H244427   5.233   1.259   6.644
14824TIP3   OH244428   7.458   2.243   3.477
14824TIP3    H144429   7.370   2.218   3.449
14824TIP3    H244430   7.486   2.171   3.534
14825TIP3   OH244431   6.754   2.119   0.828
14825TIP3    H144432   6.681   2.137   0.769
14825TIP3    H244433   6.714   2.074   0.902
14826TIP3   OH244434   6.428   0.631   5.068
14826TIP3    H144435   6.457   0.540   5.075
14826TIP3    H244436   6.416   0.646   4.974
14827TIP3   OH244437   7.000   3.568   0.347
14827TIP3    H144438   7.025   3.529   0.431
14827TIP3    H244439   6.917   3.526   0.324
14828TIP3   OH244440   0.397   2.666   4.462
14828TIP3    H144441   0.451   2.619   4.398
14828TIP3    H244442   0.448   2.663   4.543
14829TIP3   OH244443   0.153   3.187   5.032
14829TIP3    H144444   0.090   3.200   5.103
14829TIP3    H244445   0.105   3.139   4.965
14830TIP3   OH244446   5.073   7.456   0.695
14830TIP3    H144447   5.117   7.493   0.772
14830TIP3    H244448   4.980   7.470   0.712
14831TIP3   OH244449   3.693   0.479   5.688
14831TIP3    H144450   3.732   0.480   5.601
14831TIP3    H244451   3.733   0.553   5.734
14832TIP3   OH244452   3.572   5.920   6.308
14832TIP3    H144453   3.559   5.862   6.383
14832TIP3    H244454   3.626   5.991   6.342
14833TIP3   OH244455   2.096   5.138   2.198
14833TIP3    H144456   2.020   5.089   2.229
14833TIP3    H244457   2.165   5.119   2.262
14834TIP3   OH244458   2.414   4.209   3.665
14834TIP3    H144459   2.369   4.277   3.716
14834TIP3    H244460   2.488   4.254   3.625
14835TIP3   OH244461   4.493   5.130   1.518
14835TIP3    H144462   4.481   5.061   1.583
14835TIP3    H244463   4.547   5.196   1.562
14836TIP3   OH244464   7.890   2.872   5.305
14836TIP3    H144465   7.846   2.831   5.230
14836TIP3    H244466   7.909   2.800   5.364
14837TIP3   OH244467   5.687   7.266   1.394
14837TIP3    H144468   5.764   7.210   1.391
14837TIP3    H244469   5.680   7.292   1.486
   8.30713   7.83204   6.78275   0.00000   0.00000  -2.76904   0.00000  -2.76904  -3.91602
