Title t= 323.00000 step= 161500
29212
    1ASP      N    1   1.790   2.724   4.808
    1ASP    HT1    2   1.687   2.732   4.791
    1ASP    HT2    3   1.810   2.637   4.860
    1ASP    HT3    4   1.831   2.723   4.712
    1ASP     CA    5   1.841   2.838   4.899
    1ASP     HA    6   1.775   2.921   4.882
    1ASP     CB    7   1.816   2.789   5.048
    1ASP    HB1    8   1.856   2.853   5.129
    1ASP    HB2    9   1.862   2.691   5.077
    1ASP     CG   10   1.663   2.773   5.081
    1ASP    OD1   11   1.583   2.765   4.987
    1ASP    OD2   12   1.633   2.756   5.209
    1ASP      C   13   1.982   2.887   4.884
    1ASP      O   14   2.003   3.008   4.897
    2GLY      N   15   2.077   2.800   4.865
    2GLY     HN   16   2.073   2.702   4.881
    2GLY     CA   17   2.218   2.834   4.838
    2GLY    HA1   18   2.274   2.742   4.839
    2GLY    HA2   19   2.246   2.905   4.914
    2GLY      C   20   2.243   2.905   4.709
    2GLY      O   21   2.155   2.939   4.630
    3ASP      N   22   2.372   2.928   4.682
    3ASP     HN   23   2.438   2.887   4.743
    3ASP     CA   24   2.429   3.002   4.567
    3ASP     HA   25   2.422   3.108   4.586
    3ASP     CB   26   2.587   2.980   4.539
    3ASP    HB1   27   2.615   3.046   4.455
    3ASP    HB2   28   2.604   2.879   4.496
    3ASP     CG   29   2.681   3.007   4.650
    3ASP    OD1   30   2.638   3.015   4.769
    3ASP    OD2   31   2.807   3.010   4.627
    3ASP      C   32   2.366   2.981   4.428
    3ASP      O   33   2.347   2.873   4.370
    4GLY      N   34   2.325   3.097   4.368
    4GLY     HN   35   2.336   3.190   4.401
    4GLY     CA   36   2.245   3.090   4.245
    4GLY    HA1   37   2.210   3.192   4.235
    4GLY    HA2   38   2.170   3.013   4.254
    4GLY      C   39   2.337   3.064   4.128
    4GLY      O   40   2.465   3.057   4.136
    5PRO      N   41   2.267   3.049   4.009
    5PRO     CD   42   2.129   3.008   3.991
    5PRO    HD1   43   2.056   3.090   4.011
    5PRO    HD2   44   2.102   2.923   4.058
    5PRO     CA   45   2.331   3.056   3.878
    5PRO     HA   46   2.385   2.964   3.862
    5PRO     CB   47   2.215   3.067   3.780
    5PRO    HB1   48   2.248   3.039   3.677
    5PRO    HB2   49   2.175   3.170   3.779
    5PRO     CG   50   2.115   2.976   3.844
    5PRO    HG1   51   2.009   2.977   3.812
    5PRO    HG2   52   2.155   2.875   3.820
    5PRO      C   53   2.429   3.167   3.872
    5PRO      O   54   2.405   3.280   3.909
    6GLY      N   55   2.549   3.144   3.810
    6GLY     HN   56   2.582   3.058   3.772
    6GLY     CA   57   2.639   3.250   3.767
    6GLY    HA1   58   2.696   3.185   3.702
    6GLY    HA2   59   2.697   3.275   3.855
    6GLY      C   60   2.592   3.374   3.696
    6GLY      O   61   2.489   3.374   3.629
    7ASP      N   62   2.671   3.480   3.714
    7ASP     HN   63   2.760   3.464   3.756
    7ASP     CA   64   2.642   3.617   3.670
    7ASP     HA   65   2.561   3.648   3.734
    7ASP     CB   66   2.763   3.721   3.699
    7ASP    HB1   67   2.746   3.822   3.656
    7ASP    HB2   68   2.860   3.690   3.655
    7ASP     CG   69   2.800   3.753   3.845
    7ASP    OD1   70   2.916   3.798   3.872
    7ASP    OD2   71   2.716   3.733   3.939
    7ASP      C   72   2.599   3.628   3.526
    7ASP      O   73   2.645   3.548   3.443
    8PRO      N   74   2.519   3.730   3.505
    8PRO     CD   75   2.476   3.825   3.609
    8PRO    HD1   76   2.548   3.855   3.688
    8PRO    HD2   77   2.385   3.779   3.652
    8PRO     CA   78   2.462   3.773   3.373
    8PRO     HA   79   2.411   3.684   3.341
    8PRO     CB   80   2.373   3.905   3.400
    8PRO    HB1   81   2.268   3.873   3.418
    8PRO    HB2   82   2.386   3.983   3.322
    8PRO     CG   83   2.436   3.952   3.527
    8PRO    HG1   84   2.530   4.008   3.508
    8PRO    HG2   85   2.366   4.012   3.589
    8PRO      C   86   2.563   3.787   3.259
    8PRO      O   87   2.675   3.832   3.270
    9GLY      N   88   2.523   3.738   3.139
    9GLY     HN   89   2.427   3.712   3.140
    9GLY     CA   90   2.611   3.738   3.022
    9GLY    HA1   91   2.559   3.693   2.938
    9GLY    HA2   92   2.700   3.681   3.046
    9GLY      C   93   2.661   3.867   2.968
    9GLY      O   94   2.623   3.976   3.010
   10ASP      N   95   2.748   3.858   2.868
   10ASP     HN   96   2.770   3.768   2.831
   10ASP     CA   97   2.773   3.972   2.782
   10ASP     HA   98   2.789   4.061   2.840
   10ASP     CB   99   2.906   3.949   2.705
   10ASP    HB1  100   2.916   4.021   2.621
   10ASP    HB2  101   2.908   3.845   2.664
   10ASP     CG  102   3.025   3.976   2.792
   10ASP    OD1  103   3.010   4.029   2.907
   10ASP    OD2  104   3.141   3.939   2.747
   10ASP      C  105   2.657   4.000   2.696
   10ASP      O  106   2.584   3.912   2.645
   11GLY      N  107   2.633   4.131   2.674
   11GLY     HN  108   2.700   4.196   2.707
   11GLY     CA  109   2.519   4.176   2.597
   11GLY    HA1  110   2.430   4.193   2.656
   11GLY    HA2  111   2.508   4.109   2.514
   11GLY      C  112   2.549   4.314   2.556
   11GLY    OT1  113   2.525   4.414   2.630
   11GLY    OT2  114   2.601   4.326   2.439
   12SOD    SOD  115   5.383   1.361   1.381
   13SOD    SOD  116   0.958   0.095   0.718
   14SOD    SOD  117   0.320   6.571   2.075
   15SOD    SOD  118   0.687   1.151   3.543
   16SOD    SOD  119   3.771   0.929   4.168
   17SOD    SOD  120   2.049   3.571   4.342
   18SOD    SOD  121   6.481   1.076   0.584
   19SOD    SOD  122   5.680   0.127   4.718
   20SOD    SOD  123   5.926   2.108   4.828
   21SOD    SOD  124   6.498   2.387   0.605
   22SOD    SOD  125   6.408   0.360   4.507
   23SOD    SOD  126   3.865   1.076   2.699
   24SOD    SOD  127   1.295   2.054   5.836
   25SOD    SOD  128   1.641   3.571   1.126
   26SOD    SOD  129   3.275   6.133   3.911
   27SOD    SOD  130   3.406   3.726   3.433
   28SOD    SOD  131   5.403   2.775   3.166
   29SOD    SOD  132   0.779   1.576   2.319
   30SOD    SOD  133   1.186   6.495   5.189
   31SOD    SOD  134   0.548   6.450   3.185
   32SOD    SOD  135   2.914   4.095   1.480
   33SOD    SOD  136   0.546   2.774   1.608
   34SOD    SOD  137   5.509   6.487   3.005
   35SOD    SOD  138   3.400   3.685   1.483
   36SOD    SOD  139   6.044   2.342   4.297
   37SOD    SOD  140   3.968   3.667   0.714
   38SOD    SOD  141   1.317   5.069   4.603
   39SOD    SOD  142   0.618   4.194   2.551
   40SOD    SOD  143   4.762   1.363   1.291
   41SOD    SOD  144   0.136   3.259   1.603
   42SOD    SOD  145   5.862   4.338   4.890
   43CLA    CLA  146   2.433   5.607   5.247
   44CLA    CLA  147   6.207   5.046   0.380
   45CLA    CLA  148   3.156   3.956   0.688
   46CLA    CLA  149   5.945   3.500   4.617
   47CLA    CLA  150   0.238   6.810   1.278
   48CLA    CLA  151   3.360   0.250   3.201
   49CLA    CLA  152   1.085   2.949   4.539
   50CLA    CLA  153   5.364   0.184   3.854
   51CLA    CLA  154   5.315   4.347   4.989
   52CLA    CLA  155   1.921   3.318   2.871
   53CLA    CLA  156   0.409   3.572   0.559
   54CLA    CLA  157   3.694   3.014   2.270
   55CLA    CLA  158   1.432   0.767   2.307
   56CLA    CLA  159   0.914   5.856   5.481
   57CLA    CLA  160   2.395   3.981   0.146
   58CLA    CLA  161   3.601   2.222   3.183
   59CLA    CLA  162   0.164   4.176   2.709
   60CLA    CLA  163   3.065   0.648   4.458
   61CLA    CLA  164   5.851   3.133   1.483
   62CLA    CLA  165   6.827   2.634   2.298
   63CLA    CLA  166   0.660   1.636   2.804
   64CLA    CLA  167   3.939   6.055   1.595
   65CLA    CLA  168   4.612   0.577   4.186
   66CLA    CLA  169   7.128   6.393   3.081
   67CLA    CLA  170   0.375   1.201   1.427
   68CLA    CLA  171   5.992   1.212   1.960
   69CLA    CLA  172   5.077   1.569   1.671
   70TIP3   OH2  173   3.871   4.243   5.621
   70TIP3    H1  174   3.895   4.207   5.535
   70TIP3    H2  175   3.820   4.174   5.662
   71TIP3   OH2  176   1.984   6.764   0.388
   71TIP3    H1  177   1.939   6.848   0.377
   71TIP3    H2  178   2.069   6.777   0.346
   72TIP3   OH2  179   1.293   1.127   1.158
   72TIP3    H1  180   1.351   1.198   1.130
   72TIP3    H2  181   1.340   1.047   1.134
   73TIP3   OH2  182   6.505   0.445   3.884
   73TIP3    H1  183   6.454   0.504   3.829
   73TIP3    H2  184   6.596   0.466   3.863
   74TIP3   OH2  185   3.076   5.247   3.353
   74TIP3    H1  186   3.131   5.317   3.318
   74TIP3    H2  187   3.013   5.291   3.409
   75TIP3   OH2  188   0.485   1.888   4.354
   75TIP3    H1  189   0.451   1.933   4.277
   75TIP3    H2  190   0.482   1.795   4.331
   76TIP3   OH2  191   6.632   4.675   1.364
   76TIP3    H1  192   6.658   4.709   1.450
   76TIP3    H2  193   6.641   4.580   1.371
   77TIP3   OH2  194   5.463   2.243   5.323
   77TIP3    H1  195   5.422   2.252   5.237
   77TIP3    H2  196   5.393   2.208   5.379
   78TIP3   OH2  197   6.775   3.790   5.428
   78TIP3    H1  198   6.733   3.860   5.378
   78TIP3    H2  199   6.703   3.747   5.475
   79TIP3   OH2  200   4.319   2.456   5.513
   79TIP3    H1  201   4.338   2.515   5.586
   79TIP3    H2  202   4.290   2.514   5.442
   80TIP3   OH2  203   2.188   1.490   2.121
   80TIP3    H1  204   2.214   1.407   2.162
   80TIP3    H2  205   2.148   1.464   2.038
   81TIP3   OH2  206   6.293   3.774   1.158
   81TIP3    H1  207   6.252   3.844   1.210
   81TIP3    H2  208   6.384   3.775   1.185
   82TIP3   OH2  209   1.137   2.154   4.528
   82TIP3    H1  210   1.202   2.213   4.565
   82TIP3    H2  211   1.053   2.199   4.540
   83TIP3   OH2  212   2.721   5.671   1.528
   83TIP3    H1  213   2.786   5.601   1.540
   83TIP3    H2  214   2.773   5.750   1.520
   84TIP3   OH2  215   1.852   3.304   2.163
   84TIP3    H1  216   1.879   3.222   2.204
   84TIP3    H2  217   1.838   3.364   2.236
   85TIP3   OH2  218   2.058   0.119   4.005
   85TIP3    H1  219   1.983   0.088   3.954
   85TIP3    H2  220   2.046   0.213   4.011
   86TIP3   OH2  221   4.274   5.027   0.108
   86TIP3    H1  222   4.344   5.068   0.057
   86TIP3    H2  223   4.224   4.977   0.044
   87TIP3   OH2  224   5.975   3.940   0.268
   87TIP3    H1  225   6.062   3.912   0.297
   87TIP3    H2  226   5.916   3.874   0.303
   88TIP3   OH2  227   5.727   1.136   0.325
   88TIP3    H1  228   5.721   1.219   0.372
   88TIP3    H2  229   5.637   1.110   0.309
   89TIP3   OH2  230   6.539   5.092   5.400
   89TIP3    H1  231   6.446   5.074   5.416
   89TIP3    H2  232   6.540   5.133   5.314
   90TIP3   OH2  233   4.841   6.725   1.627
   90TIP3    H1  234   4.792   6.681   1.696
   90TIP3    H2  235   4.821   6.818   1.640
   91TIP3   OH2  236   1.103   2.034   2.766
   91TIP3    H1  237   1.018   2.010   2.730
   91TIP3    H2  238   1.130   2.110   2.714
   92TIP3   OH2  239   5.357   5.201   5.567
   92TIP3    H1  240   5.372   5.281   5.618
   92TIP3    H2  241   5.445   5.170   5.545
   93TIP3   OH2  242   6.125   2.337  -0.026
   93TIP3    H1  243   6.217   2.345  -0.001
   93TIP3    H2  244   6.127   2.316  -0.119
   94TIP3   OH2  245   4.483   0.709   2.025
   94TIP3    H1  246   4.553   0.656   1.987
   94TIP3    H2  247   4.498   0.797   1.991
   95TIP3   OH2  248   3.367   2.061   3.937
   95TIP3    H1  249   3.304   2.133   3.928
   95TIP3    H2  250   3.437   2.083   3.876
   96TIP3   OH2  251   1.214   3.974   1.592
   96TIP3    H1  252   1.164   3.958   1.672
   96TIP3    H2  253   1.180   3.911   1.529
   97TIP3   OH2  254   0.961   1.687   0.941
   97TIP3    H1  255   0.876   1.721   0.968
   97TIP3    H2  256   1.009   1.673   1.022
   98TIP3   OH2  257   3.162   4.133   3.272
   98TIP3    H1  258   3.075   4.129   3.232
   98TIP3    H2  259   3.183   4.226   3.276
   99TIP3   OH2  260   2.053   5.670   1.374
   99TIP3    H1  261   2.093   5.593   1.334
   99TIP3    H2  262   2.052   5.736   1.305
  100TIP3   OH2  263   5.872   1.637   5.373
  100TIP3    H1  264   5.953   1.585   5.374
  100TIP3    H2  265   5.847   1.642   5.281
  101TIP3   OH2  266   1.875   0.968   0.054
  101TIP3    H1  267   1.860   1.037  -0.011
  101TIP3    H2  268   1.802   0.907   0.042
  102TIP3   OH2  269   2.419   0.510   0.820
  102TIP3    H1  270   2.375   0.509   0.905
  102TIP3    H2  271   2.351   0.539   0.759
  103TIP3   OH2  272   2.346   5.646   0.563
  103TIP3    H1  273   2.285   5.643   0.490
  103TIP3    H2  274   2.433   5.642   0.522
  104TIP3   OH2  275   6.069   2.315   2.151
  104TIP3    H1  276   6.013   2.247   2.113
  104TIP3    H2  277   6.021   2.396   2.136
  105TIP3   OH2  278   5.391   2.206   1.319
  105TIP3    H1  279   5.406   2.251   1.402
  105TIP3    H2  280   5.421   2.116   1.335
  106TIP3   OH2  281   3.986   5.701   1.871
  106TIP3    H1  282   4.077   5.689   1.845
  106TIP3    H2  283   3.991   5.735   1.961
  107TIP3   OH2  284   1.727   5.464   4.219
  107TIP3    H1  285   1.754   5.382   4.260
  107TIP3    H2  286   1.723   5.527   4.292
  108TIP3   OH2  287   1.301   6.411   4.202
  108TIP3    H1  288   1.369   6.408   4.135
  108TIP3    H2  289   1.240   6.341   4.178
  109TIP3   OH2  290   6.512   2.574   1.349
  109TIP3    H1  291   6.425   2.540   1.368
  109TIP3    H2  292   6.497   2.663   1.317
  110TIP3   OH2  293   0.646   5.482   5.581
  110TIP3    H1  294   0.551   5.494   5.580
  110TIP3    H2  295   0.680   5.561   5.623
  111TIP3   OH2  296   3.529   0.632   3.849
  111TIP3    H1  297   3.527   0.560   3.786
  111TIP3    H2  298   3.585   0.600   3.920
  112TIP3   OH2  299   0.465   1.893   1.789
  112TIP3    H1  300   0.390   1.953   1.789
  112TIP3    H2  301   0.458   1.845   1.871
  113TIP3   OH2  302   1.715   2.043   4.816
  113TIP3    H1  303   1.802   2.081   4.825
  113TIP3    H2  304   1.655   2.108   4.854
  114TIP3   OH2  305   4.424   3.660   3.320
  114TIP3    H1  306   4.405   3.646   3.227
  114TIP3    H2  307   4.517   3.639   3.329
  115TIP3   OH2  308   2.734   0.891   3.244
  115TIP3    H1  309   2.716   0.972   3.292
  115TIP3    H2  310   2.659   0.881   3.185
  116TIP3   OH2  311   6.094   2.207   4.127
  116TIP3    H1  312   6.030   2.203   4.057
  116TIP3    H2  313   6.179   2.201   4.083
  117TIP3   OH2  314   7.004   2.454   5.639
  117TIP3    H1  315   7.033   2.364   5.652
  117TIP3    H2  316   7.049   2.484   5.560
  118TIP3   OH2  317   2.270   5.209   5.132
  118TIP3    H1  318   2.272   5.131   5.187
  118TIP3    H2  319   2.338   5.193   5.066
  119TIP3   OH2  320   3.274   2.205   3.696
  119TIP3    H1  321   3.189   2.163   3.685
  119TIP3    H2  322   3.274   2.276   3.630
  120TIP3   OH2  323   5.123   3.607   0.046
  120TIP3    H1  324   5.128   3.649   0.132
  120TIP3    H2  325   5.195   3.645  -0.004
  121TIP3   OH2  326   3.997   5.201   0.942
  121TIP3    H1  327   4.078   5.218   0.990
  121TIP3    H2  328   3.943   5.150   1.003
  122TIP3   OH2  329   6.329   4.124   1.298
  122TIP3    H1  330   6.393   4.174   1.248
  122TIP3    H2  331   6.377   4.094   1.375
  123TIP3   OH2  332   7.195   5.935   0.471
  123TIP3    H1  333   7.116   5.949   0.523
  123TIP3    H2  334   7.250   5.880   0.527
  124TIP3   OH2  335   3.618   4.002   3.135
  124TIP3    H1  336   3.584   4.004   3.225
  124TIP3    H2  337   3.645   3.911   3.121
  125TIP3   OH2  338   3.985   5.424   5.117
  125TIP3    H1  339   3.939   5.396   5.038
  125TIP3    H2  340   3.940   5.504   5.144
  126TIP3   OH2  341   0.408   3.164   5.002
  126TIP3    H1  342   0.354   3.091   5.034
  126TIP3    H2  343   0.498   3.131   5.008
  127TIP3   OH2  344   2.952   2.075   3.160
  127TIP3    H1  345   3.027   2.018   3.178
  127TIP3    H2  346   2.986   2.145   3.106
  128TIP3   OH2  347   0.358   6.554   3.065
  128TIP3    H1  348   0.301   6.622   3.099
  128TIP3    H2  349   0.304   6.506   3.003
  129TIP3   OH2  350   2.588   4.442   1.226
  129TIP3    H1  351   2.522   4.409   1.164
  129TIP3    H2  352   2.550   4.522   1.261
  130TIP3   OH2  353   0.880   1.288   1.036
  130TIP3    H1  354   0.953   1.302   1.096
  130TIP3    H2  355   0.816   1.239   1.087
  131TIP3   OH2  356   4.752   5.180   4.425
  131TIP3    H1  357   4.684   5.131   4.472
  131TIP3    H2  358   4.756   5.139   4.339
  132TIP3   OH2  359   2.079   1.186   5.868
  132TIP3    H1  360   1.998   1.235   5.852
  132TIP3    H2  361   2.141   1.253   5.896
  133TIP3   OH2  362   6.881   3.459   1.462
  133TIP3    H1  363   6.787   3.446   1.454
  133TIP3    H2  364   6.892   3.554   1.466
  134TIP3   OH2  365   3.896   4.771   3.246
  134TIP3    H1  366   3.852   4.708   3.189
  134TIP3    H2  367   3.845   4.770   3.327
  135TIP3   OH2  368   2.360   4.971   5.253
  135TIP3    H1  369   2.451   4.943   5.245
  135TIP3    H2  370   2.335   4.948   5.343
  136TIP3   OH2  371   0.871   3.286   1.464
  136TIP3    H1  372   0.831   3.236   1.534
  136TIP3    H2  373   0.863   3.377   1.492
  137TIP3   OH2  374   3.067   5.319   2.216
  137TIP3    H1  375   3.121   5.286   2.144
  137TIP3    H2  376   3.068   5.414   2.204
  138TIP3   OH2  377   6.910   3.999   3.846
  138TIP3    H1  378   6.938   3.917   3.806
  138TIP3    H2  379   6.905   4.061   3.773
  139TIP3   OH2  380   5.551   3.920   0.929
  139TIP3    H1  381   5.627   3.888   0.880
  139TIP3    H2  382   5.579   4.005   0.963
  140TIP3   OH2  383   5.434   1.425   2.360
  140TIP3    H1  384   5.414   1.332   2.371
  140TIP3    H2  385   5.349   1.466   2.340
  141TIP3   OH2  386   1.813   2.920   4.280
  141TIP3    H1  387   1.727   2.910   4.320
  141TIP3    H2  388   1.874   2.889   4.346
  142TIP3   OH2  389   6.795   2.489   2.835
  142TIP3    H1  390   6.803   2.508   2.742
  142TIP3    H2  391   6.879   2.450   2.859
  143TIP3   OH2  392   3.233   6.164   2.659
  143TIP3    H1  393   3.241   6.086   2.603
  143TIP3    H2  394   3.295   6.227   2.622
  144TIP3   OH2  395   6.797   5.503   0.659
  144TIP3    H1  396   6.760   5.591   0.666
  144TIP3    H2  397   6.885   5.516   0.624
  145TIP3   OH2  398   5.330   2.952   2.001
  145TIP3    H1  399   5.290   3.037   2.020
  145TIP3    H2  400   5.306   2.934   1.910
  146TIP3   OH2  401   1.782   1.143   1.801
  146TIP3    H1  402   1.695   1.182   1.809
  146TIP3    H2  403   1.766   1.049   1.797
  147TIP3   OH2  404   6.637   6.157   2.181
  147TIP3    H1  405   6.630   6.173   2.087
  147TIP3    H2  406   6.548   6.130   2.207
  148TIP3   OH2  407   2.000   0.556   0.221
  148TIP3    H1  408   2.005   0.524   0.311
  148TIP3    H2  409   2.080   0.525   0.180
  149TIP3   OH2  410   6.118   3.778   3.227
  149TIP3    H1  411   6.049   3.823   3.177
  149TIP3    H2  412   6.071   3.712   3.278
  150TIP3   OH2  413   1.661   4.707   5.804
  150TIP3    H1  414   1.625   4.623   5.775
  150TIP3    H2  415   1.751   4.686   5.831
  151TIP3   OH2  416   2.989   1.424   1.792
  151TIP3    H1  417   3.037   1.343   1.773
  151TIP3    H2  418   2.936   1.404   1.868
  152TIP3   OH2  419   6.706   0.989   0.049
  152TIP3    H1  420   6.749   0.951   0.126
  152TIP3    H2  421   6.760   1.065   0.026
  153TIP3   OH2  422   7.155   3.294   2.840
  153TIP3    H1  423   7.152   3.389   2.847
  153TIP3    H2  424   7.248   3.272   2.836
  154TIP3   OH2  425   0.266   5.742   0.290
  154TIP3    H1  426   0.358   5.765   0.298
  154TIP3    H2  427   0.246   5.752   0.197
  155TIP3   OH2  428   1.404   0.937   1.900
  155TIP3    H1  429   1.427   1.029   1.895
  155TIP3    H2  430   1.346   0.923   1.825
  156TIP3   OH2  431   2.099   4.159   1.405
  156TIP3    H1  432   2.046   4.238   1.392
  156TIP3    H2  433   2.035   4.090   1.424
  157TIP3   OH2  434   0.197   3.376   0.462
  157TIP3    H1  435   0.110   3.416   0.458
  157TIP3    H2  436   0.248   3.434   0.518
  158TIP3   OH2  437   0.357   1.606   0.176
  158TIP3    H1  438   0.393   1.616   0.264
  158TIP3    H2  439   0.262   1.609   0.188
  159TIP3   OH2  440   7.134   4.400   0.785
  159TIP3    H1  441   7.178   4.416   0.702
  159TIP3    H2  442   7.205   4.403   0.850
  160TIP3   OH2  443   2.812   6.722   3.818
  160TIP3    H1  444   2.753   6.750   3.889
  160TIP3    H2  445   2.876   6.792   3.812
  161TIP3   OH2  446   7.223   1.732   4.788
  161TIP3    H1  447   7.173   1.779   4.855
  161TIP3    H2  448   7.220   1.641   4.816
  162TIP3   OH2  449   1.215   5.661   0.561
  162TIP3    H1  450   1.221   5.649   0.656
  162TIP3    H2  451   1.192   5.754   0.551
  163TIP3   OH2  452   4.871   2.434   3.223
  163TIP3    H1  453   4.791   2.482   3.244
  163TIP3    H2  454   4.934   2.501   3.200
  164TIP3   OH2  455   1.188   6.252   2.562
  164TIP3    H1  456   1.253   6.214   2.504
  164TIP3    H2  457   1.135   6.178   2.591
  165TIP3   OH2  458   6.375   0.656   1.009
  165TIP3    H1  459   6.310   0.668   1.078
  165TIP3    H2  460   6.333   0.690   0.930
  166TIP3   OH2  461   5.339   2.626   4.371
  166TIP3    H1  462   5.275   2.667   4.429
  166TIP3    H2  463   5.423   2.643   4.412
  167TIP3   OH2  464   1.624   0.882   2.541
  167TIP3    H1  465   1.568   0.948   2.499
  167TIP3    H2  466   1.600   0.800   2.498
  168TIP3   OH2  467   5.623   4.936   1.245
  168TIP3    H1  468   5.623   4.856   1.298
  168TIP3    H2  469   5.711   4.939   1.207
  169TIP3   OH2  470   7.042   5.402   3.212
  169TIP3    H1  471   7.117   5.407   3.270
  169TIP3    H2  472   7.071   5.347   3.140
  170TIP3   OH2  473   1.963   6.478   4.612
  170TIP3    H1  474   1.943   6.413   4.545
  170TIP3    H2  475   1.931   6.439   4.694
  171TIP3   OH2  476   0.921   5.637   0.116
  171TIP3    H1  477   0.837   5.682   0.108
  171TIP3    H2  478   0.973   5.671   0.043
  172TIP3   OH2  479   5.729   0.249   2.753
  172TIP3    H1  480   5.646   0.269   2.797
  172TIP3    H2  481   5.785   0.214   2.822
  173TIP3   OH2  482   4.565   2.119   5.326
  173TIP3    H1  483   4.656   2.148   5.325
  173TIP3    H2  484   4.558   2.059   5.252
  174TIP3   OH2  485   5.402   3.060   2.443
  174TIP3    H1  486   5.313   3.082   2.418
  174TIP3    H2  487   5.427   2.988   2.385
  175TIP3   OH2  488   5.518   4.586   4.085
  175TIP3    H1  489   5.590   4.526   4.107
  175TIP3    H2  490   5.510   4.642   4.162
  176TIP3   OH2  491   0.871   0.538   2.449
  176TIP3    H1  492   0.835   0.498   2.528
  176TIP3    H2  493   0.868   0.468   2.383
  177TIP3   OH2  494   0.478   1.980   3.084
  177TIP3    H1  495   0.461   2.055   3.027
  177TIP3    H2  496   0.572   1.984   3.102
  178TIP3   OH2  497   6.086   4.022   3.633
  178TIP3    H1  498   5.995   3.995   3.649
  178TIP3    H2  499   6.138   3.967   3.691
  179TIP3   OH2  500   6.535   1.138   0.797
  179TIP3    H1  501   6.506   1.223   0.831
  179TIP3    H2  502   6.507   1.075   0.863
  180TIP3   OH2  503   2.256   1.070   0.501
  180TIP3    H1  504   2.187   1.022   0.455
  180TIP3    H2  505   2.213   1.151   0.529
  181TIP3   OH2  506   4.529   4.386   4.844
  181TIP3    H1  507   4.611   4.374   4.892
  181TIP3    H2  508   4.489   4.464   4.883
  182TIP3   OH2  509   5.513   5.236   2.691
  182TIP3    H1  510   5.510   5.256   2.784
  182TIP3    H2  511   5.596   5.190   2.678
  183TIP3   OH2  512   5.626   1.381   3.254
  183TIP3    H1  513   5.698   1.437   3.225
  183TIP3    H2  514   5.615   1.317   3.184
  184TIP3   OH2  515   2.995   5.026   5.669
  184TIP3    H1  516   2.958   5.083   5.601
  184TIP3    H2  517   2.992   5.078   5.749
  185TIP3   OH2  518   0.084   2.958   4.972
  185TIP3    H1  519   0.111   2.953   4.880
  185TIP3    H2  520   0.072   3.052   4.988
  186TIP3   OH2  521   1.862   0.900   0.822
  186TIP3    H1  522   1.929   0.908   0.890
  186TIP3    H2  523   1.880   0.972   0.762
  187TIP3   OH2  524   4.398   2.006   1.725
  187TIP3    H1  525   4.375   1.935   1.785
  187TIP3    H2  526   4.350   1.986   1.645
  188TIP3   OH2  527   4.058   6.198   3.642
  188TIP3    H1  528   4.058   6.112   3.685
  188TIP3    H2  529   3.986   6.246   3.684
  189TIP3   OH2  530   2.798   1.888   2.185
  189TIP3    H1  531   2.712   1.847   2.180
  189TIP3    H2  532   2.780   1.982   2.195
  190TIP3   OH2  533   0.769   0.390   4.580
  190TIP3    H1  534   0.734   0.303   4.598
  190TIP3    H2  535   0.791   0.426   4.666
  191TIP3   OH2  536   4.933   1.829   5.581
  191TIP3    H1  537   4.845   1.795   5.599
  191TIP3    H2  538   4.953   1.886   5.655
  192TIP3   OH2  539   4.645   0.011   0.302
  192TIP3    H1  540   4.677   0.017   0.212
  192TIP3    H2  541   4.637   0.102   0.330
  193TIP3   OH2  542   1.779   1.471   4.168
  193TIP3    H1  543   1.809   1.519   4.091
  193TIP3    H2  544   1.759   1.540   4.232
  194TIP3   OH2  545   3.246   3.845   3.853
  194TIP3    H1  546   3.308   3.807   3.916
  194TIP3    H2  547   3.176   3.780   3.845
  195TIP3   OH2  548   3.115   5.051   5.314
  195TIP3    H1  549   3.079   5.140   5.311
  195TIP3    H2  550   3.209   5.063   5.327
  196TIP3   OH2  551   5.448   4.955   0.998
  196TIP3    H1  552   5.524   4.962   1.056
  196TIP3    H2  553   5.383   4.907   1.049
  197TIP3   OH2  554   6.659   6.624   1.623
  197TIP3    H1  555   6.688   6.689   1.687
  197TIP3    H2  556   6.681   6.540   1.664
  198TIP3   OH2  557   2.155   4.523   0.848
  198TIP3    H1  558   2.119   4.609   0.869
  198TIP3    H2  559   2.129   4.508   0.757
  199TIP3   OH2  560   2.526   2.195   3.042
  199TIP3    H1  561   2.598   2.255   3.021
  199TIP3    H2  562   2.556   2.148   3.119
  200TIP3   OH2  563   6.396   6.508   1.935
  200TIP3    H1  564   6.318   6.517   1.880
  200TIP3    H2  565   6.377   6.562   2.012
  201TIP3   OH2  566   6.588   1.994   2.583
  201TIP3    H1  567   6.625   1.943   2.655
  201TIP3    H2  568   6.616   2.084   2.599
  202TIP3   OH2  569   3.066   4.771   2.019
  202TIP3    H1  570   3.125   4.712   2.067
  202TIP3    H2  571   3.001   4.797   2.085
  203TIP3   OH2  572   2.110   6.604   3.660
  203TIP3    H1  573   2.157   6.542   3.604
  203TIP3    H2  574   2.026   6.561   3.677
  204TIP3   OH2  575   1.651   3.969   3.190
  204TIP3    H1  576   1.625   4.037   3.128
  204TIP3    H2  577   1.719   3.919   3.145
  205TIP3   OH2  578   0.651   3.881   5.892
  205TIP3    H1  579   0.716   3.946   5.865
  205TIP3    H2  580   0.638   3.896   5.985
  206TIP3   OH2  581   1.177   2.774   4.254
  206TIP3    H1  582   1.091   2.772   4.212
  206TIP3    H2  583   1.161   2.818   4.338
  207TIP3   OH2  584   0.517   2.862   3.471
  207TIP3    H1  585   0.500   2.955   3.456
  207TIP3    H2  586   0.468   2.841   3.550
  208TIP3   OH2  587   2.554   1.781   2.138
  208TIP3    H1  588   2.571   1.695   2.176
  208TIP3    H2  589   2.463   1.778   2.109
  209TIP3   OH2  590   4.479   3.280   0.464
  209TIP3    H1  591   4.409   3.249   0.522
  209TIP3    H2  592   4.558   3.241   0.499
  210TIP3   OH2  593   4.827   1.008   5.033
  210TIP3    H1  594   4.895   0.982   5.095
  210TIP3    H2  595   4.754   1.038   5.087
  211TIP3   OH2  596   6.830   3.793   0.524
  211TIP3    H1  597   6.853   3.701   0.537
  211TIP3    H2  598   6.824   3.803   0.428
  212TIP3   OH2  599   4.860   4.300   3.438
  212TIP3    H1  600   4.925   4.296   3.368
  212TIP3    H2  601   4.875   4.384   3.480
  213TIP3   OH2  602   1.804   5.764   1.476
  213TIP3    H1  603   1.761   5.699   1.532
  213TIP3    H2  604   1.877   5.718   1.435
  214TIP3   OH2  605   4.400   1.722   0.457
  214TIP3    H1  606   4.451   1.796   0.491
  214TIP3    H2  607   4.317   1.761   0.431
  215TIP3   OH2  608   6.659   3.656   2.858
  215TIP3    H1  609   6.744   3.618   2.836
  215TIP3    H2  610   6.600   3.581   2.866
  216TIP3   OH2  611   6.915   1.007   4.363
  216TIP3    H1  612   6.867   1.068   4.306
  216TIP3    H2  613   6.865   0.925   4.357
  217TIP3   OH2  614   0.029   5.868   0.801
  217TIP3    H1  615   0.053   5.841   0.889
  217TIP3    H2  616   0.062   5.798   0.745
  218TIP3   OH2  617   2.427   4.189   5.348
  218TIP3    H1  618   2.341   4.158   5.319
  218TIP3    H2  619   2.437   4.275   5.307
  219TIP3   OH2  620   6.367   2.990   4.836
  219TIP3    H1  621   6.416   2.924   4.786
  219TIP3    H2  622   6.375   3.070   4.784
  220TIP3   OH2  623   0.298   4.939   2.288
  220TIP3    H1  624   0.305   4.848   2.314
  220TIP3    H2  625   0.248   4.981   2.358
  221TIP3   OH2  626   0.886   6.300   0.382
  221TIP3    H1  627   0.845   6.349   0.452
  221TIP3    H2  628   0.850   6.337   0.301
  222TIP3   OH2  629   4.142   0.511   3.741
  222TIP3    H1  630   4.223   0.493   3.789
  222TIP3    H2  631   4.072   0.489   3.802
  223TIP3   OH2  632   4.416   5.425   5.704
  223TIP3    H1  633   4.370   5.385   5.778
  223TIP3    H2  634   4.507   5.398   5.716
  224TIP3   OH2  635   0.337   3.671   2.499
  224TIP3    H1  636   0.242   3.670   2.489
  224TIP3    H2  637   0.361   3.764   2.488
  225TIP3   OH2  638   2.304   0.060   2.179
  225TIP3    H1  639   2.368   0.130   2.195
  225TIP3    H2  640   2.279   0.031   2.267
  226TIP3   OH2  641   2.872   4.709   2.428
  226TIP3    H1  642   2.874   4.628   2.480
  226TIP3    H2  643   2.779   4.726   2.413
  227TIP3   OH2  644   1.815   0.204   5.131
  227TIP3    H1  645   1.862   0.242   5.205
  227TIP3    H2  646   1.881   0.155   5.083
  228TIP3   OH2  647   4.300   5.935   4.767
  228TIP3    H1  648   4.375   5.949   4.825
  228TIP3    H2  649   4.276   6.023   4.738
  229TIP3   OH2  650   3.389   6.178   1.021
  229TIP3    H1  651   3.368   6.163   0.928
  229TIP3    H2  652   3.378   6.272   1.033
  230TIP3   OH2  653   5.201   2.892   3.237
  230TIP3    H1  654   5.110   2.914   3.216
  230TIP3    H2  655   5.220   2.943   3.316
  231TIP3   OH2  656   4.254   2.821   4.626
  231TIP3    H1  657   4.244   2.733   4.663
  231TIP3    H2  658   4.261   2.878   4.703
  232TIP3   OH2  659   6.288   5.593   0.375
  232TIP3    H1  660   6.233   5.532   0.325
  232TIP3    H2  661   6.376   5.554   0.371
  233TIP3   OH2  662   6.960   6.677   3.714
  233TIP3    H1  663   6.933   6.590   3.743
  233TIP3    H2  664   6.912   6.737   3.772
  234TIP3   OH2  665   1.903   0.390   5.716
  234TIP3    H1  666   1.950   0.307   5.718
  234TIP3    H2  667   1.811   0.366   5.710
  235TIP3   OH2  668   4.126   5.024   0.695
  235TIP3    H1  669   4.043   4.980   0.716
  235TIP3    H2  670   4.193   4.956   0.709
  236TIP3   OH2  671   3.158   5.166   3.695
  236TIP3    H1  672   3.068   5.180   3.664
  236TIP3    H2  673   3.166   5.071   3.704
  237TIP3   OH2  674   0.245   2.274   1.592
  237TIP3    H1  675   0.196   2.345   1.633
  237TIP3    H2  676   0.307   2.318   1.534
  238TIP3   OH2  677   2.169   2.060   3.625
  238TIP3    H1  678   2.161   1.980   3.573
  238TIP3    H2  679   2.152   2.032   3.715
  239TIP3   OH2  680   3.398   2.224   0.452
  239TIP3    H1  681   3.350   2.151   0.491
  239TIP3    H2  682   3.374   2.299   0.506
  240TIP3   OH2  683   4.940   5.228   0.101
  240TIP3    H1  684   4.928   5.242   0.195
  240TIP3    H2  685   4.884   5.293   0.059
  241TIP3   OH2  686   3.561   0.349   2.504
  241TIP3    H1  687   3.575   0.397   2.422
  241TIP3    H2  688   3.593   0.260   2.485
  242TIP3   OH2  689   4.860   3.803   2.714
  242TIP3    H1  690   4.910   3.879   2.745
  242TIP3    H2  691   4.795   3.840   2.655
  243TIP3   OH2  692   3.660   5.528   0.750
  243TIP3    H1  693   3.660   5.527   0.846
  243TIP3    H2  694   3.589   5.588   0.727
  244TIP3   OH2  695   1.017   2.814   0.259
  244TIP3    H1  696   1.019   2.909   0.245
  244TIP3    H2  697   0.951   2.802   0.327
  245TIP3   OH2  698   5.057   6.324   3.342
  245TIP3    H1  699   5.115   6.253   3.314
  245TIP3    H2  700   4.975   6.281   3.365
  246TIP3   OH2  701   6.373   4.458   0.212
  246TIP3    H1  702   6.290   4.461   0.261
  246TIP3    H2  703   6.369   4.534   0.154
  247TIP3   OH2  704   0.828   5.541   4.508
  247TIP3    H1  705   0.787   5.568   4.591
  247TIP3    H2  706   0.799   5.607   4.445
  248TIP3   OH2  707   3.831   4.713   0.802
  248TIP3    H1  708   3.753   4.678   0.759
  248TIP3    H2  709   3.858   4.786   0.747
  249TIP3   OH2  710   1.190   4.108   4.637
  249TIP3    H1  711   1.109   4.157   4.626
  249TIP3    H2  712   1.217   4.125   4.727
  250TIP3   OH2  713   4.804   0.273   1.947
  250TIP3    H1  714   4.831   0.199   1.893
  250TIP3    H2  715   4.721   0.246   1.986
  251TIP3   OH2  716   5.362   2.549   5.238
  251TIP3    H1  717   5.407   2.465   5.232
  251TIP3    H2  718   5.342   2.559   5.332
  252TIP3   OH2  719   7.083   3.318   1.588
  252TIP3    H1  720   7.038   3.378   1.529
  252TIP3    H2  721   7.019   3.249   1.606
  253TIP3   OH2  722   1.793   3.880   5.925
  253TIP3    H1  723   1.799   3.911   5.835
  253TIP3    H2  724   1.884   3.861   5.949
  254TIP3   OH2  725   4.012   1.347   2.287
  254TIP3    H1  726   4.031   1.422   2.344
  254TIP3    H2  727   4.090   1.292   2.292
  255TIP3   OH2  728   0.726   1.115   1.231
  255TIP3    H1  729   0.663   1.083   1.166
  255TIP3    H2  730   0.693   1.083   1.314
  256TIP3   OH2  731   3.129   1.898   5.304
  256TIP3    H1  732   3.104   1.856   5.387
  256TIP3    H2  733   3.122   1.829   5.239
  257TIP3   OH2  734   4.711   6.198   0.670
  257TIP3    H1  735   4.621   6.207   0.637
  257TIP3    H2  736   4.764   6.192   0.590
  258TIP3   OH2  737   2.127   5.440   3.940
  258TIP3    H1  738   2.193   5.396   3.993
  258TIP3    H2  739   2.105   5.519   3.989
  259TIP3   OH2  740   3.078   2.032   4.438
  259TIP3    H1  741   3.090   2.113   4.389
  259TIP3    H2  742   3.045   1.969   4.373
  260TIP3   OH2  743   6.544   3.130   5.618
  260TIP3    H1  744   6.545   3.106   5.525
  260TIP3    H2  745   6.460   3.095   5.650
  261TIP3   OH2  746   4.165   4.971   5.593
  261TIP3    H1  747   4.115   4.926   5.661
  261TIP3    H2  748   4.253   4.934   5.600
  262TIP3   OH2  749   0.516   3.059   2.038
  262TIP3    H1  750   0.515   3.079   2.131
  262TIP3    H2  751   0.451   3.117   1.999
  263TIP3   OH2  752   5.675   5.892   4.637
  263TIP3    H1  753   5.628   5.821   4.681
  263TIP3    H2  754   5.713   5.944   4.708
  264TIP3   OH2  755   6.620   6.550   5.813
  264TIP3    H1  756   6.697   6.577   5.764
  264TIP3    H2  757   6.629   6.455   5.821
  265TIP3   OH2  758   3.164   4.958   0.156
  265TIP3    H1  759   3.117   4.889   0.203
  265TIP3    H2  760   3.121   5.039   0.183
  266TIP3   OH2  761   6.583   5.206   0.234
  266TIP3    H1  762   6.621   5.285   0.272
  266TIP3    H2  763   6.610   5.136   0.292
  267TIP3   OH2  764   2.607   4.382   3.049
  267TIP3    H1  765   2.620   4.288   3.041
  267TIP3    H2  766   2.515   4.391   3.073
  268TIP3   OH2  767   5.348  -0.047   4.078
  268TIP3    H1  768   5.344  -0.029   4.172
  268TIP3    H2  769   5.331   0.038   4.037
  269TIP3   OH2  770   2.015   3.587   3.454
  269TIP3    H1  771   2.087   3.543   3.500
  269TIP3    H2  772   2.042   3.679   3.450
  270TIP3   OH2  773   4.774   4.546   3.046
  270TIP3    H1  774   4.825   4.465   3.042
  270TIP3    H2  775   4.684   4.517   3.062
  271TIP3   OH2  776   4.498   2.608   4.171
  271TIP3    H1  777   4.554   2.531   4.165
  271TIP3    H2  778   4.464   2.607   4.261
  272TIP3   OH2  779   2.599   1.855   1.619
  272TIP3    H1  780   2.630   1.908   1.545
  272TIP3    H2  781   2.675   1.804   1.647
  273TIP3   OH2  782   3.751   0.361   0.705
  273TIP3    H1  783   3.801   0.440   0.684
  273TIP3    H2  784   3.666   0.374   0.663
  274TIP3   OH2  785   4.289   4.516   2.748
  274TIP3    H1  786   4.276   4.601   2.789
  274TIP3    H2  787   4.216   4.463   2.780
  275TIP3   OH2  788   5.912   4.424   4.496
  275TIP3    H1  789   5.869   4.338   4.502
  275TIP3    H2  790   5.997   4.406   4.458
  276TIP3   OH2  791   0.921   1.452   0.812
  276TIP3    H1  792   0.904   1.393   0.885
  276TIP3    H2  793   0.959   1.530   0.853
  277TIP3   OH2  794   6.499   6.214   4.646
  277TIP3    H1  795   6.477   6.122   4.634
  277TIP3    H2  796   6.517   6.222   4.740
  278TIP3   OH2  797   2.474   2.874   1.058
  278TIP3    H1  798   2.561   2.844   1.032
  278TIP3    H2  799   2.419   2.858   0.981
  279TIP3   OH2  800   0.157   2.705   3.818
  279TIP3    H1  801   0.237   2.692   3.768
  279TIP3    H2  802   0.142   2.799   3.814
  280TIP3   OH2  803   0.945   3.115   0.756
  280TIP3    H1  804   0.955   3.092   0.663
  280TIP3    H2  805   1.028   3.089   0.796
  281TIP3   OH2  806   3.574   4.908   2.263
  281TIP3    H1  807   3.635   4.981   2.250
  281TIP3    H2  808   3.625   4.831   2.237
  282TIP3   OH2  809   0.330   3.304   3.270
  282TIP3    H1  810   0.391   3.375   3.290
  282TIP3    H2  811   0.264   3.344   3.214
  283TIP3   OH2  812   2.268   0.653   5.252
  283TIP3    H1  813   2.344   0.697   5.291
  283TIP3    H2  814   2.196   0.673   5.312
  284TIP3   OH2  815   4.161   3.271   2.668
  284TIP3    H1  816   4.197   3.277   2.756
  284TIP3    H2  817   4.207   3.339   2.618
  285TIP3   OH2  818   7.129   2.276   3.165
  285TIP3    H1  819   7.186   2.344   3.202
  285TIP3    H2  820   7.119   2.213   3.236
  286TIP3   OH2  821   0.484   2.174   3.826
  286TIP3    H1  822   0.478   2.262   3.863
  286TIP3    H2  823   0.394   2.141   3.826
  287TIP3   OH2  824   3.198   3.685   1.612
  287TIP3    H1  825   3.193   3.600   1.655
  287TIP3    H2  826   3.116   3.729   1.634
  288TIP3   OH2  827   4.562   2.911   1.279
  288TIP3    H1  828   4.652   2.905   1.310
  288TIP3    H2  829   4.555   2.841   1.214
  289TIP3   OH2  830   1.526   5.676   2.760
  289TIP3    H1  831   1.461   5.612   2.732
  289TIP3    H2  832   1.606   5.652   2.714
  290TIP3   OH2  833   4.247   5.478   4.208
  290TIP3    H1  834   4.185   5.490   4.281
  290TIP3    H2  835   4.209   5.529   4.137
  291TIP3   OH2  836   0.447   3.129   4.496
  291TIP3    H1  837   0.448   3.034   4.509
  291TIP3    H2  838   0.371   3.159   4.545
  292TIP3   OH2  839   5.977   5.672   2.841
  292TIP3    H1  840   6.037   5.612   2.886
  292TIP3    H2  841   5.921   5.615   2.789
  293TIP3   OH2  842   0.725   3.213   4.048
  293TIP3    H1  843   0.761   3.300   4.031
  293TIP3    H2  844   0.630   3.226   4.049
  294TIP3   OH2  845   4.157   1.596   4.427
  294TIP3    H1  846   4.104   1.551   4.493
  294TIP3    H2  847   4.107   1.585   4.346
  295TIP3   OH2  848   3.767   4.578   3.086
  295TIP3    H1  849   3.713   4.589   3.008
  295TIP3    H2  850   3.715   4.523   3.144
  296TIP3   OH2  851   3.473   3.135   4.001
  296TIP3    H1  852   3.428   3.216   4.027
  296TIP3    H2  853   3.424   3.065   4.044
  297TIP3   OH2  854   4.241   5.291   0.708
  297TIP3    H1  855   4.162   5.341   0.729
  297TIP3    H2  856   4.210   5.200   0.703
  298TIP3   OH2  857   1.034   3.146   2.524
  298TIP3    H1  858   0.991   3.061   2.534
  298TIP3    H2  859   1.096   3.133   2.452
  299TIP3   OH2  860   6.050   0.090   4.980
  299TIP3    H1  861   6.028   0.167   5.031
  299TIP3    H2  862   6.132   0.113   4.935
  300TIP3   OH2  863   5.089   0.152   5.268
  300TIP3    H1  864   5.080   0.121   5.358
  300TIP3    H2  865   5.061   0.243   5.271
  301TIP3   OH2  866   5.777   6.596   4.351
  301TIP3    H1  867   5.768   6.506   4.383
  301TIP3    H2  868   5.807   6.646   4.427
  302TIP3   OH2  869   4.255   4.092   4.820
  302TIP3    H1  870   4.165   4.062   4.831
  302TIP3    H2  871   4.247   4.181   4.784
  303TIP3   OH2  872   6.078   3.706   2.507
  303TIP3    H1  873   6.065   3.616   2.536
  303TIP3    H2  874   6.036   3.710   2.420
  304TIP3   OH2  875   2.692   3.947   4.458
  304TIP3    H1  876   2.695   3.938   4.553
  304TIP3    H2  877   2.717   4.038   4.441
  305TIP3   OH2  878   5.127   1.682   5.144
  305TIP3    H1  879   5.111   1.598   5.102
  305TIP3    H2  880   5.043   1.727   5.141
  306TIP3   OH2  881   4.663   1.551   5.658
  306TIP3    H1  882   4.749   1.519   5.687
  306TIP3    H2  883   4.680   1.638   5.623
  307TIP3   OH2  884   6.748   6.425   1.383
  307TIP3    H1  885   6.743   6.344   1.332
  307TIP3    H2  886   6.709   6.491   1.327
  308TIP3   OH2  887   6.479   2.440   0.826
  308TIP3    H1  888   6.470   2.386   0.904
  308TIP3    H2  889   6.496   2.528   0.859
  309TIP3   OH2  890   5.065   2.283   3.379
  309TIP3    H1  891   5.107   2.338   3.446
  309TIP3    H2  892   5.006   2.343   3.333
  310TIP3   OH2  893   0.168   4.981   2.018
  310TIP3    H1  894   0.194   5.007   2.107
  310TIP3    H2  895   0.073   4.980   2.021
  311TIP3   OH2  896   0.511   6.544   4.629
  311TIP3    H1  897   0.437   6.497   4.666
  311TIP3    H2  898   0.535   6.607   4.696
  312TIP3   OH2  899   3.100   4.159   5.323
  312TIP3    H1  900   3.085   4.239   5.272
  312TIP3    H2  901   3.028   4.101   5.298
  313TIP3   OH2  902   6.768   1.746   2.393
  313TIP3    H1  903   6.783   1.816   2.328
  313TIP3    H2  904   6.673   1.743   2.402
  314TIP3   OH2  905   2.114   0.268   1.531
  314TIP3    H1  906   2.207   0.259   1.551
  314TIP3    H2  907   2.087   0.181   1.502
  315TIP3   OH2  908   5.713   1.556   3.027
  315TIP3    H1  909   5.636   1.563   2.970
  315TIP3    H2  910   5.784   1.595   2.977
  316TIP3   OH2  911   5.090   1.090   2.465
  316TIP3    H1  912   5.012   1.136   2.433
  316TIP3    H2  913   5.077   1.000   2.437
  317TIP3   OH2  914   1.507   1.464   2.891
  317TIP3    H1  915   1.522   1.461   2.985
  317TIP3    H2  916   1.507   1.557   2.869
  318TIP3   OH2  917   4.584   3.826   2.927
  318TIP3    H1  918   4.515   3.880   2.888
  318TIP3    H2  919   4.644   3.890   2.966
  319TIP3   OH2  920   3.216   3.858   2.099
  319TIP3    H1  921   3.150   3.883   2.034
  319TIP3    H2  922   3.172   3.872   2.183
  320TIP3   OH2  923   2.949   0.256   3.375
  320TIP3    H1  924   2.898   0.175   3.373
  320TIP3    H2  925   2.918   0.302   3.453
  321TIP3   OH2  926   2.842   1.393   2.296
  321TIP3    H1  927   2.923   1.432   2.264
  321TIP3    H2  928   2.850   1.394   2.391
  322TIP3   OH2  929   3.737   1.839   4.791
  322TIP3    H1  930   3.678   1.842   4.866
  322TIP3    H2  931   3.690   1.787   4.725
  323TIP3   OH2  932   3.925   4.122   5.360
  323TIP3    H1  933   3.831   4.141   5.354
  323TIP3    H2  934   3.957   4.128   5.270
  324TIP3   OH2  935   5.448   0.659   4.075
  324TIP3    H1  936   5.467   0.751   4.093
  324TIP3    H2  937   5.353   0.656   4.064
  325TIP3   OH2  938   1.218   0.511   1.305
  325TIP3    H1  939   1.198   0.432   1.256
  325TIP3    H2  940   1.215   0.581   1.241
  326TIP3   OH2  941   0.696   6.581   4.378
  326TIP3    H1  942   0.650   6.628   4.308
  326TIP3    H2  943   0.633   6.578   4.450
  327TIP3   OH2  944   4.707   4.754   4.484
  327TIP3    H1  945   4.800   4.744   4.465
  327TIP3    H2  946   4.662   4.720   4.406
  328TIP3   OH2  947   3.228   6.325   5.416
  328TIP3    H1  948   3.319   6.356   5.418
  328TIP3    H2  949   3.192   6.352   5.501
  329TIP3   OH2  950   0.311   6.766   0.634
  329TIP3    H1  951   0.314   6.812   0.718
  329TIP3    H2  952   0.218   6.764   0.612
  330TIP3   OH2  953   4.613   5.905   1.768
  330TIP3    H1  954   4.572   5.829   1.728
  330TIP3    H2  955   4.579   5.979   1.719
  331TIP3   OH2  956   1.757   4.115   0.712
  331TIP3    H1  957   1.666   4.144   0.724
  331TIP3    H2  958   1.809   4.174   0.766
  332TIP3   OH2  959   4.616   2.183   3.310
  332TIP3    H1  960   4.554   2.216   3.245
  332TIP3    H2  961   4.656   2.261   3.348
  333TIP3   OH2  962   0.390   6.724   5.405
  333TIP3    H1  963   0.420   6.781   5.334
  333TIP3    H2  964   0.462   6.724   5.468
  334TIP3   OH2  965   0.768   2.714   2.747
  334TIP3    H1  966   0.828   2.657   2.699
  334TIP3    H2  967   0.696   2.730   2.685
  335TIP3   OH2  968   1.853   3.980   4.771
  335TIP3    H1  969   1.839   3.889   4.800
  335TIP3    H2  970   1.897   4.022   4.845
  336TIP3   OH2  971   7.142   2.063   2.818
  336TIP3    H1  972   7.201   2.131   2.785
  336TIP3    H2  973   7.124   2.089   2.908
  337TIP3   OH2  974   2.728   0.623   3.730
  337TIP3    H1  975   2.747   0.566   3.657
  337TIP3    H2  976   2.730   0.712   3.693
  338TIP3   OH2  977   0.224   6.398   5.043
  338TIP3    H1  978   0.148   6.375   4.988
  338TIP3    H2  979   0.186   6.419   5.128
  339TIP3   OH2  980   1.365   1.684   4.523
  339TIP3    H1  981   1.443   1.669   4.576
  339TIP3    H2  982   1.323   1.760   4.564
  340TIP3   OH2  983   2.144   4.525   4.044
  340TIP3    H1  984   2.142   4.609   4.090
  340TIP3    H2  985   2.214   4.536   3.979
  341TIP3   OH2  986   3.587   3.645   3.019
  341TIP3    H1  987   3.572   3.557   3.055
  341TIP3    H2  988   3.663   3.677   3.068
  342TIP3   OH2  989   1.017   4.732   0.222
  342TIP3    H1  990   1.073   4.773   0.156
  342TIP3    H2  991   1.057   4.647   0.238
  343TIP3   OH2  992   0.007   4.992   4.604
  343TIP3    H1  993   0.052   4.943   4.535
  343TIP3    H2  994  -0.082   5.003   4.572
  344TIP3   OH2  995   0.976   5.221   2.848
  344TIP3    H1  996   0.956   5.260   2.763
  344TIP3    H2  997   1.063   5.183   2.837
  345TIP3   OH2  998   4.385   5.075   3.494
  345TIP3    H1  999   4.450   5.015   3.457
  345TIP3    H2 1000   4.377   5.145   3.428
  346TIP3   OH2 1001   3.742   3.657   2.797
  346TIP3    H1 1002   3.702   3.664   2.711
  346TIP3    H2 1003   3.669   3.669   2.859
  347TIP3   OH2 1004   5.177   4.699   3.775
  347TIP3    H1 1005   5.255   4.659   3.814
  347TIP3    H2 1006   5.165   4.652   3.692
  348TIP3   OH2 1007   2.713   6.113   5.632
  348TIP3    H1 1008   2.805   6.096   5.611
  348TIP3    H2 1009   2.702   6.207   5.618
  349TIP3   OH2 1010   4.280   1.962   3.520
  349TIP3    H1 1011   4.206   2.022   3.518
  349TIP3    H2 1012   4.269   1.912   3.601
  350TIP3   OH2 1013   0.925   6.046   5.952
  350TIP3    H1 1014   0.957   6.012   5.868
  350TIP3    H2 1015   0.928   5.971   6.011
  351TIP3   OH2 1016   5.656   6.220   2.202
  351TIP3    H1 1017   5.693   6.153   2.260
  351TIP3    H2 1018   5.652   6.178   2.116
  352TIP3   OH2 1019   4.213   1.351   1.374
  352TIP3    H1 1020   4.278   1.344   1.304
  352TIP3    H2 1021   4.222   1.270   1.423
  353TIP3   OH2 1022   0.569   2.030   0.484
  353TIP3    H1 1023   0.624   2.101   0.516
  353TIP3    H2 1024   0.490   2.036   0.538
  354TIP3   OH2 1025   7.117   3.889   0.513
  354TIP3    H1 1026   7.031   3.848   0.511
  354TIP3    H2 1027   7.176   3.822   0.478
  355TIP3   OH2 1028   4.697   1.504   3.968
  355TIP3    H1 1029   4.606   1.503   3.937
  355TIP3    H2 1030   4.707   1.421   4.015
  356TIP3   OH2 1031   4.832   0.631   4.536
  356TIP3    H1 1032   4.827   0.555   4.479
  356TIP3    H2 1033   4.815   0.705   4.478
  357TIP3   OH2 1034   3.792   0.096   5.263
  357TIP3    H1 1035   3.880   0.129   5.280
  357TIP3    H2 1036   3.780   0.107   5.169
  358TIP3   OH2 1037   2.406   1.488   3.376
  358TIP3    H1 1038   2.428   1.403   3.414
  358TIP3    H2 1039   2.460   1.494   3.297
  359TIP3   OH2 1040   2.382   5.250   3.587
  359TIP3    H1 1041   2.435   5.187   3.538
  359TIP3    H2 1042   2.446   5.314   3.620
  360TIP3   OH2 1043   1.623   5.987   3.679
  360TIP3    H1 1044   1.620   6.013   3.771
  360TIP3    H2 1045   1.549   6.032   3.638
  361TIP3   OH2 1046   6.847   5.804   2.811
  361TIP3    H1 1047   6.820   5.729   2.864
  361TIP3    H2 1048   6.831   5.777   2.721
  362TIP3   OH2 1049   6.034   2.467   0.200
  362TIP3    H1 1050   5.947   2.441   0.171
  362TIP3    H2 1051   6.094   2.434   0.132
  363TIP3   OH2 1052   6.290   2.859   3.202
  363TIP3    H1 1053   6.300   2.859   3.298
  363TIP3    H2 1054   6.373   2.823   3.170
  364TIP3   OH2 1055   6.915   4.694   1.440
  364TIP3    H1 1056   6.836   4.660   1.399
  364TIP3    H2 1057   6.906   4.671   1.532
  365TIP3   OH2 1058   6.705   3.809   4.166
  365TIP3    H1 1059   6.682   3.855   4.085
  365TIP3    H2 1060   6.796   3.833   4.181
  366TIP3   OH2 1061   5.145   2.506   2.941
  366TIP3    H1 1062   5.088   2.453   2.997
  366TIP3    H2 1063   5.108   2.497   2.854
  367TIP3   OH2 1064   4.982   4.989   0.767
  367TIP3    H1 1065   4.988   4.893   0.765
  367TIP3    H2 1066   5.072   5.019   0.776
  368TIP3   OH2 1067   1.576   2.118   2.109
  368TIP3    H1 1068   1.562   2.205   2.070
  368TIP3    H2 1069   1.546   2.057   2.042
  369TIP3   OH2 1070   5.558   4.566   0.591
  369TIP3    H1 1071   5.573   4.501   0.523
  369TIP3    H2 1072   5.584   4.649   0.552
  370TIP3   OH2 1073   1.623   5.685   0.151
  370TIP3    H1 1074   1.688   5.681   0.081
  370TIP3    H2 1075   1.669   5.650   0.228
  371TIP3   OH2 1076   7.006   6.309   1.413
  371TIP3    H1 1077   6.919   6.346   1.425
  371TIP3    H2 1078   7.008   6.233   1.473
  372TIP3   OH2 1079   5.310   6.373   0.527
  372TIP3    H1 1080   5.263   6.361   0.445
  372TIP3    H2 1081   5.345   6.287   0.548
  373TIP3   OH2 1082   3.760   3.630   5.808
  373TIP3    H1 1083   3.801   3.606   5.725
  373TIP3    H2 1084   3.687   3.570   5.817
  374TIP3   OH2 1085   0.482   6.595   1.336
  374TIP3    H1 1086   0.419   6.538   1.380
  374TIP3    H2 1087   0.431   6.672   1.310
  375TIP3   OH2 1088   1.571   3.680   3.928
  375TIP3    H1 1089   1.665   3.665   3.933
  375TIP3    H2 1090   1.533   3.612   3.984
  376TIP3   OH2 1091   4.076   5.292   4.882
  376TIP3    H1 1092   4.047   5.286   4.791
  376TIP3    H2 1093   4.172   5.297   4.876
  377TIP3   OH2 1094   2.564   1.168   4.021
  377TIP3    H1 1095   2.526   1.148   4.106
  377TIP3    H2 1096   2.617   1.092   3.999
  378TIP3   OH2 1097   5.747   6.358   4.489
  378TIP3    H1 1098   5.814   6.339   4.555
  378TIP3    H2 1099   5.700   6.275   4.479
  379TIP3   OH2 1100   5.869   3.216   0.111
  379TIP3    H1 1101   5.919   3.197   0.032
  379TIP3    H2 1102   5.924   3.185   0.183
  380TIP3   OH2 1103   4.243   1.320   0.336
  380TIP3    H1 1104   4.309   1.304   0.269
  380TIP3    H2 1105   4.240   1.238   0.386
  381TIP3   OH2 1106   6.981   2.667   1.460
  381TIP3    H1 1107   6.915   2.679   1.392
  381TIP3    H2 1108   7.005   2.756   1.486
  382TIP3   OH2 1109   0.806   1.859   4.210
  382TIP3    H1 1110   0.862   1.826   4.140
  382TIP3    H2 1111   0.769   1.780   4.249
  383TIP3   OH2 1112   5.026   0.949   1.728
  383TIP3    H1 1113   5.082   0.915   1.659
  383TIP3    H2 1114   4.991   1.031   1.692
  384TIP3   OH2 1115   3.811   5.972   4.568
  384TIP3    H1 1116   3.854   6.006   4.646
  384TIP3    H2 1117   3.827   6.039   4.501
  385TIP3   OH2 1118   3.546   1.411   5.758
  385TIP3    H1 1119   3.529   1.454   5.674
  385TIP3    H2 1120   3.493   1.460   5.821
  386TIP3   OH2 1121   1.946   4.122   4.979
  386TIP3    H1 1122   1.912   4.212   4.975
  386TIP3    H2 1123   1.978   4.112   5.068
  387TIP3   OH2 1124   5.271   0.470   3.347
  387TIP3    H1 1125   5.297   0.552   3.305
  387TIP3    H2 1126   5.177   0.464   3.331
  388TIP3   OH2 1127   3.240   1.394   2.659
  388TIP3    H1 1128   3.186   1.336   2.712
  388TIP3    H2 1129   3.190   1.475   2.652
  389TIP3   OH2 1130   1.614   1.874   3.883
  389TIP3    H1 1131   1.559   1.799   3.906
  389TIP3    H2 1132   1.553   1.945   3.864
  390TIP3   OH2 1133   0.628   5.864   4.954
  390TIP3    H1 1134   0.645   5.958   4.950
  390TIP3    H2 1135   0.634   5.842   5.047
  391TIP3   OH2 1136   6.929   2.185   0.756
  391TIP3    H1 1137   7.024   2.194   0.755
  391TIP3    H2 1138   6.908   2.138   0.676
  392TIP3   OH2 1139   4.406   4.684   0.536
  392TIP3    H1 1140   4.424   4.721   0.449
  392TIP3    H2 1141   4.468   4.612   0.544
  393TIP3   OH2 1142   6.676   5.309   1.819
  393TIP3    H1 1143   6.757   5.339   1.858
  393TIP3    H2 1144   6.656   5.226   1.863
  394TIP3   OH2 1145   1.720   3.040   3.742
  394TIP3    H1 1146   1.745   3.133   3.740
  394TIP3    H2 1147   1.732   3.015   3.834
  395TIP3   OH2 1148   0.631   4.556   0.726
  395TIP3    H1 1149   0.623   4.612   0.649
  395TIP3    H2 1150   0.557   4.496   0.720
  396TIP3   OH2 1151   2.129   0.445   3.253
  396TIP3    H1 1152   2.222   0.446   3.274
  396TIP3    H2 1153   2.091   0.381   3.313
  397TIP3   OH2 1154   6.236   2.529   1.362
  397TIP3    H1 1155   6.142   2.545   1.363
  397TIP3    H2 1156   6.247   2.452   1.306
  398TIP3   OH2 1157   3.940   1.896   5.469
  398TIP3    H1 1158   3.963   1.977   5.424
  398TIP3    H2 1159   3.909   1.925   5.555
  399TIP3   OH2 1160   3.122   6.089   5.044
  399TIP3    H1 1161   3.058   6.122   5.107
  399TIP3    H2 1162   3.203   6.136   5.064
  400TIP3   OH2 1163   1.192   3.221   4.655
  400TIP3    H1 1164   1.159   3.134   4.633
  400TIP3    H2 1165   1.123   3.281   4.629
  401TIP3   OH2 1166   0.632   3.340   5.196
  401TIP3    H1 1167   0.555   3.391   5.218
  401TIP3    H2 1168   0.705   3.400   5.211
  402TIP3   OH2 1169   4.932   0.474   3.856
  402TIP3    H1 1170   4.923   0.380   3.871
  402TIP3    H2 1171   5.012   0.483   3.804
  403TIP3   OH2 1172   6.673   4.297   4.839
  403TIP3    H1 1173   6.591   4.343   4.819
  403TIP3    H2 1174   6.736   4.367   4.856
  404TIP3   OH2 1175   6.313   3.765   2.738
  404TIP3    H1 1176   6.296   3.753   2.832
  404TIP3    H2 1177   6.257   3.839   2.714
  405TIP3   OH2 1178   1.471   1.684   0.762
  405TIP3    H1 1179   1.503   1.615   0.819
  405TIP3    H2 1180   1.423   1.638   0.693
  406TIP3   OH2 1181   2.452   1.340   3.008
  406TIP3    H1 1182   2.395   1.289   3.067
  406TIP3    H2 1183   2.453   1.428   3.046
  407TIP3   OH2 1184   6.393   5.051   1.591
  407TIP3    H1 1185   6.464   5.063   1.528
  407TIP3    H2 1186   6.333   4.989   1.549
  408TIP3   OH2 1187   3.385   4.408   1.591
  408TIP3    H1 1188   3.350   4.338   1.646
  408TIP3    H2 1189   3.441   4.459   1.650
  409TIP3   OH2 1190   1.312   0.943   0.822
  409TIP3    H1 1191   1.242   0.878   0.833
  409TIP3    H2 1192   1.393   0.894   0.839
  410TIP3   OH2 1193   2.909   5.031   1.980
  410TIP3    H1 1194   2.959   4.961   2.023
  410TIP3    H2 1195   2.839   5.053   2.042
  411TIP3   OH2 1196   1.651   2.345   5.587
  411TIP3    H1 1197   1.613   2.385   5.509
  411TIP3    H2 1198   1.739   2.318   5.559
  412TIP3   OH2 1199   6.400   0.059   5.032
  412TIP3    H1 1200   6.379   0.057   4.939
  412TIP3    H2 1201   6.385   0.150   5.058
  413TIP3   OH2 1202   1.467   2.920   5.774
  413TIP3    H1 1203   1.439   2.905   5.684
  413TIP3    H2 1204   1.463   2.834   5.815
  414TIP3   OH2 1205   5.338   4.493   0.785
  414TIP3    H1 1206   5.421   4.511   0.739
  414TIP3    H2 1207   5.352   4.409   0.827
  415TIP3   OH2 1208   1.656   4.133   2.955
  415TIP3    H1 1209   1.578   4.187   2.968
  415TIP3    H2 1210   1.723   4.174   3.009
  416TIP3   OH2 1211   2.282   4.754   1.479
  416TIP3    H1 1212   2.236   4.838   1.481
  416TIP3    H2 1213   2.212   4.688   1.491
  417TIP3   OH2 1214   0.072   2.454   2.622
  417TIP3    H1 1215   0.066   2.521   2.554
  417TIP3    H2 1216  -0.002   2.472   2.680
  418TIP3   OH2 1217   1.943   5.024   1.051
  418TIP3    H1 1218   1.849   5.016   1.039
  418TIP3    H2 1219   1.955   5.099   1.109
  419TIP3   OH2 1220   5.642   5.049   3.119
  419TIP3    H1 1221   5.648   5.007   3.205
  419TIP3    H2 1222   5.727   5.031   3.077
  420TIP3   OH2 1223   3.381   4.553   2.991
  420TIP3    H1 1224   3.312   4.496   2.957
  420TIP3    H2 1225   3.353   4.642   2.967
  421TIP3   OH2 1226   0.554   2.676   5.842
  421TIP3    H1 1227   0.624   2.740   5.830
  421TIP3    H2 1228   0.499   2.687   5.764
  422TIP3   OH2 1229   1.122   0.771   1.970
  422TIP3    H1 1230   1.106   0.811   1.884
  422TIP3    H2 1231   1.135   0.845   2.029
  423TIP3   OH2 1232   5.603   4.872   0.029
  423TIP3    H1 1233   5.508   4.864   0.037
  423TIP3    H2 1234   5.637   4.797   0.077
  424TIP3   OH2 1235   1.655   3.535   4.381
  424TIP3    H1 1236   1.646   3.455   4.330
  424TIP3    H2 1237   1.566   3.553   4.413
  425TIP3   OH2 1238   0.119   3.785   4.673
  425TIP3    H1 1239   0.043   3.787   4.732
  425TIP3    H2 1240   0.194   3.805   4.730
  426TIP3   OH2 1241   4.504   3.872   5.736
  426TIP3    H1 1242   4.486   3.784   5.704
  426TIP3    H2 1243   4.425   3.922   5.717
  427TIP3   OH2 1244   3.845   0.941   0.898
  427TIP3    H1 1245   3.823   0.989   0.978
  427TIP3    H2 1246   3.770   0.956   0.840
  428TIP3   OH2 1247   6.016   0.538   5.267
  428TIP3    H1 1248   6.048   0.623   5.235
  428TIP3    H2 1249   5.921   0.541   5.251
  429TIP3   OH2 1250   0.952   1.698   5.016
  429TIP3    H1 1251   0.910   1.709   4.930
  429TIP3    H2 1252   1.045   1.715   4.999
  430TIP3   OH2 1253   5.266   0.384   0.238
  430TIP3    H1 1254   5.178   0.395   0.202
  430TIP3    H2 1255   5.285   0.290   0.228
  431TIP3   OH2 1256   6.164   5.505   2.933
  431TIP3    H1 1257   6.253   5.538   2.946
  431TIP3    H2 1258   6.146   5.452   3.011
  432TIP3   OH2 1259   4.317   6.423   5.886
  432TIP3    H1 1260   4.339   6.512   5.860
  432TIP3    H2 1261   4.313   6.374   5.803
  433TIP3   OH2 1262   5.245   2.621   3.833
  433TIP3    H1 1263   5.217   2.644   3.744
  433TIP3    H2 1264   5.175   2.565   3.867
  434TIP3   OH2 1265   1.999   0.987   3.331
  434TIP3    H1 1266   1.968   0.902   3.360
  434TIP3    H2 1267   1.926   1.024   3.281
  435TIP3   OH2 1268   1.368   4.339   4.574
  435TIP3    H1 1269   1.330   4.367   4.657
  435TIP3    H2 1270   1.326   4.255   4.555
  436TIP3   OH2 1271   0.043   5.367   4.463
  436TIP3    H1 1272  -0.030   5.348   4.522
  436TIP3    H2 1273   0.011   5.340   4.377
  437TIP3   OH2 1274   6.647   3.132   0.120
  437TIP3    H1 1275   6.670   3.216   0.160
  437TIP3    H2 1276   6.713   3.071   0.154
  438TIP3   OH2 1277   2.344   2.854   1.316
  438TIP3    H1 1278   2.378   2.857   1.226
  438TIP3    H2 1279   2.373   2.769   1.349
  439TIP3   OH2 1280   6.083   0.141   0.329
  439TIP3    H1 1281   6.128   0.205   0.274
  439TIP3    H2 1282   6.115   0.056   0.299
  440TIP3   OH2 1283   1.602   0.569   0.255
  440TIP3    H1 1284   1.638   0.500   0.310
  440TIP3    H2 1285   1.509   0.549   0.249
  441TIP3   OH2 1286   0.493   6.218   3.216
  441TIP3    H1 1287   0.478   6.141   3.270
  441TIP3    H2 1288   0.524   6.184   3.132
  442TIP3   OH2 1289   5.480   1.442   4.099
  442TIP3    H1 1290   5.410   1.475   4.043
  442TIP3    H2 1291   5.510   1.519   4.147
  443TIP3   OH2 1292   5.226   1.529   4.777
  443TIP3    H1 1293   5.309   1.482   4.787
  443TIP3    H2 1294   5.196   1.506   4.689
  444TIP3   OH2 1295   1.787   4.304   3.122
  444TIP3    H1 1296   1.855   4.330   3.059
  444TIP3    H2 1297   1.835   4.280   3.201
  445TIP3   OH2 1298   2.855   1.683   1.967
  445TIP3    H1 1299   2.824   1.759   2.016
  445TIP3    H2 1300   2.932   1.653   2.015
  446TIP3   OH2 1301   6.770   1.910   2.825
  446TIP3    H1 1302   6.749   1.839   2.886
  446TIP3    H2 1303   6.846   1.877   2.776
  447TIP3   OH2 1304   5.612   6.735   3.921
  447TIP3    H1 1305   5.640   6.755   3.832
  447TIP3    H2 1306   5.688   6.694   3.961
  448TIP3   OH2 1307   3.284   0.095   3.928
  448TIP3    H1 1308   3.242   0.015   3.896
  448TIP3    H2 1309   3.264   0.097   4.021
  449TIP3   OH2 1310   3.868   6.297   3.235
  449TIP3    H1 1311   3.804   6.341   3.180
  449TIP3    H2 1312   3.824   6.285   3.319
  450TIP3   OH2 1313   3.478   4.733   5.150
  450TIP3    H1 1314   3.431   4.751   5.231
  450TIP3    H2 1315   3.498   4.819   5.113
  451TIP3   OH2 1316   1.361   3.920   1.123
  451TIP3    H1 1317   1.427   3.909   1.054
  451TIP3    H2 1318   1.354   3.834   1.163
  452TIP3   OH2 1319   6.142   0.057   4.583
  452TIP3    H1 1320   6.229   0.079   4.551
  452TIP3    H2 1321   6.090   0.045   4.503
  453TIP3   OH2 1322   2.694   2.695   3.352
  453TIP3    H1 1323   2.715   2.771   3.298
  453TIP3    H2 1324   2.731   2.620   3.304
  454TIP3   OH2 1325   4.371   6.840   5.622
  454TIP3    H1 1326   4.304   6.878   5.565
  454TIP3    H2 1327   4.328   6.765   5.662
  455TIP3   OH2 1328   7.170   4.910   3.134
  455TIP3    H1 1329   7.230   4.906   3.060
  455TIP3    H2 1330   7.224   4.939   3.207
  456TIP3   OH2 1331   3.318   4.138   3.608
  456TIP3    H1 1332   3.273   4.211   3.567
  456TIP3    H2 1333   3.394   4.177   3.650
  457TIP3   OH2 1334   3.673   4.670   2.228
  457TIP3    H1 1335   3.752   4.637   2.185
  457TIP3    H2 1336   3.690   4.657   2.322
  458TIP3   OH2 1337   4.369   6.404   5.155
  458TIP3    H1 1338   4.285   6.416   5.111
  458TIP3    H2 1339   4.428   6.466   5.112
  459TIP3   OH2 1340   0.901   2.544   1.511
  459TIP3    H1 1341   0.961   2.602   1.463
  459TIP3    H2 1342   0.887   2.471   1.452
  460TIP3   OH2 1343   5.486   2.339   3.170
  460TIP3    H1 1344   5.456   2.280   3.239
  460TIP3    H2 1345   5.582   2.334   3.174
  461TIP3   OH2 1346   3.851   0.903   2.962
  461TIP3    H1 1347   3.886   0.814   2.958
  461TIP3    H2 1348   3.756   0.893   2.954
  462TIP3   OH2 1349   1.584   0.588   2.526
  462TIP3    H1 1350   1.529   0.537   2.584
  462TIP3    H2 1351   1.528   0.608   2.451
  463TIP3   OH2 1352   1.959   3.000   3.284
  463TIP3    H1 1353   1.964   3.011   3.379
  463TIP3    H2 1354   2.049   3.012   3.253
  464TIP3   OH2 1355   0.874   4.984   2.933
  464TIP3    H1 1356   0.952   4.933   2.958
  464TIP3    H2 1357   0.910   5.063   2.892
  465TIP3   OH2 1358   6.226   2.512   5.666
  465TIP3    H1 1359   6.154   2.528   5.605
  465TIP3    H2 1360   6.286   2.456   5.618
  466TIP3   OH2 1361   1.962   1.907   0.692
  466TIP3    H1 1362   1.889   1.845   0.687
  466TIP3    H2 1363   1.929   1.978   0.747
  467TIP3   OH2 1364   4.540   2.810   0.051
  467TIP3    H1 1365   4.546   2.724   0.092
  467TIP3    H2 1366   4.565   2.871   0.119
  468TIP3   OH2 1367   2.654   3.109   5.460
  468TIP3    H1 1368   2.640   3.202   5.443
  468TIP3    H2 1369   2.653   3.068   5.373
  469TIP3   OH2 1370   2.655   1.730   3.297
  469TIP3    H1 1371   2.689   1.806   3.250
  469TIP3    H2 1372   2.645   1.760   3.387
  470TIP3   OH2 1373   6.948   4.642   5.134
  470TIP3    H1 1374   6.970   4.720   5.185
  470TIP3    H2 1375   7.026   4.588   5.140
  471TIP3   OH2 1376   1.593   0.904   0.198
  471TIP3    H1 1377   1.569   0.811   0.204
  471TIP3    H2 1378   1.625   0.914   0.109
  472TIP3   OH2 1379   6.032   4.504   3.029
  472TIP3    H1 1380   6.081   4.586   3.036
  472TIP3    H2 1381   6.097   4.435   3.040
  473TIP3   OH2 1382   2.720   5.265   4.533
  473TIP3    H1 1383   2.718   5.209   4.456
  473TIP3    H2 1384   2.725   5.354   4.499
  474TIP3   OH2 1385   6.174   6.608   4.708
  474TIP3    H1 1386   6.196   6.576   4.620
  474TIP3    H2 1387   6.217   6.693   4.714
  475TIP3   OH2 1388   5.933   2.203   3.887
  475TIP3    H1 1389   5.914   2.111   3.868
  475TIP3    H2 1390   5.996   2.228   3.820
  476TIP3   OH2 1391   4.041   6.616   5.321
  476TIP3    H1 1392   4.007   6.552   5.258
  476TIP3    H2 1393   4.134   6.625   5.298
  477TIP3   OH2 1394   3.869   3.794   4.561
  477TIP3    H1 1395   3.870   3.838   4.476
  477TIP3    H2 1396   3.781   3.758   4.569
  478TIP3   OH2 1397   6.290   2.456   0.555
  478TIP3    H1 1398   6.241   2.417   0.483
  478TIP3    H2 1399   6.292   2.550   0.534
  479TIP3   OH2 1400   7.027   3.515   1.043
  479TIP3    H1 1401   6.957   3.574   1.071
  479TIP3    H2 1402   6.991   3.470   0.966
  480TIP3   OH2 1403   0.432   5.536   3.821
  480TIP3    H1 1404   0.357   5.591   3.798
  480TIP3    H2 1405   0.498   5.597   3.854
  481TIP3   OH2 1406   4.498   0.834   4.989
  481TIP3    H1 1407   4.408   0.814   4.965
  481TIP3    H2 1408   4.520   0.911   4.936
  482TIP3   OH2 1409   1.617   0.536   4.060
  482TIP3    H1 1410   1.543   0.487   4.096
  482TIP3    H2 1411   1.584   0.569   3.976
  483TIP3   OH2 1412   2.592   1.597   5.858
  483TIP3    H1 1413   2.585   1.687   5.891
  483TIP3    H2 1414   2.583   1.543   5.936
  484TIP3   OH2 1415   5.928   1.288   0.549
  484TIP3    H1 1416   5.982   1.251   0.479
  484TIP3    H2 1417   5.976   1.365   0.578
  485TIP3   OH2 1418   2.384   5.491   3.232
  485TIP3    H1 1419   2.462   5.435   3.229
  485TIP3    H2 1420   2.321   5.440   3.282
  486TIP3   OH2 1421   1.144   2.539   1.719
  486TIP3    H1 1422   1.081   2.479   1.679
  486TIP3    H2 1423   1.183   2.585   1.644
  487TIP3   OH2 1424   3.749   2.794   2.052
  487TIP3    H1 1425   3.712   2.847   2.124
  487TIP3    H2 1426   3.817   2.849   2.015
  488TIP3   OH2 1427   0.511   0.329   0.128
  488TIP3    H1 1428   0.567   0.336   0.051
  488TIP3    H2 1429   0.550   0.259   0.180
  489TIP3   OH2 1430   2.329   6.323   5.778
  489TIP3    H1 1431   2.282   6.312   5.860
  489TIP3    H2 1432   2.335   6.234   5.742
  490TIP3   OH2 1433   0.445   1.606   0.730
  490TIP3    H1 1434   0.364   1.644   0.763
  490TIP3    H2 1435   0.422   1.515   0.711
  491TIP3   OH2 1436   4.810   1.518   0.797
  491TIP3    H1 1437   4.716   1.520   0.783
  491TIP3    H2 1438   4.822   1.466   0.876
  492TIP3   OH2 1439   6.446   1.880   0.211
  492TIP3    H1 1440   6.503   1.822   0.160
  492TIP3    H2 1441   6.371   1.895   0.153
  493TIP3   OH2 1442   2.208   3.424   3.563
  493TIP3    H1 1443   2.214   3.459   3.651
  493TIP3    H2 1444   2.293   3.385   3.546
  494TIP3   OH2 1445   0.351   0.103   0.735
  494TIP3    H1 1446   0.299   0.164   0.683
  494TIP3    H2 1447   0.298   0.023   0.738
  495TIP3   OH2 1448   6.314   4.708   2.571
  495TIP3    H1 1449   6.277   4.753   2.647
  495TIP3    H2 1450   6.366   4.775   2.527
  496TIP3   OH2 1451   5.126   3.002   4.911
  496TIP3    H1 1452   5.079   2.928   4.873
  496TIP3    H2 1453   5.216   2.993   4.878
  497TIP3   OH2 1454   2.100   0.396   0.980
  497TIP3    H1 1455   2.086   0.472   0.923
  497TIP3    H2 1456   2.043   0.328   0.944
  498TIP3   OH2 1457   1.996   5.449   3.243
  498TIP3    H1 1458   2.034   5.435   3.156
  498TIP3    H2 1459   2.070   5.436   3.303
  499TIP3   OH2 1460   5.416   5.236   0.931
  499TIP3    H1 1461   5.407   5.149   0.969
  499TIP3    H2 1462   5.507   5.260   0.946
  500TIP3   OH2 1463   4.731   2.638   5.428
  500TIP3    H1 1464   4.820   2.673   5.430
  500TIP3    H2 1465   4.714   2.611   5.518
  501TIP3   OH2 1466   1.952   6.177   0.414
  501TIP3    H1 1467   1.937   6.203   0.323
  501TIP3    H2 1468   1.905   6.094   0.422
  502TIP3   OH2 1469   2.760   3.006   1.234
  502TIP3    H1 1470   2.752   3.054   1.317
  502TIP3    H2 1471   2.741   2.915   1.257
  503TIP3   OH2 1472   2.345   1.924   5.374
  503TIP3    H1 1473   2.390   1.905   5.456
  503TIP3    H2 1474   2.390   1.870   5.309
  504TIP3   OH2 1475   4.354   2.976   2.989
  504TIP3    H1 1476   4.372   2.886   3.018
  504TIP3    H2 1477   4.280   2.968   2.929
  505TIP3   OH2 1478   3.098   2.937   0.365
  505TIP3    H1 1479   3.062   3.025   0.354
  505TIP3    H2 1480   3.062   2.888   0.291
  506TIP3   OH2 1481   4.366   5.388   1.062
  506TIP3    H1 1482   4.398   5.383   0.972
  506TIP3    H2 1483   4.410   5.317   1.108
  507TIP3   OH2 1484   1.427   0.856   1.160
  507TIP3    H1 1485   1.464   0.783   1.210
  507TIP3    H2 1486   1.502   0.895   1.115
  508TIP3   OH2 1487   4.386   5.725   4.297
  508TIP3    H1 1488   4.472   5.684   4.309
  508TIP3    H2 1489   4.339   5.665   4.240
  509TIP3   OH2 1490   3.219   2.704   0.597
  509TIP3    H1 1491   3.221   2.789   0.640
  509TIP3    H2 1492   3.266   2.718   0.515
  510TIP3   OH2 1493   5.587   2.029   2.153
  510TIP3    H1 1494   5.526   1.974   2.104
  510TIP3    H2 1495   5.534   2.103   2.183
  511TIP3   OH2 1496   5.125   1.503   3.623
  511TIP3    H1 1497   5.135   1.456   3.540
  511TIP3    H2 1498   5.067   1.576   3.602
  512TIP3   OH2 1499   2.523   0.053   3.892
  512TIP3    H1 1500   2.552   0.124   3.949
  512TIP3    H2 1501   2.477   0.098   3.820
  513TIP3   OH2 1502   1.619   5.689   5.515
  513TIP3    H1 1503   1.637   5.777   5.482
  513TIP3    H2 1504   1.559   5.651   5.451
  514TIP3   OH2 1505   3.618   3.782   3.379
  514TIP3    H1 1506   3.675   3.782   3.302
  514TIP3    H2 1507   3.676   3.810   3.451
  515TIP3   OH2 1508   1.263  -0.044  -0.046
  515TIP3    H1 1509   1.186  -0.067  -0.098
  515TIP3    H2 1510   1.236  -0.056   0.045
  516TIP3   OH2 1511   0.616   4.974   2.318
  516TIP3    H1 1512   0.548   4.920   2.359
  516TIP3    H2 1513   0.698   4.933   2.345
  517TIP3   OH2 1514   6.407   4.819   0.677
  517TIP3    H1 1515   6.428   4.806   0.584
  517TIP3    H2 1516   6.449   4.745   0.721
  518TIP3   OH2 1517   5.706   0.453   5.336
  518TIP3    H1 1518   5.654   0.529   5.309
  518TIP3    H2 1519   5.683   0.440   5.428
  519TIP3   OH2 1520   0.028   0.686   3.843
  519TIP3    H1 1521   0.073   0.621   3.896
  519TIP3    H2 1522   0.095   0.720   3.784
  520TIP3   OH2 1523   3.001   3.448   0.877
  520TIP3    H1 1524   3.083   3.484   0.842
  520TIP3    H2 1525   2.938   3.520   0.867
  521TIP3   OH2 1526   0.223   2.831   2.155
  521TIP3    H1 1527   0.236   2.874   2.071
  521TIP3    H2 1528   0.254   2.742   2.142
  522TIP3   OH2 1529   3.400   4.208   4.446
  522TIP3    H1 1530   3.347   4.267   4.500
  522TIP3    H2 1531   3.336   4.168   4.386
  523TIP3   OH2 1532   2.995   0.144   2.187
  523TIP3    H1 1533   2.954   0.121   2.271
  523TIP3    H2 1534   2.962   0.078   2.126
  524TIP3   OH2 1535   6.795   5.682   4.640
  524TIP3    H1 1536   6.859   5.699   4.709
  524TIP3    H2 1537   6.764   5.593   4.658
  525TIP3   OH2 1538   5.255   3.741   3.040
  525TIP3    H1 1539   5.342   3.760   3.075
  525TIP3    H2 1540   5.272   3.702   2.953
  526TIP3   OH2 1541   6.968   5.366   4.443
  526TIP3    H1 1542   6.981   5.459   4.423
  526TIP3    H2 1543   6.898   5.338   4.383
  527TIP3   OH2 1544   2.833   4.327   4.014
  527TIP3    H1 1545   2.835   4.243   3.969
  527TIP3    H2 1546   2.749   4.366   3.989
  528TIP3   OH2 1547   0.127   2.799   1.128
  528TIP3    H1 1548   0.077   2.858   1.185
  528TIP3    H2 1549   0.218   2.816   1.149
  529TIP3   OH2 1550   4.937   0.383   1.695
  529TIP3    H1 1551   4.910   0.382   1.787
  529TIP3    H2 1552   4.891   0.458   1.657
  530TIP3   OH2 1553   5.125   3.589   1.219
  530TIP3    H1 1554   5.205   3.547   1.189
  530TIP3    H2 1555   5.153   3.647   1.289
  531TIP3   OH2 1556   6.232   1.463   0.333
  531TIP3    H1 1557   6.282   1.400   0.280
  531TIP3    H2 1558   6.299   1.517   0.375
  532TIP3   OH2 1559   5.107   1.835   2.296
  532TIP3    H1 1560   5.062   1.804   2.375
  532TIP3    H2 1561   5.044   1.892   2.252
  533TIP3   OH2 1562   5.917   1.915   4.183
  533TIP3    H1 1563   5.828   1.926   4.150
  533TIP3    H2 1564   5.954   2.003   4.183
  534TIP3   OH2 1565   0.497   2.394   3.151
  534TIP3    H1 1566   0.582   2.378   3.192
  534TIP3    H2 1567   0.514   2.465   3.088
  535TIP3   OH2 1568   4.595   5.464   3.748
  535TIP3    H1 1569   4.578   5.372   3.730
  535TIP3    H2 1570   4.509   5.503   3.762
  536TIP3   OH2 1571   4.106   3.974   1.817
  536TIP3    H1 1572   4.086   4.056   1.772
  536TIP3    H2 1573   4.041   3.912   1.785
  537TIP3   OH2 1574   3.926   0.043   0.375
  537TIP3    H1 1575   3.844   0.086   0.401
  537TIP3    H2 1576   3.917   0.030   0.281
  538TIP3   OH2 1577   7.083   2.919   4.605
  538TIP3    H1 1578   7.025   2.943   4.532
  538TIP3    H2 1579   7.162   2.970   4.590
  539TIP3   OH2 1580   5.470   4.607   5.110
  539TIP3    H1 1581   5.450   4.642   5.197
  539TIP3    H2 1582   5.398   4.547   5.091
  540TIP3   OH2 1583   0.966   4.884   1.139
  540TIP3    H1 1584   0.911   4.808   1.160
  540TIP3    H2 1585   0.908   4.959   1.148
  541TIP3   OH2 1586   5.721   3.021   5.309
  541TIP3    H1 1587   5.687   3.084   5.372
  541TIP3    H2 1588   5.774   2.961   5.361
  542TIP3   OH2 1589   3.869   0.597   0.653
  542TIP3    H1 1590   3.779   0.626   0.641
  542TIP3    H2 1591   3.889   0.617   0.745
  543TIP3   OH2 1592   3.675   2.559   1.271
  543TIP3    H1 1593   3.673   2.651   1.246
  543TIP3    H2 1594   3.714   2.514   1.196
  544TIP3   OH2 1595   5.340   4.709   5.322
  544TIP3    H1 1596   5.255   4.668   5.341
  544TIP3    H2 1597   5.329   4.800   5.350
  545TIP3   OH2 1598   1.484   3.938   4.091
  545TIP3    H1 1599   1.432   3.991   4.031
  545TIP3    H2 1600   1.422   3.876   4.129
  546TIP3   OH2 1601   6.210   5.601   5.769
  546TIP3    H1 1602   6.177   5.588   5.680
  546TIP3    H2 1603   6.191   5.693   5.788
  547TIP3   OH2 1604   5.882   0.631   1.705
  547TIP3    H1 1605   5.954   0.578   1.740
  547TIP3    H2 1606   5.858   0.689   1.777
  548TIP3   OH2 1607   6.455   5.127   0.551
  548TIP3    H1 1608   6.392   5.089   0.490
  548TIP3    H2 1609   6.539   5.092   0.524
  549TIP3   OH2 1610   6.201   3.111   0.779
  549TIP3    H1 1611   6.138   3.061   0.830
  549TIP3    H2 1612   6.181   3.202   0.799
  550TIP3   OH2 1613   2.650   5.259   4.154
  550TIP3    H1 1614   2.699   5.212   4.222
  550TIP3    H2 1615   2.697   5.341   4.143
  551TIP3   OH2 1616   5.123   3.055   1.231
  551TIP3    H1 1617   5.050   3.095   1.183
  551TIP3    H2 1618   5.138   2.972   1.187
  552TIP3   OH2 1619   0.921   5.033   3.938
  552TIP3    H1 1620   0.953   4.975   3.868
  552TIP3    H2 1621   0.979   5.109   3.934
  553TIP3   OH2 1622   0.533   2.600   3.702
  553TIP3    H1 1623   0.618   2.637   3.729
  553TIP3    H2 1624   0.546   2.575   3.611
  554TIP3   OH2 1625   0.089   5.022   4.860
  554TIP3    H1 1626   0.178   4.996   4.836
  554TIP3    H2 1627   0.045   5.037   4.777
  555TIP3   OH2 1628   6.792   6.649   5.630
  555TIP3    H1 1629   6.815   6.616   5.543
  555TIP3    H2 1630   6.716   6.705   5.616
  556TIP3   OH2 1631   5.500   2.172   1.761
  556TIP3    H1 1632   5.500   2.115   1.685
  556TIP3    H2 1633   5.569   2.138   1.818
  557TIP3   OH2 1634   2.783   0.651   2.630
  557TIP3    H1 1635   2.797   0.557   2.618
  557TIP3    H2 1636   2.787   0.664   2.724
  558TIP3   OH2 1637   6.097   0.473   4.847
  558TIP3    H1 1638   6.001   0.484   4.847
  558TIP3    H2 1639   6.116   0.432   4.931
  559TIP3   OH2 1640   4.187   1.827   4.589
  559TIP3    H1 1641   4.095   1.846   4.607
  559TIP3    H2 1642   4.186   1.741   4.547
  560TIP3   OH2 1643   4.531   5.784   4.957
  560TIP3    H1 1644   4.526   5.713   4.892
  560TIP3    H2 1645   4.487   5.749   5.034
  561TIP3   OH2 1646   0.072   3.345   1.809
  561TIP3    H1 1647   0.116   3.412   1.861
  561TIP3    H2 1648  -0.011   3.385   1.784
  562TIP3   OH2 1649   1.798   5.593   0.333
  562TIP3    H1 1650   1.879   5.614   0.286
  562TIP3    H2 1651   1.826   5.575   0.423
  563TIP3   OH2 1652   2.215   3.106   2.417
  563TIP3    H1 1653   2.252   3.029   2.461
  563TIP3    H2 1654   2.216   3.174   2.484
  564TIP3   OH2 1655   7.126   2.608   5.118
  564TIP3    H1 1656   7.098   2.642   5.033
  564TIP3    H2 1657   7.044   2.590   5.164
  565TIP3   OH2 1658   0.173   1.938   0.237
  565TIP3    H1 1659   0.166   1.901   0.149
  565TIP3    H2 1660   0.182   2.032   0.223
  566TIP3   OH2 1661   0.024   1.299   4.263
  566TIP3    H1 1662   0.109   1.331   4.294
  566TIP3    H2 1663  -0.005   1.238   4.331
  567TIP3   OH2 1664   4.098   1.329   5.563
  567TIP3    H1 1665   4.093   1.384   5.485
  567TIP3    H2 1666   4.012   1.336   5.603
  568TIP3   OH2 1667   1.833   5.106   5.095
  568TIP3    H1 1668   1.865   5.027   5.140
  568TIP3    H2 1669   1.740   5.090   5.080
  569TIP3   OH2 1670   0.173   1.045   0.712
  569TIP3    H1 1671   0.176   1.030   0.806
  569TIP3    H2 1672   0.101   1.107   0.700
  570TIP3   OH2 1673   4.764   5.211   1.822
  570TIP3    H1 1674   4.696   5.147   1.800
  570TIP3    H2 1675   4.770   5.208   1.917
  571TIP3   OH2 1676   2.007   1.067   3.037
  571TIP3    H1 1677   2.025   1.000   2.971
  571TIP3    H2 1678   1.928   1.036   3.082
  572TIP3   OH2 1679   6.763   6.211   1.221
  572TIP3    H1 1680   6.751   6.220   1.127
  572TIP3    H2 1681   6.765   6.117   1.237
  573TIP3   OH2 1682   4.650   4.544   3.423
  573TIP3    H1 1683   4.637   4.466   3.368
  573TIP3    H2 1684   4.596   4.527   3.500
  574TIP3   OH2 1685   2.245   2.897   1.874
  574TIP3    H1 1686   2.284   2.975   1.912
  574TIP3    H2 1687   2.217   2.924   1.787
  575TIP3   OH2 1688   1.958   0.711   3.404
  575TIP3    H1 1689   1.923   0.623   3.420
  575TIP3    H2 1690   2.051   0.697   3.387
  576TIP3   OH2 1691   3.928   5.610   1.024
  576TIP3    H1 1692   3.887   5.596   1.110
  576TIP3    H2 1693   4.021   5.620   1.044
  577TIP3   OH2 1694   1.240   2.617   3.747
  577TIP3    H1 1695   1.154   2.631   3.787
  577TIP3    H2 1696   1.255   2.695   3.695
  578TIP3   OH2 1697   3.345   2.349   3.047
  578TIP3    H1 1698   3.419   2.298   3.080
  578TIP3    H2 1699   3.278   2.342   3.115
  579TIP3   OH2 1700   5.544   6.380   4.756
  579TIP3    H1 1701   5.509   6.395   4.668
  579TIP3    H2 1702   5.489   6.311   4.793
  580TIP3   OH2 1703   3.815   3.306   4.630
  580TIP3    H1 1704   3.877   3.351   4.687
  580TIP3    H2 1705   3.816   3.215   4.660
  581TIP3   OH2 1706   6.871   5.477   2.558
  581TIP3    H1 1707   6.808   5.405   2.553
  581TIP3    H2 1708   6.906   5.486   2.469
  582TIP3   OH2 1709   4.507   3.035   3.951
  582TIP3    H1 1710   4.473   3.001   4.034
  582TIP3    H2 1711   4.432   3.033   3.892
  583TIP3   OH2 1712   0.984   6.076   2.606
  583TIP3    H1 1713   0.914   6.066   2.670
  583TIP3    H2 1714   0.948   6.039   2.525
  584TIP3   OH2 1715   7.175   1.845   5.355
  584TIP3    H1 1716   7.093   1.888   5.381
  584TIP3    H2 1717   7.214   1.814   5.437
  585TIP3   OH2 1718   4.043   6.340   1.538
  585TIP3    H1 1719   4.105   6.357   1.609
  585TIP3    H2 1720   4.000   6.258   1.563
  586TIP3   OH2 1721   2.547   0.702   0.131
  586TIP3    H1 1722   2.631   0.737   0.102
  586TIP3    H2 1723   2.502   0.675   0.051
  587TIP3   OH2 1724   3.769   0.157   2.643
  587TIP3    H1 1725   3.862   0.134   2.645
  587TIP3    H2 1726   3.730   0.092   2.583
  588TIP3   OH2 1727   0.959   2.611   1.955
  588TIP3    H1 1728   0.992   2.589   1.868
  588TIP3    H2 1729   1.034   2.653   1.999
  589TIP3   OH2 1730   1.954   2.664   3.567
  589TIP3    H1 1731   1.952   2.759   3.572
  589TIP3    H2 1732   2.026   2.638   3.625
  590TIP3   OH2 1733   0.623   0.482   4.171
  590TIP3    H1 1734   0.574   0.512   4.248
  590TIP3    H2 1735   0.557   0.473   4.103
  591TIP3   OH2 1736   6.709   2.103   3.011
  591TIP3    H1 1737   6.651   2.171   2.974
  591TIP3    H2 1738   6.735   2.051   2.935
  592TIP3   OH2 1739   3.542   6.092   3.554
  592TIP3    H1 1740   3.560   6.005   3.519
  592TIP3    H2 1741   3.501   6.140   3.483
  593TIP3   OH2 1742   5.893   2.206   2.901
  593TIP3    H1 1743   5.964   2.155   2.940
  593TIP3    H2 1744   5.877   2.164   2.816
  594TIP3   OH2 1745   0.788   4.169   4.818
  594TIP3    H1 1746   0.715   4.116   4.786
  594TIP3    H2 1747   0.851   4.105   4.851
  595TIP3   OH2 1748   3.777   0.836   4.399
  595TIP3    H1 1749   3.724   0.776   4.451
  595TIP3    H2 1750   3.866   0.799   4.403
  596TIP3   OH2 1751   7.130   4.824   4.942
  596TIP3    H1 1752   7.174   4.778   5.014
  596TIP3    H2 1753   7.192   4.894   4.918
  597TIP3   OH2 1754   3.945   0.280   2.892
  597TIP3    H1 1755   4.005   0.328   2.949
  597TIP3    H2 1756   3.999   0.249   2.820
  598TIP3   OH2 1757   0.950   2.254   3.035
  598TIP3    H1 1758   0.984   2.266   3.123
  598TIP3    H2 1759   1.017   2.292   2.978
  599TIP3   OH2 1760   1.443   1.651   1.181
  599TIP3    H1 1761   1.524   1.643   1.131
  599TIP3    H2 1762   1.395   1.571   1.161
  600TIP3   OH2 1763   3.653   3.354   3.166
  600TIP3    H1 1764   3.616   3.338   3.253
  600TIP3    H2 1765   3.614   3.287   3.110
  601TIP3   OH2 1766   1.785   0.860   1.537
  601TIP3    H1 1767   1.740   0.875   1.620
  601TIP3    H2 1768   1.800   0.765   1.534
  602TIP3   OH2 1769   6.187   0.219   2.201
  602TIP3    H1 1770   6.229   0.304   2.187
  602TIP3    H2 1771   6.103   0.240   2.243
  603TIP3   OH2 1772   3.959   1.742   2.655
  603TIP3    H1 1773   4.014   1.817   2.678
  603TIP3    H2 1774   3.876   1.780   2.628
  604TIP3   OH2 1775   5.938   3.887   2.678
  604TIP3    H1 1776   5.987   3.855   2.603
  604TIP3    H2 1777   5.998   3.877   2.752
  605TIP3   OH2 1778   6.084   4.508   3.622
  605TIP3    H1 1779   6.147   4.499   3.694
  605TIP3    H2 1780   6.128   4.564   3.558
  606TIP3   OH2 1781   4.046   1.034   1.972
  606TIP3    H1 1782   4.018   1.027   1.881
  606TIP3    H2 1783   4.141   1.024   1.969
  607TIP3   OH2 1784   3.234   0.702   0.505
  607TIP3    H1 1785   3.308   0.650   0.477
  607TIP3    H2 1786   3.229   0.773   0.441
  608TIP3   OH2 1787   1.741   1.357   1.167
  608TIP3    H1 1788   1.716   1.271   1.133
  608TIP3    H2 1789   1.837   1.356   1.166
  609TIP3   OH2 1790   0.242   3.995   2.220
  609TIP3    H1 1791   0.256   4.070   2.278
  609TIP3    H2 1792   0.147   3.982   2.222
  610TIP3   OH2 1793   2.283   0.964   3.384
  610TIP3    H1 1794   2.189   0.979   3.376
  610TIP3    H2 1795   2.295   0.874   3.357
  611TIP3   OH2 1796   5.705   3.498   5.305
  611TIP3    H1 1797   5.764   3.517   5.232
  611TIP3    H2 1798   5.630   3.454   5.265
  612TIP3   OH2 1799   0.375   0.916   5.846
  612TIP3    H1 1800   0.311   0.986   5.842
  612TIP3    H2 1801   0.330   0.844   5.889
  613TIP3   OH2 1802   1.102   6.150   1.085
  613TIP3    H1 1803   1.082   6.075   1.141
  613TIP3    H2 1804   1.124   6.111   1.000
  614TIP3   OH2 1805   3.366   6.129   0.309
  614TIP3    H1 1806   3.414   6.085   0.239
  614TIP3    H2 1807   3.420   6.117   0.387
  615TIP3   OH2 1808   1.965   3.153   4.583
  615TIP3    H1 1809   1.881   3.138   4.625
  615TIP3    H2 1810   2.021   3.083   4.615
  616TIP3   OH2 1811   0.887   0.804   5.067
  616TIP3    H1 1812   0.807   0.752   5.076
  616TIP3    H2 1813   0.880   0.870   5.136
  617TIP3   OH2 1814   4.392   1.406   2.615
  617TIP3    H1 1815   4.467   1.418   2.674
  617TIP3    H2 1816   4.390   1.485   2.562
  618TIP3   OH2 1817   2.344   3.131   1.342
  618TIP3    H1 1818   2.318   3.039   1.348
  618TIP3    H2 1819   2.368   3.143   1.250
  619TIP3   OH2 1820   3.622   2.896   1.820
  619TIP3    H1 1821   3.617   2.974   1.876
  619TIP3    H2 1822   3.653   2.827   1.878
  620TIP3   OH2 1823   2.030   5.887   0.521
  620TIP3    H1 1824   2.076   5.804   0.507
  620TIP3    H2 1825   2.076   5.949   0.464
  621TIP3   OH2 1826   6.219   1.799   2.333
  621TIP3    H1 1827   6.169   1.737   2.280
  621TIP3    H2 1828   6.158   1.870   2.351
  622TIP3   OH2 1829   4.112   2.568   4.434
  622TIP3    H1 1830   4.043   2.613   4.385
  622TIP3    H2 1831   4.128   2.487   4.385
  623TIP3   OH2 1832   4.039   4.714   0.972
  623TIP3    H1 1833   3.958   4.728   0.924
  623TIP3    H2 1834   4.103   4.690   0.905
  624TIP3   OH2 1835   0.792   2.310   1.384
  624TIP3    H1 1836   0.850   2.242   1.419
  624TIP3    H2 1837   0.709   2.266   1.369
  625TIP3   OH2 1838   0.917   2.738   4.181
  625TIP3    H1 1839   0.848   2.714   4.243
  625TIP3    H2 1840   0.879   2.811   4.131
  626TIP3   OH2 1841   6.791   0.763   3.940
  626TIP3    H1 1842   6.856   0.754   3.871
  626TIP3    H2 1843   6.713   0.796   3.896
  627TIP3   OH2 1844   0.690   2.553   1.666
  627TIP3    H1 1845   0.772   2.549   1.617
  627TIP3    H2 1846   0.654   2.465   1.660
  628TIP3   OH2 1847   4.046   4.910   1.654
  628TIP3    H1 1848   3.996   4.985   1.623
  628TIP3    H2 1849   4.113   4.948   1.712
  629TIP3   OH2 1850   3.802   6.568   2.696
  629TIP3    H1 1851   3.890   6.545   2.667
  629TIP3    H2 1852   3.814   6.606   2.782
  630TIP3   OH2 1853   4.172   4.628   0.329
  630TIP3    H1 1854   4.242   4.670   0.278
  630TIP3    H2 1855   4.096   4.630   0.271
  631TIP3   OH2 1856   1.491   1.902   3.519
  631TIP3    H1 1857   1.537   1.818   3.516
  631TIP3    H2 1858   1.560   1.968   3.518
  632TIP3   OH2 1859   5.683   5.915   5.590
  632TIP3    H1 1860   5.687   5.888   5.682
  632TIP3    H2 1861   5.716   5.839   5.542
  633TIP3   OH2 1862   4.051   4.800   3.827
  633TIP3    H1 1863   4.065   4.736   3.757
  633TIP3    H2 1864   4.072   4.752   3.907
  634TIP3   OH2 1865   7.139   5.240   2.996
  634TIP3    H1 1866   7.219   5.268   2.951
  634TIP3    H2 1867   7.141   5.145   2.993
  635TIP3   OH2 1868   6.434   1.196   1.093
  635TIP3    H1 1869   6.473   1.208   1.179
  635TIP3    H2 1870   6.453   1.277   1.046
  636TIP3   OH2 1871   5.274   1.827   4.942
  636TIP3    H1 1872   5.246   1.756   4.999
  636TIP3    H2 1873   5.196   1.881   4.929
  637TIP3   OH2 1874   6.040   4.933   0.880
  637TIP3    H1 1875   6.066   5.024   0.869
  637TIP3    H2 1876   6.075   4.888   0.802
  638TIP3   OH2 1877   1.544   4.575   4.836
  638TIP3    H1 1878   1.490   4.649   4.862
  638TIP3    H2 1879   1.627   4.614   4.810
  639TIP3   OH2 1880   6.007   0.389   1.280
  639TIP3    H1 1881   5.943   0.327   1.244
  639TIP3    H2 1882   6.081   0.385   1.219
  640TIP3   OH2 1883   1.588   3.255   0.151
  640TIP3    H1 1884   1.587   3.160   0.165
  640TIP3    H2 1885   1.598   3.292   0.238
  641TIP3   OH2 1886   6.595   2.566   3.688
  641TIP3    H1 1887   6.554   2.548   3.604
  641TIP3    H2 1888   6.689   2.564   3.671
  642TIP3   OH2 1889   2.314   4.903   1.919
  642TIP3    H1 1890   2.322   4.993   1.889
  642TIP3    H2 1891   2.279   4.909   2.007
  643TIP3   OH2 1892   3.292   2.694   3.820
  643TIP3    H1 1893   3.232   2.756   3.779
  643TIP3    H2 1894   3.253   2.675   3.905
  644TIP3   OH2 1895   5.851   1.818   1.812
  644TIP3    H1 1896   5.829   1.816   1.719
  644TIP3    H2 1897   5.768   1.800   1.857
  645TIP3   OH2 1898   0.548   1.678   3.651
  645TIP3    H1 1899   0.535   1.770   3.630
  645TIP3    H2 1900   0.464   1.637   3.630
  646TIP3   OH2 1901   4.257   5.803   5.823
  646TIP3    H1 1902   4.223   5.738   5.884
  646TIP3    H2 1903   4.220   5.886   5.853
  647TIP3   OH2 1904   1.903   4.845   0.259
  647TIP3    H1 1905   1.882   4.869   0.349
  647TIP3    H2 1906   1.844   4.898   0.206
  648TIP3   OH2 1907   0.260   3.799   1.714
  648TIP3    H1 1908   0.252   3.716   1.762
  648TIP3    H2 1909   0.207   3.861   1.764
  649TIP3   OH2 1910   0.765   5.975   0.047
  649TIP3    H1 1911   0.833   5.972  -0.020
  649TIP3    H2 1912   0.812   5.987   0.129
  650TIP3   OH2 1913   0.501   3.485   0.846
  650TIP3    H1 1914   0.545   3.569   0.859
  650TIP3    H2 1915   0.459   3.493   0.760
  651TIP3   OH2 1916   1.358   1.177   3.128
  651TIP3    H1 1917   1.280   1.212   3.171
  651TIP3    H2 1918   1.431   1.202   3.186
  652TIP3   OH2 1919   4.607   2.762   4.659
  652TIP3    H1 1920   4.623   2.857   4.656
  652TIP3    H2 1921   4.688   2.723   4.626
  653TIP3   OH2 1922   4.373   2.859   1.508
  653TIP3    H1 1923   4.452   2.845   1.456
  653TIP3    H2 1924   4.384   2.803   1.585
  654TIP3   OH2 1925   3.736   2.828   3.952
  654TIP3    H1 1926   3.707   2.738   3.964
  654TIP3    H2 1927   3.733   2.867   4.040
  655TIP3   OH2 1928   5.875   1.378   1.741
  655TIP3    H1 1929   5.899   1.317   1.811
  655TIP3    H2 1930   5.798   1.424   1.774
  656TIP3   OH2 1931   0.353   4.099   1.881
  656TIP3    H1 1932   0.282   4.038   1.898
  656TIP3    H2 1933   0.357   4.105   1.785
  657TIP3   OH2 1934   4.512   0.249   0.892
  657TIP3    H1 1935   4.516   0.174   0.832
  657TIP3    H2 1936   4.419   0.256   0.914
  658TIP3   OH2 1937   4.094   6.196   3.359
  658TIP3    H1 1938   4.078   6.189   3.453
  658TIP3    H2 1939   4.019   6.244   3.325
  659TIP3   OH2 1940   2.447  -0.035   4.897
  659TIP3    H1 1941   2.409   0.050   4.876
  659TIP3    H2 1942   2.517  -0.015   4.959
  660TIP3   OH2 1943   3.864   5.642   5.288
  660TIP3    H1 1944   3.929   5.711   5.287
  660TIP3    H2 1945   3.780   5.687   5.278
  661TIP3   OH2 1946   0.552   5.079   4.851
  661TIP3    H1 1947   0.584   5.065   4.940
  661TIP3    H2 1948   0.622   5.045   4.795
  662TIP3   OH2 1949   1.952   6.553   0.689
  662TIP3    H1 1950   2.029   6.576   0.638
  662TIP3    H2 1951   1.980   6.480   0.744
  663TIP3   OH2 1952   0.884   4.233   3.617
  663TIP3    H1 1953   0.967   4.281   3.625
  663TIP3    H2 1954   0.900   4.151   3.663
  664TIP3   OH2 1955   1.204   2.849   5.181
  664TIP3    H1 1956   1.294   2.881   5.186
  664TIP3    H2 1957   1.152   2.927   5.160
  665TIP3   OH2 1958   2.191   4.476   0.231
  665TIP3    H1 1959   2.103   4.510   0.215
  665TIP3    H2 1960   2.244   4.513   0.160
  666TIP3   OH2 1961   5.757   0.677   2.583
  666TIP3    H1 1962   5.759   0.691   2.678
  666TIP3    H2 1963   5.719   0.590   2.573
  667TIP3   OH2 1964   4.417   3.777   0.777
  667TIP3    H1 1965   4.331   3.758   0.816
  667TIP3    H2 1966   4.480   3.748   0.843
  668TIP3   OH2 1967   1.099   2.213   0.029
  668TIP3    H1 1968   1.134   2.217  -0.061
  668TIP3    H2 1969   1.115   2.122   0.056
  669TIP3   OH2 1970   6.249   3.245   3.297
  669TIP3    H1 1971   6.286   3.290   3.373
  669TIP3    H2 1972   6.325   3.208   3.252
  670TIP3   OH2 1973   3.161   3.084   0.935
  670TIP3    H1 1974   3.202   3.153   0.987
  670TIP3    H2 1975   3.098   3.043   0.995
  671TIP3   OH2 1976   5.538   2.866   5.165
  671TIP3    H1 1977   5.486   2.941   5.139
  671TIP3    H2 1978   5.619   2.903   5.198
  672TIP3   OH2 1979   1.386   3.186   2.718
  672TIP3    H1 1980   1.467   3.135   2.710
  672TIP3    H2 1981   1.343   3.151   2.796
  673TIP3   OH2 1982   5.254   4.678   3.491
  673TIP3    H1 1983   5.294   4.749   3.441
  673TIP3    H2 1984   5.162   4.678   3.464
  674TIP3   OH2 1985   3.139   1.328  -0.044
  674TIP3    H1 1986   3.044   1.333  -0.030
  674TIP3    H2 1987   3.176   1.357   0.040
  675TIP3   OH2 1988   0.857   0.328   2.199
  675TIP3    H1 1989   0.823   0.281   2.123
  675TIP3    H2 1990   0.913   0.396   2.162
  676TIP3   OH2 1991   6.283   6.002   5.363
  676TIP3    H1 1992   6.368   5.981   5.324
  676TIP3    H2 1993   6.304   6.051   5.443
  677TIP3   OH2 1994   1.302   4.364   5.182
  677TIP3    H1 1995   1.235   4.433   5.186
  677TIP3    H2 1996   1.327   4.360   5.090
  678TIP3   OH2 1997   3.330   4.428   1.173
  678TIP3    H1 1998   3.235   4.440   1.183
  678TIP3    H2 1999   3.340   4.385   1.088
  679TIP3   OH2 2000   5.476   1.523   2.616
  679TIP3    H1 2001   5.403   1.584   2.605
  679TIP3    H2 2002   5.467   1.462   2.543
  680TIP3   OH2 2003   0.823   6.369   5.493
  680TIP3    H1 2004   0.799   6.408   5.408
  680TIP3    H2 2005   0.781   6.283   5.493
  681TIP3   OH2 2006   5.828   5.980   0.349
  681TIP3    H1 2007   5.825   5.978   0.445
  681TIP3    H2 2008   5.804   6.070   0.327
  682TIP3   OH2 2009   0.272   6.780   2.823
  682TIP3    H1 2010   0.224   6.799   2.742
  682TIP3    H2 2011   0.243   6.693   2.848
  683TIP3   OH2 2012   6.867   3.135   1.129
  683TIP3    H1 2013   6.843   3.111   1.218
  683TIP3    H2 2014   6.787   3.174   1.093
  684TIP3   OH2 2015   5.023   1.992   5.795
  684TIP3    H1 2016   5.095   1.964   5.852
  684TIP3    H2 2017   4.974   2.055   5.848
  685TIP3   OH2 2018   3.664   6.210   2.251
  685TIP3    H1 2019   3.727   6.205   2.179
  685TIP3    H2 2020   3.583   6.239   2.209
  686TIP3   OH2 2021   1.330   1.174   0.677
  686TIP3    H1 2022   1.242   1.162   0.642
  686TIP3    H2 2023   1.352   1.090   0.716
  687TIP3   OH2 2024   0.774   6.501   3.269
  687TIP3    H1 2025   0.789   6.585   3.312
  687TIP3    H2 2026   0.846   6.493   3.206
  688TIP3   OH2 2027   5.014   5.318   0.654
  688TIP3    H1 2028   4.995   5.408   0.684
  688TIP3    H2 2029   5.096   5.296   0.697
  689TIP3   OH2 2030   6.420   5.911   3.929
  689TIP3    H1 2031   6.450   5.952   4.010
  689TIP3    H2 2032   6.501   5.895   3.879
  690TIP3   OH2 2033   0.096   0.582   0.468
  690TIP3    H1 2034   0.006   0.568   0.441
  690TIP3    H2 2035   0.091   0.599   0.562
  691TIP3   OH2 2036   2.805   0.999   1.938
  691TIP3    H1 2037   2.719   1.013   1.978
  691TIP3    H2 2038   2.789   1.007   1.844
  692TIP3   OH2 2039   3.516   2.476   2.172
  692TIP3    H1 2040   3.547   2.526   2.247
  692TIP3    H2 2041   3.505   2.541   2.103
  693TIP3   OH2 2042   0.823   5.486   0.493
  693TIP3    H1 2043   0.759   5.436   0.543
  693TIP3    H2 2044   0.896   5.425   0.478
  694TIP3   OH2 2045   3.112   4.905   3.742
  694TIP3    H1 2046   3.050   4.884   3.812
  694TIP3    H2 2047   3.192   4.859   3.767
  695TIP3   OH2 2048   4.657   2.911   1.641
  695TIP3    H1 2049   4.739   2.921   1.690
  695TIP3    H2 2050   4.612   2.838   1.685
  696TIP3   OH2 2051   0.513   1.064   0.735
  696TIP3    H1 2052   0.503   1.026   0.648
  696TIP3    H2 2053   0.603   1.096   0.737
  697TIP3   OH2 2054   3.440   0.741   5.082
  697TIP3    H1 2055   3.417   0.788   5.162
  697TIP3    H2 2056   3.394   0.787   5.012
  698TIP3   OH2 2057   2.115   1.975   5.224
  698TIP3    H1 2058   2.189   1.962   5.284
  698TIP3    H2 2059   2.044   1.924   5.263
  699TIP3   OH2 2060   4.502   2.424   0.148
  699TIP3    H1 2061   4.585   2.444   0.105
  699TIP3    H2 2062   4.519   2.347   0.201
  700TIP3   OH2 2063   4.548   6.169   1.257
  700TIP3    H1 2064   4.630   6.212   1.279
  700TIP3    H2 2065   4.534   6.189   1.165
  701TIP3   OH2 2066   4.577   1.127   2.637
  701TIP3    H1 2067   4.583   1.168   2.550
  701TIP3    H2 2068   4.540   1.194   2.693
  702TIP3   OH2 2069   3.496   3.565   3.614
  702TIP3    H1 2070   3.488   3.558   3.709
  702TIP3    H2 2071   3.543   3.486   3.588
  703TIP3   OH2 2072   2.455   5.459   4.967
  703TIP3    H1 2073   2.457   5.501   5.053
  703TIP3    H2 2074   2.454   5.531   4.905
  704TIP3   OH2 2075   5.006   3.819   1.078
  704TIP3    H1 2076   5.007   3.727   1.102
  704TIP3    H2 2077   4.914   3.843   1.078
  705TIP3   OH2 2078   6.703   6.860   4.773
  705TIP3    H1 2079   6.750   6.894   4.848
  705TIP3    H2 2080   6.641   6.797   4.810
  706TIP3   OH2 2081   6.365   6.742   0.653
  706TIP3    H1 2082   6.300   6.802   0.691
  706TIP3    H2 2083   6.379   6.774   0.564
  707TIP3   OH2 2084   4.673   5.137   0.422
  707TIP3    H1 2085   4.672   5.212   0.481
  707TIP3    H2 2086   4.584   5.102   0.426
  708TIP3   OH2 2087   6.457   0.678   3.448
  708TIP3    H1 2088   6.504   0.759   3.468
  708TIP3    H2 2089   6.369   0.706   3.423
  709TIP3   OH2 2090   4.757   2.510   0.051
  709TIP3    H1 2091   4.799   2.584   0.095
  709TIP3    H2 2092   4.769   2.527  -0.042
  710TIP3   OH2 2093   6.190   5.490   3.896
  710TIP3    H1 2094   6.178   5.582   3.918
  710TIP3    H2 2095   6.154   5.442   3.971
  711TIP3   OH2 2096   6.471   3.508   0.277
  711TIP3    H1 2097   6.471   3.429   0.331
  711TIP3    H2 2098   6.489   3.579   0.339
  712TIP3   OH2 2099   2.716   3.878   2.341
  712TIP3    H1 2100   2.808   3.863   2.360
  712TIP3    H2 2101   2.707   3.974   2.339
  713TIP3   OH2 2102   1.866   4.275   4.428
  713TIP3    H1 2103   1.920   4.354   4.429
  713TIP3    H2 2104   1.796   4.293   4.491
  714TIP3   OH2 2105   3.002   3.178   4.716
  714TIP3    H1 2106   2.943   3.111   4.680
  714TIP3    H2 2107   2.951   3.221   4.784
  715TIP3   OH2 2108   6.417   4.817   5.048
  715TIP3    H1 2109   6.416   4.734   5.095
  715TIP3    H2 2110   6.327   4.827   5.016
  716TIP3   OH2 2111   6.844   3.462   5.012
  716TIP3    H1 2112   6.815   3.372   5.026
  716TIP3    H2 2113   6.808   3.510   5.086
  717TIP3   OH2 2114   1.756   6.377   4.191
  717TIP3    H1 2115   1.709   6.301   4.226
  717TIP3    H2 2116   1.707   6.401   4.112
  718TIP3   OH2 2117  -0.046   5.934   5.165
  718TIP3    H1 2118  -0.001   6.019   5.165
  718TIP3    H2 2119  -0.010   5.888   5.241
  719TIP3   OH2 2120   0.960   2.495   3.221
  719TIP3    H1 2121   1.014   2.502   3.300
  719TIP3    H2 2122   1.019   2.522   3.150
  720TIP3   OH2 2123   3.455   3.267   1.298
  720TIP3    H1 2124   3.494   3.351   1.321
  720TIP3    H2 2125   3.363   3.286   1.284
  721TIP3   OH2 2126   6.678   4.703   5.135
  721TIP3    H1 2127   6.653   4.718   5.226
  721TIP3    H2 2128   6.773   4.688   5.139
  722TIP3   OH2 2129   6.380   3.312   0.645
  722TIP3    H1 2130   6.464   3.271   0.625
  722TIP3    H2 2131   6.319   3.274   0.580
  723TIP3   OH2 2132   2.671   4.099   0.089
  723TIP3    H1 2133   2.599   4.036   0.078
  723TIP3    H2 2134   2.672   4.118   0.183
  724TIP3   OH2 2135   3.434   1.952   2.627
  724TIP3    H1 2136   3.413   2.010   2.554
  724TIP3    H2 2137   3.389   1.992   2.702
  725TIP3   OH2 2138   0.753   4.999   4.661
  725TIP3    H1 2139   0.751   4.903   4.663
  725TIP3    H2 2140   0.726   5.022   4.572
  726TIP3   OH2 2141   5.155   6.096   1.145
  726TIP3    H1 2142   5.194   6.041   1.077
  726TIP3    H2 2143   5.228   6.120   1.202
  727TIP3   OH2 2144   1.885   1.509   5.618
  727TIP3    H1 2145   1.877   1.509   5.522
  727TIP3    H2 2146   1.979   1.517   5.634
  728TIP3   OH2 2147   6.164   6.556   2.609
  728TIP3    H1 2148   6.159   6.647   2.579
  728TIP3    H2 2149   6.136   6.504   2.534
  729TIP3   OH2 2150   2.929   2.363   2.286
  729TIP3    H1 2151   3.024   2.362   2.286
  729TIP3    H2 2152   2.905   2.445   2.243
  730TIP3   OH2 2153   6.288   5.716   4.589
  730TIP3    H1 2154   6.321   5.668   4.665
  730TIP3    H2 2155   6.193   5.712   4.598
  731TIP3   OH2 2156   4.620   3.640   4.821
  731TIP3    H1 2157   4.537   3.683   4.804
  731TIP3    H2 2158   4.686   3.708   4.804
  732TIP3   OH2 2159   2.257   4.586   0.524
  732TIP3    H1 2160   2.192   4.517   0.538
  732TIP3    H2 2161   2.284   4.576   0.433
  733TIP3   OH2 2162   2.427   3.236   1.652
  733TIP3    H1 2163   2.370   3.275   1.585
  733TIP3    H2 2164   2.366   3.204   1.718
  734TIP3   OH2 2165   2.786   6.690   5.866
  734TIP3    H1 2166   2.693   6.710   5.853
  734TIP3    H2 2167   2.791   6.595   5.853
  735TIP3   OH2 2168   5.690   6.023   4.921
  735TIP3    H1 2169   5.718   5.937   4.952
  735TIP3    H2 2170   5.595   6.017   4.914
  736TIP3   OH2 2171   0.434   6.474   1.093
  736TIP3    H1 2172   0.486   6.540   1.140
  736TIP3    H2 2173   0.345   6.509   1.094
  737TIP3   OH2 2174   2.973   6.174   4.257
  737TIP3    H1 2175   2.942   6.219   4.335
  737TIP3    H2 2176   2.941   6.085   4.266
  738TIP3   OH2 2177   3.495   0.301   2.781
  738TIP3    H1 2178   3.503   0.316   2.687
  738TIP3    H2 2179   3.405   0.327   2.802
  739TIP3   OH2 2180   2.278   4.575   3.783
  739TIP3    H1 2181   2.316   4.663   3.781
  739TIP3    H2 2182   2.255   4.557   3.692
  740TIP3   OH2 2183   4.398   2.602   2.617
  740TIP3    H1 2184   4.319   2.561   2.653
  740TIP3    H2 2185   4.365   2.665   2.553
  741TIP3   OH2 2186   1.212   6.546   4.964
  741TIP3    H1 2187   1.301   6.579   4.949
  741TIP3    H2 2188   1.160   6.589   4.897
  742TIP3   OH2 2189   5.921   5.404   1.351
  742TIP3    H1 2190   5.982   5.336   1.381
  742TIP3    H2 2191   5.861   5.358   1.292
  743TIP3   OH2 2192   5.093   4.057   3.022
  743TIP3    H1 2193   5.160   4.063   3.090
  743TIP3    H2 2194   5.117   4.125   2.959
  744TIP3   OH2 2195   6.068   0.038   1.904
  744TIP3    H1 2196   6.065   0.086   1.821
  744TIP3    H2 2197   5.985   0.057   1.946
  745TIP3   OH2 2198   6.729   5.741   2.572
  745TIP3    H1 2199   6.736   5.647   2.555
  745TIP3    H2 2200   6.661   5.748   2.638
  746TIP3   OH2 2201   0.676   2.072   2.853
  746TIP3    H1 2202   0.673   2.167   2.861
  746TIP3    H2 2203   0.712   2.042   2.937
  747TIP3   OH2 2204   2.708   5.787   0.519
  747TIP3    H1 2205   2.734   5.728   0.448
  747TIP3    H2 2206   2.679   5.867   0.474
  748TIP3   OH2 2207   5.913   5.189   5.033
  748TIP3    H1 2208   6.006   5.212   5.039
  748TIP3    H2 2209   5.887   5.219   4.946
  749TIP3   OH2 2210   5.187   2.928   3.898
  749TIP3    H1 2211   5.164   2.967   3.982
  749TIP3    H2 2212   5.171   2.834   3.911
  750TIP3   OH2 2213   6.247   5.851   2.765
  750TIP3    H1 2214   6.207   5.779   2.717
  750TIP3    H2 2215   6.295   5.901   2.699
  751TIP3   OH2 2216   5.237   1.171   1.845
  751TIP3    H1 2217   5.288   1.095   1.871
  751TIP3    H2 2218   5.188   1.141   1.768
  752TIP3   OH2 2219   2.402   2.137   3.449
  752TIP3    H1 2220   2.309   2.154   3.458
  752TIP3    H2 2221   2.408   2.046   3.420
  753TIP3   OH2 2222   1.191   4.396   4.783
  753TIP3    H1 2223   1.097   4.377   4.786
  753TIP3    H2 2224   1.196   4.490   4.766
  754TIP3   OH2 2225   2.882   1.263   4.310
  754TIP3    H1 2226   2.838   1.178   4.309
  754TIP3    H2 2227   2.813   1.325   4.335
  755TIP3   OH2 2228   1.947   1.006   2.526
  755TIP3    H1 2229   1.989   0.982   2.443
  755TIP3    H2 2230   1.883   0.937   2.542
  756TIP3   OH2 2231   3.517   6.613   4.620
  756TIP3    H1 2232   3.462   6.682   4.656
  756TIP3    H2 2233   3.477   6.532   4.653
  757TIP3   OH2 2234   5.956   4.333   1.211
  757TIP3    H1 2235   5.971   4.239   1.209
  757TIP3    H2 2236   6.043   4.371   1.221
  758TIP3   OH2 2237   3.710   4.722   0.300
  758TIP3    H1 2238   3.786   4.672   0.329
  758TIP3    H2 2239   3.728   4.744   0.209
  759TIP3   OH2 2240   6.703   1.682   3.066
  759TIP3    H1 2241   6.685   1.615   3.132
  759TIP3    H2 2242   6.790   1.660   3.032
  760TIP3   OH2 2243   5.093   6.754   4.435
  760TIP3    H1 2244   5.116   6.713   4.352
  760TIP3    H2 2245   5.162   6.726   4.495
  761TIP3   OH2 2246   2.894   0.678   3.940
  761TIP3    H1 2247   2.825   0.652   3.878
  761TIP3    H2 2248   2.897   0.607   4.003
  762TIP3   OH2 2249   4.565   3.571   1.383
  762TIP3    H1 2250   4.510   3.507   1.338
  762TIP3    H2 2251   4.617   3.519   1.445
  763TIP3   OH2 2252   2.532   2.566   4.093
  763TIP3    H1 2253   2.483   2.496   4.135
  763TIP3    H2 2254   2.550   2.629   4.163
  764TIP3   OH2 2255   4.904   1.955   0.741
  764TIP3    H1 2256   4.967   2.026   0.750
  764TIP3    H2 2257   4.854   1.976   0.662
  765TIP3   OH2 2258   3.462   6.264   3.986
  765TIP3    H1 2259   3.484   6.266   4.080
  765TIP3    H2 2260   3.476   6.354   3.956
  766TIP3   OH2 2261   3.500   3.775   4.281
  766TIP3    H1 2262   3.543   3.698   4.317
  766TIP3    H2 2263   3.412   3.774   4.319
  767TIP3   OH2 2264   0.851   5.838   4.599
  767TIP3    H1 2265   0.803   5.826   4.681
  767TIP3    H2 2266   0.887   5.927   4.605
  768TIP3   OH2 2267   4.938   5.157   5.207
  768TIP3    H1 2268   5.024   5.196   5.221
  768TIP3    H2 2269   4.902   5.145   5.295
  769TIP3   OH2 2270   0.216   4.427   0.144
  769TIP3    H1 2271   0.292   4.476   0.113
  769TIP3    H2 2272   0.240   4.398   0.233
  770TIP3   OH2 2273   2.636   4.843   5.318
  770TIP3    H1 2274   2.660   4.936   5.308
  770TIP3    H2 2275   2.639   4.828   5.412
  771TIP3   OH2 2276   1.459   1.088   4.519
  771TIP3    H1 2277   1.384   1.147   4.526
  771TIP3    H2 2278   1.470   1.075   4.425
  772TIP3   OH2 2279   1.073   4.338   2.779
  772TIP3    H1 2280   1.164   4.322   2.752
  772TIP3    H2 2281   1.038   4.251   2.799
  773TIP3   OH2 2282   5.943   6.236   3.595
  773TIP3    H1 2283   6.010   6.244   3.664
  773TIP3    H2 2284   5.938   6.142   3.578
  774TIP3   OH2 2285   5.859   3.832   0.931
  774TIP3    H1 2286   5.872   3.921   0.964
  774TIP3    H2 2287   5.875   3.838   0.837
  775TIP3   OH2 2288   6.226   5.187   5.265
  775TIP3    H1 2289   6.155   5.128   5.289
  775TIP3    H2 2290   6.202   5.219   5.178
  776TIP3   OH2 2291   2.487   1.482   1.085
  776TIP3    H1 2292   2.453   1.394   1.102
  776TIP3    H2 2293   2.575   1.467   1.049
  777TIP3   OH2 2294   2.575   3.489   1.757
  777TIP3    H1 2295   2.504   3.549   1.779
  777TIP3    H2 2296   2.545   3.403   1.787
  778TIP3   OH2 2297   2.492   2.648   2.562
  778TIP3    H1 2298   2.498   2.553   2.548
  778TIP3    H2 2299   2.581   2.674   2.586
  779TIP3   OH2 2300   2.229   0.505   4.081
  779TIP3    H1 2301   2.143   0.464   4.072
  779TIP3    H2 2302   2.216   0.595   4.050
  780TIP3   OH2 2303   2.691   1.805   4.219
  780TIP3    H1 2304   2.627   1.781   4.285
  780TIP3    H2 2305   2.705   1.725   4.168
  781TIP3   OH2 2306   1.227   2.540   2.585
  781TIP3    H1 2307   1.252   2.544   2.677
  781TIP3    H2 2308   1.258   2.623   2.548
  782TIP3   OH2 2309   3.705   4.753   3.466
  782TIP3    H1 2310   3.753   4.685   3.512
  782TIP3    H2 2311   3.636   4.707   3.418
  783TIP3   OH2 2312   3.698   0.902   0.114
  783TIP3    H1 2313   3.691   0.987   0.071
  783TIP3    H2 2314   3.698   0.839   0.042
  784TIP3   OH2 2315   5.416   6.716   1.840
  784TIP3    H1 2316   5.439   6.790   1.783
  784TIP3    H2 2317   5.394   6.645   1.779
  785TIP3   OH2 2318   3.406   0.363   4.100
  785TIP3    H1 2319   3.355   0.356   4.181
  785TIP3    H2 2320   3.491   0.326   4.122
  786TIP3   OH2 2321   2.598   5.820   3.311
  786TIP3    H1 2322   2.515   5.775   3.293
  786TIP3    H2 2323   2.605   5.886   3.242
  787TIP3   OH2 2324   0.806   4.639   3.769
  787TIP3    H1 2325   0.856   4.622   3.849
  787TIP3    H2 2326   0.807   4.556   3.722
  788TIP3   OH2 2327   4.809   1.157   5.885
  788TIP3    H1 2328   4.753   1.203   5.947
  788TIP3    H2 2329   4.877   1.116   5.939
  789TIP3   OH2 2330   4.808   3.485   3.970
  789TIP3    H1 2331   4.738   3.527   4.020
  789TIP3    H2 2332   4.766   3.409   3.929
  790TIP3   OH2 2333   2.350   1.348   4.290
  790TIP3    H1 2334   2.391   1.369   4.207
  790TIP3    H2 2335   2.259   1.328   4.268
  791TIP3   OH2 2336   0.887   0.677   5.369
  791TIP3    H1 2337   0.876   0.772   5.370
  791TIP3    H2 2338   0.914   0.655   5.459
  792TIP3   OH2 2339   2.926   0.277   5.784
  792TIP3    H1 2340   2.992   0.338   5.817
  792TIP3    H2 2341   2.977   0.205   5.746
  793TIP3   OH2 2342   5.233   4.437   0.432
  793TIP3    H1 2343   5.308   4.384   0.458
  793TIP3    H2 2344   5.212   4.487   0.511
  794TIP3   OH2 2345   6.142   4.080   5.507
  794TIP3    H1 2346   6.096   3.997   5.522
  794TIP3    H2 2347   6.140   4.124   5.593
  795TIP3   OH2 2348   6.432   5.633   4.810
  795TIP3    H1 2349   6.387   5.554   4.838
  795TIP3    H2 2350   6.401   5.701   4.871
  796TIP3   OH2 2351   1.004   0.985   3.977
  796TIP3    H1 2352   1.036   0.957   3.891
  796TIP3    H2 2353   0.910   0.966   3.976
  797TIP3   OH2 2354   1.180   5.185   3.989
  797TIP3    H1 2355   1.213   5.128   3.920
  797TIP3    H2 2356   1.200   5.273   3.959
  798TIP3   OH2 2357   7.212   3.590   1.977
  798TIP3    H1 2358   7.221   3.602   2.072
  798TIP3    H2 2359   7.187   3.676   1.944
  799TIP3   OH2 2360   6.387   6.484   4.551
  799TIP3    H1 2361   6.385   6.394   4.584
  799TIP3    H2 2362   6.475   6.494   4.514
  800TIP3   OH2 2363   4.692   6.199   0.305
  800TIP3    H1 2364   4.645   6.137   0.359
  800TIP3    H2 2365   4.780   6.202   0.343
  801TIP3   OH2 2366   5.502   4.941   4.780
  801TIP3    H1 2367   5.537   5.026   4.806
  801TIP3    H2 2368   5.484   4.896   4.863
  802TIP3   OH2 2369   3.494   1.933   0.283
  802TIP3    H1 2370   3.409   1.978   0.283
  802TIP3    H2 2371   3.477   1.851   0.330
  803TIP3   OH2 2372   2.781   5.353   4.790
  803TIP3    H1 2373   2.768   5.310   4.706
  803TIP3    H2 2374   2.725   5.431   4.786
  804TIP3   OH2 2375   5.841   5.728   2.496
  804TIP3    H1 2376   5.881   5.750   2.412
  804TIP3    H2 2377   5.815   5.812   2.533
  805TIP3   OH2 2378   5.863   5.448   1.012
  805TIP3    H1 2379   5.910   5.369   1.037
  805TIP3    H2 2380   5.875   5.454   0.917
  806TIP3   OH2 2381   1.288   5.429   3.329
  806TIP3    H1 2382   1.329   5.481   3.259
  806TIP3    H2 2383   1.352   5.361   3.349
  807TIP3   OH2 2384   0.879   0.270   1.503
  807TIP3    H1 2385   0.970   0.297   1.489
  807TIP3    H2 2386   0.841   0.342   1.554
  808TIP3   OH2 2387   5.903   4.803   2.545
  808TIP3    H1 2388   5.908   4.844   2.632
  808TIP3    H2 2389   5.931   4.871   2.485
  809TIP3   OH2 2390   3.618   3.840   5.644
  809TIP3    H1 2391   3.599   3.755   5.682
  809TIP3    H2 2392   3.713   3.843   5.636
  810TIP3   OH2 2393   5.817   4.406   3.606
  810TIP3    H1 2394   5.906   4.428   3.633
  810TIP3    H2 2395   5.770   4.490   3.610
  811TIP3   OH2 2396   6.585   4.647   5.590
  811TIP3    H1 2397   6.576   4.556   5.618
  811TIP3    H2 2398   6.603   4.695   5.670
  812TIP3   OH2 2399   1.115   1.651   0.528
  812TIP3    H1 2400   1.188   1.589   0.542
  812TIP3    H2 2401   1.134   1.723   0.588
  813TIP3   OH2 2402   4.711   5.035   0.186
  813TIP3    H1 2403   4.708   5.071   0.275
  813TIP3    H2 2404   4.624   5.052   0.150
  814TIP3   OH2 2405   2.613   5.689   1.882
  814TIP3    H1 2406   2.607   5.596   1.859
  814TIP3    H2 2407   2.534   5.728   1.845
  815TIP3   OH2 2408   1.432   2.175   5.269
  815TIP3    H1 2409   1.389   2.221   5.197
  815TIP3    H2 2410   1.388   2.207   5.348
  816TIP3   OH2 2411   6.084   1.043   4.697
  816TIP3    H1 2412   6.000   1.051   4.652
  816TIP3    H2 2413   6.071   0.970   4.759
  817TIP3   OH2 2414   4.464   3.168   1.070
  817TIP3    H1 2415   4.508   3.205   0.994
  817TIP3    H2 2416   4.517   3.195   1.144
  818TIP3   OH2 2417   6.617   3.144   3.723
  818TIP3    H1 2418   6.682   3.164   3.791
  818TIP3    H2 2419   6.639   3.055   3.695
  819TIP3   OH2 2420   6.752   0.146   4.981
  819TIP3    H1 2421   6.683   0.133   4.916
  819TIP3    H2 2422   6.789   0.231   4.960
  820TIP3   OH2 2423   6.532   0.188   2.468
  820TIP3    H1 2424   6.463   0.246   2.499
  820TIP3    H2 2425   6.613   0.232   2.491
  821TIP3   OH2 2426   0.175   2.495   2.906
  821TIP3    H1 2427   0.137   2.492   2.994
  821TIP3    H2 2428   0.111   2.543   2.854
  822TIP3   OH2 2429   4.186   1.703   3.354
  822TIP3    H1 2430   4.245   1.778   3.361
  822TIP3    H2 2431   4.118   1.732   3.294
  823TIP3   OH2 2432   5.580   0.991   0.659
  823TIP3    H1 2433   5.645   0.932   0.621
  823TIP3    H2 2434   5.610   1.078   0.635
  824TIP3   OH2 2435   2.051   3.098   0.519
  824TIP3    H1 2436   2.123   3.126   0.462
  824TIP3    H2 2437   1.990   3.053   0.460
  825TIP3   OH2 2438   5.422   3.328   3.667
  825TIP3    H1 2439   5.372   3.315   3.586
  825TIP3    H2 2440   5.390   3.260   3.726
  826TIP3   OH2 2441   3.057   4.312   5.529
  826TIP3    H1 2442   3.077   4.236   5.474
  826TIP3    H2 2443   3.050   4.385   5.467
  827TIP3   OH2 2444   6.731   5.759   2.241
  827TIP3    H1 2445   6.776   5.843   2.255
  827TIP3    H2 2446   6.667   5.777   2.173
  828TIP3   OH2 2447   5.547   4.940   2.743
  828TIP3    H1 2448   5.599   4.905   2.815
  828TIP3    H2 2449   5.473   4.982   2.784
  829TIP3   OH2 2450   4.629   2.644   5.854
  829TIP3    H1 2451   4.702   2.627   5.794
  829TIP3    H2 2452   4.636   2.737   5.874
  830TIP3   OH2 2453   6.236   2.017   1.754
  830TIP3    H1 2454   6.190   2.101   1.757
  830TIP3    H2 2455   6.209   1.972   1.835
  831TIP3   OH2 2456   1.259   0.928   1.669
  831TIP3    H1 2457   1.253   0.988   1.596
  831TIP3    H2 2458   1.248   0.841   1.630
  832TIP3   OH2 2459   5.698   5.861   3.775
  832TIP3    H1 2460   5.751   5.805   3.831
  832TIP3    H2 2461   5.707   5.824   3.687
  833TIP3   OH2 2462   3.776   1.776   5.764
  833TIP3    H1 2463   3.848   1.721   5.733
  833TIP3    H2 2464   3.701   1.751   5.709
  834TIP3   OH2 2465   5.979   5.683   1.160
  834TIP3    H1 2466   5.936   5.600   1.139
  834TIP3    H2 2467   6.035   5.701   1.084
  835TIP3   OH2 2468   5.003   0.644   0.463
  835TIP3    H1 2469   5.058   0.693   0.402
  835TIP3    H2 2470   4.914   0.651   0.427
  836TIP3   OH2 2471   4.402   1.145   3.136
  836TIP3    H1 2472   4.458   1.215   3.169
  836TIP3    H2 2473   4.460   1.088   3.086
  837TIP3   OH2 2474   2.936   1.604   0.553
  837TIP3    H1 2475   2.881   1.597   0.631
  837TIP3    H2 2476   2.966   1.515   0.536
  838TIP3   OH2 2477   2.591   5.337   5.864
  838TIP3    H1 2478   2.629   5.380   5.787
  838TIP3    H2 2479   2.505   5.307   5.836
  839TIP3   OH2 2480   0.951   2.152   1.571
  839TIP3    H1 2481   0.892   2.165   1.645
  839TIP3    H2 2482   0.912   2.080   1.521
  840TIP3   OH2 2483   3.928   3.311   5.804
  840TIP3    H1 2484   3.955   3.326   5.894
  840TIP3    H2 2485   3.838   3.342   5.801
  841TIP3   OH2 2486   7.046   3.640   3.331
  841TIP3    H1 2487   7.131   3.684   3.332
  841TIP3    H2 2488   7.037   3.604   3.419
  842TIP3   OH2 2489   1.237   3.433   0.248
  842TIP3    H1 2490   1.253   3.354   0.299
  842TIP3    H2 2491   1.302   3.496   0.279
  843TIP3   OH2 2492   2.528   1.767   5.245
  843TIP3    H1 2493   2.539   1.707   5.172
  843TIP3    H2 2494   2.582   1.729   5.315
  844TIP3   OH2 2495   3.695   3.488   2.329
  844TIP3    H1 2496   3.634   3.534   2.386
  844TIP3    H2 2497   3.776   3.484   2.379
  845TIP3   OH2 2498   6.733   3.555   1.772
  845TIP3    H1 2499   6.812   3.513   1.807
  845TIP3    H2 2500   6.661   3.509   1.816
  846TIP3   OH2 2501   4.213   0.714   3.137
  846TIP3    H1 2502   4.118   0.723   3.145
  846TIP3    H2 2503   4.243   0.803   3.117
  847TIP3   OH2 2504   1.496   4.832   4.935
  847TIP3    H1 2505   1.525   4.887   4.863
  847TIP3    H2 2506   1.426   4.882   4.977
  848TIP3   OH2 2507   2.506   5.188   4.981
  848TIP3    H1 2508   2.498   5.283   4.975
  848TIP3    H2 2509   2.599   5.173   4.999
  849TIP3   OH2 2510   0.368   5.308   4.840
  849TIP3    H1 2511   0.316   5.267   4.771
  849TIP3    H2 2512   0.439   5.246   4.857
  850TIP3   OH2 2513   5.790   3.533   2.507
  850TIP3    H1 2514   5.809   3.440   2.522
  850TIP3    H2 2515   5.752   3.535   2.419
  851TIP3   OH2 2516   7.016   4.161   1.869
  851TIP3    H1 2517   6.969   4.239   1.899
  851TIP3    H2 2518   7.109   4.182   1.883
  852TIP3   OH2 2519   2.602   1.053   5.246
  852TIP3    H1 2520   2.618   1.006   5.327
  852TIP3    H2 2521   2.665   1.016   5.184
  853TIP3   OH2 2522   0.593   0.036   0.209
  853TIP3    H1 2523   0.571  -0.030   0.275
  853TIP3    H2 2524   0.680   0.068   0.234
  854TIP3   OH2 2525   2.614   5.423   0.522
  854TIP3    H1 2526   2.608   5.329   0.504
  854TIP3    H2 2527   2.606   5.465   0.437
  855TIP3   OH2 2528   5.408   2.005   3.591
  855TIP3    H1 2529   5.323   1.962   3.577
  855TIP3    H2 2530   5.471   1.933   3.593
  856TIP3   OH2 2531   5.969   6.410   2.445
  856TIP3    H1 2532   5.901   6.380   2.384
  856TIP3    H2 2533   6.011   6.330   2.477
  857TIP3   OH2 2534   4.474   2.024   0.033
  857TIP3    H1 2535   4.553   1.971   0.031
  857TIP3    H2 2536   4.407   1.969  -0.007
  858TIP3   OH2 2537   0.353   4.896   0.133
  858TIP3    H1 2538   0.384   4.806   0.142
  858TIP3    H2 2539   0.394   4.927   0.052
  859TIP3   OH2 2540   1.846   5.553   2.952
  859TIP3    H1 2541   1.812   5.574   2.865
  859TIP3    H2 2542   1.928   5.507   2.935
  860TIP3   OH2 2543   4.642   0.369   4.586
  860TIP3    H1 2544   4.692   0.305   4.637
  860TIP3    H2 2545   4.678   0.363   4.497
  861TIP3   OH2 2546   1.442   3.811   2.980
  861TIP3    H1 2547   1.419   3.852   3.063
  861TIP3    H2 2548   1.491   3.733   3.005
  862TIP3   OH2 2549   0.961   6.790   4.442
  862TIP3    H1 2550   0.965   6.702   4.478
  862TIP3    H2 2551   0.898   6.836   4.498
  863TIP3   OH2 2552   5.209   0.221   4.626
  863TIP3    H1 2553   5.188   0.167   4.702
  863TIP3    H2 2554   5.177   0.308   4.648
  864TIP3   OH2 2555   3.093   0.906   2.352
  864TIP3    H1 2556   3.075   0.859   2.270
  864TIP3    H2 2557   3.016   0.888   2.407
  865TIP3   OH2 2558   2.815   4.326   1.329
  865TIP3    H1 2559   2.799   4.381   1.406
  865TIP3    H2 2560   2.766   4.368   1.258
  866TIP3   OH2 2561   5.366   2.391   5.904
  866TIP3    H1 2562   5.394   2.333   5.834
  866TIP3    H2 2563   5.425   2.466   5.899
  867TIP3   OH2 2564   2.488   3.396   3.287
  867TIP3    H1 2565   2.493   3.314   3.337
  867TIP3    H2 2566   2.534   3.460   3.342
  868TIP3   OH2 2567   2.251   4.185   2.104
  868TIP3    H1 2568   2.310   4.232   2.163
  868TIP3    H2 2569   2.280   4.210   2.017
  869TIP3   OH2 2570   1.538   1.758   2.934
  869TIP3    H1 2571   1.519   1.782   3.025
  869TIP3    H2 2572   1.453   1.763   2.890
  870TIP3   OH2 2573   5.407   2.177   2.284
  870TIP3    H1 2574   5.396   2.155   2.376
  870TIP3    H2 2575   5.435   2.269   2.284
  871TIP3   OH2 2576   3.321   1.405   0.208
  871TIP3    H1 2577   3.400   1.444   0.171
  871TIP3    H2 2578   3.262   1.479   0.222
  872TIP3   OH2 2579   3.107   5.619   2.209
  872TIP3    H1 2580   3.195   5.584   2.219
  872TIP3    H2 2581   3.117   5.714   2.219
  873TIP3   OH2 2582   3.931   5.571   4.782
  873TIP3    H1 2583   3.870   5.645   4.794
  873TIP3    H2 2584   3.992   5.601   4.715
  874TIP3   OH2 2585   4.071   5.588   4.410
  874TIP3    H1 2586   4.055   5.671   4.365
  874TIP3    H2 2587   4.130   5.610   4.482
  875TIP3   OH2 2588   2.319   4.740   3.324
  875TIP3    H1 2589   2.395   4.765   3.271
  875TIP3    H2 2590   2.263   4.817   3.324
  876TIP3   OH2 2591   4.135   0.840   3.560
  876TIP3    H1 2592   4.149   0.933   3.577
  876TIP3    H2 2593   4.042   0.834   3.536
  877TIP3   OH2 2594   6.254   3.098   2.263
  877TIP3    H1 2595   6.287   3.184   2.291
  877TIP3    H2 2596   6.169   3.090   2.305
  878TIP3   OH2 2597   0.428   5.408   0.918
  878TIP3    H1 2598   0.405   5.377   0.830
  878TIP3    H2 2599   0.368   5.362   0.977
  879TIP3   OH2 2600   6.836   0.406   4.895
  879TIP3    H1 2601   6.767   0.472   4.902
  879TIP3    H2 2602   6.917   0.453   4.918
  880TIP3   OH2 2603   5.505   0.687   1.884
  880TIP3    H1 2604   5.439   0.626   1.917
  880TIP3    H2 2605   5.547   0.639   1.812
  881TIP3   OH2 2606   1.876   0.835   4.684
  881TIP3    H1 2607   1.801   0.775   4.681
  881TIP3    H2 2608   1.928   0.812   4.607
  882TIP3   OH2 2609   1.106   6.007   2.220
  882TIP3    H1 2610   1.040   5.983   2.286
  882TIP3    H2 2611   1.133   5.923   2.183
  883TIP3   OH2 2612   0.167   5.073   4.249
  883TIP3    H1 2613   0.214   5.156   4.237
  883TIP3    H2 2614   0.075   5.098   4.254
  884TIP3   OH2 2615   4.284   4.362   3.202
  884TIP3    H1 2616   4.277   4.268   3.217
  884TIP3    H2 2617   4.212   4.383   3.143
  885TIP3   OH2 2618   6.800   1.011   1.540
  885TIP3    H1 2619   6.760   1.093   1.570
  885TIP3    H2 2620   6.764   0.997   1.453
  886TIP3   OH2 2621   6.977   1.990   1.987
  886TIP3    H1 2622   6.911   2.058   1.994
  886TIP3    H2 2623   6.931   1.909   2.011
  887TIP3   OH2 2624   6.285   2.943   4.012
  887TIP3    H1 2625   6.245   2.877   4.069
  887TIP3    H2 2626   6.210   2.988   3.972
  888TIP3   OH2 2627   6.078   3.179   4.831
  888TIP3    H1 2628   6.054   3.193   4.923
  888TIP3    H2 2629   6.174   3.190   4.830
  889TIP3   OH2 2630   6.804   5.677   1.716
  889TIP3    H1 2631   6.812   5.768   1.689
  889TIP3    H2 2632   6.710   5.659   1.715
  890TIP3   OH2 2633   1.606   3.523   3.693
  890TIP3    H1 2634   1.556   3.573   3.758
  890TIP3    H2 2635   1.542   3.500   3.626
  891TIP3   OH2 2636   2.080   1.007   4.128
  891TIP3    H1 2637   2.040   0.999   4.215
  891TIP3    H2 2638   2.068   1.098   4.104
  892TIP3   OH2 2639   1.447   0.081   2.761
  892TIP3    H1 2640   1.536   0.089   2.728
  892TIP3    H2 2641   1.445  -0.003   2.806
  893TIP3   OH2 2642   0.688   3.667   4.614
  893TIP3    H1 2643   0.641   3.584   4.614
  893TIP3    H2 2644   0.764   3.652   4.558
  894TIP3   OH2 2645   6.329   1.571   2.459
  894TIP3    H1 2646   6.275   1.506   2.415
  894TIP3    H2 2647   6.321   1.650   2.406
  895TIP3   OH2 2648   3.944   5.153   5.645
  895TIP3    H1 2649   3.883   5.099   5.694
  895TIP3    H2 2650   4.019   5.096   5.628
  896TIP3   OH2 2651   0.397   0.164   3.358
  896TIP3    H1 2652   0.409   0.169   3.453
  896TIP3    H2 2653   0.481   0.191   3.322
  897TIP3   OH2 2654   2.917   4.767   3.861
  897TIP3    H1 2655   2.855   4.750   3.791
  897TIP3    H2 2656   2.926   4.683   3.906
  898TIP3   OH2 2657   4.401   0.606   2.756
  898TIP3    H1 2658   4.425   0.552   2.831
  898TIP3    H2 2659   4.485   0.624   2.712
  899TIP3   OH2 2660   6.219   1.882   1.317
  899TIP3    H1 2661   6.257   1.968   1.333
  899TIP3    H2 2662   6.209   1.843   1.403
  900TIP3   OH2 2663   6.417   5.316   2.096
  900TIP3    H1 2664   6.490   5.373   2.121
  900TIP3    H2 2665   6.422   5.311   2.001
  901TIP3   OH2 2666   4.879   0.740   1.093
  901TIP3    H1 2667   4.967   0.721   1.126
  901TIP3    H2 2668   4.821   0.723   1.166
  902TIP3   OH2 2669   3.095   0.068   5.741
  902TIP3    H1 2670   3.176   0.049   5.788
  902TIP3    H2 2671   3.048  -0.016   5.737
  903TIP3   OH2 2672   0.894   5.844   4.338
  903TIP3    H1 2673   0.842   5.776   4.295
  903TIP3    H2 2674   0.898   5.816   4.429
  904TIP3   OH2 2675   4.722   0.689   4.970
  904TIP3    H1 2676   4.738   0.654   5.058
  904TIP3    H2 2677   4.673   0.770   4.985
  905TIP3   OH2 2678   3.241   2.923   1.900
  905TIP3    H1 2679   3.203   2.972   1.827
  905TIP3    H2 2680   3.304   2.863   1.859
  906TIP3   OH2 2681   0.792   0.875   2.247
  906TIP3    H1 2682   0.748   0.864   2.331
  906TIP3    H2 2683   0.840   0.957   2.255
  907TIP3   OH2 2684   2.926   3.285   1.827
  907TIP3    H1 2685   2.908   3.256   1.737
  907TIP3    H2 2686   2.949   3.205   1.874
  908TIP3   OH2 2687   7.103   3.194   3.424
  908TIP3    H1 2688   7.087   3.264   3.361
  908TIP3    H2 2689   7.068   3.116   3.382
  909TIP3   OH2 2690   5.939   3.571   3.370
  909TIP3    H1 2691   5.861   3.622   3.388
  909TIP3    H2 2692   5.996   3.585   3.446
  910TIP3   OH2 2693   1.636   6.758   4.132
  910TIP3    H1 2694   1.612   6.834   4.080
  910TIP3    H2 2695   1.564   6.746   4.194
  911TIP3   OH2 2696   4.945   5.419   4.015
  911TIP3    H1 2697   4.853   5.394   4.002
  911TIP3    H2 2698   4.976   5.441   3.928
  912TIP3   OH2 2699   0.531   6.701   2.874
  912TIP3    H1 2700   0.438   6.711   2.891
  912TIP3    H2 2701   0.573   6.713   2.959
  913TIP3   OH2 2702   5.128   5.925   2.767
  913TIP3    H1 2703   5.038   5.944   2.793
  913TIP3    H2 2704   5.156   5.856   2.827
  914TIP3   OH2 2705   6.805   3.146   3.232
  914TIP3    H1 2706   6.794   3.214   3.166
  914TIP3    H2 2707   6.770   3.185   3.312
  915TIP3   OH2 2708   3.095   4.878   0.780
  915TIP3    H1 2709   3.112   4.930   0.701
  915TIP3    H2 2710   3.050   4.939   0.839
  916TIP3   OH2 2711   5.577   0.222   0.224
  916TIP3    H1 2712   5.619   0.140   0.251
  916TIP3    H2 2713   5.497   0.194   0.179
  917TIP3   OH2 2714   4.402   4.707   3.186
  917TIP3    H1 2715   4.313   4.742   3.177
  917TIP3    H2 2716   4.393   4.614   3.165
  918TIP3   OH2 2717   6.033   3.032   5.804
  918TIP3    H1 2718   5.985   3.013   5.885
  918TIP3    H2 2719   5.973   3.007   5.734
  919TIP3   OH2 2720   1.900   4.272   0.863
  919TIP3    H1 2721   1.968   4.210   0.837
  919TIP3    H2 2722   1.931   4.307   0.947
  920TIP3   OH2 2723   6.898   0.299   4.654
  920TIP3    H1 2724   6.991   0.279   4.654
  920TIP3    H2 2725   6.878   0.326   4.743
  921TIP3   OH2 2726   6.315   3.728   3.037
  921TIP3    H1 2727   6.253   3.768   3.098
  921TIP3    H2 2728   6.287   3.637   3.031
  922TIP3   OH2 2729   4.220   3.949   3.499
  922TIP3    H1 2730   4.155   3.907   3.556
  922TIP3    H2 2731   4.208   3.907   3.414
  923TIP3   OH2 2732   4.038   3.454   1.492
  923TIP3    H1 2733   4.069   3.524   1.549
  923TIP3    H2 2734   4.094   3.379   1.512
  924TIP3   OH2 2735   3.326   3.541   1.002
  924TIP3    H1 2736   3.318   3.473   0.934
  924TIP3    H2 2737   3.415   3.532   1.035
  925TIP3   OH2 2738   0.929   2.551   4.947
  925TIP3    H1 2739   0.953   2.587   5.033
  925TIP3    H2 2740   0.878   2.473   4.969
  926TIP3   OH2 2741   6.358   6.657   2.172
  926TIP3    H1 2742   6.265   6.637   2.180
  926TIP3    H2 2743   6.392   6.647   2.261
  927TIP3   OH2 2744   2.005   6.003   3.760
  927TIP3    H1 2745   2.026   5.914   3.786
  927TIP3    H2 2746   1.961   5.993   3.675
  928TIP3   OH2 2747   5.719   4.191   3.059
  928TIP3    H1 2748   5.762   4.273   3.083
  928TIP3    H2 2749   5.639   4.219   3.015
  929TIP3   OH2 2750   6.337   5.584   4.331
  929TIP3    H1 2751   6.317   5.596   4.423
  929TIP3    H2 2752   6.432   5.576   4.327
  930TIP3   OH2 2753   5.296   5.242   0.692
  930TIP3    H1 2754   5.268   5.150   0.694
  930TIP3    H2 2755   5.351   5.252   0.769
  931TIP3   OH2 2756   3.388   6.479   0.955
  931TIP3    H1 2757   3.376   6.565   0.915
  931TIP3    H2 2758   3.426   6.498   1.041
  932TIP3   OH2 2759   6.593   6.093   5.506
  932TIP3    H1 2760   6.674   6.144   5.513
  932TIP3    H2 2761   6.619   6.003   5.526
  933TIP3   OH2 2762   6.870   2.638   5.820
  933TIP3    H1 2763   6.799   2.590   5.863
  933TIP3    H2 2764   6.905   2.576   5.756
  934TIP3   OH2 2765   5.261   6.534   5.445
  934TIP3    H1 2766   5.322   6.461   5.454
  934TIP3    H2 2767   5.204   6.527   5.522
  935TIP3   OH2 2768   5.732   5.410   1.678
  935TIP3    H1 2769   5.703   5.372   1.596
  935TIP3    H2 2770   5.656   5.460   1.709
  936TIP3   OH2 2771   1.855   1.660   1.290
  936TIP3    H1 2772   1.842   1.694   1.378
  936TIP3    H2 2773   1.821   1.570   1.293
  937TIP3   OH2 2774   2.804   2.466   3.261
  937TIP3    H1 2775   2.874   2.447   3.323
  937TIP3    H2 2776   2.726   2.423   3.298
  938TIP3   OH2 2777   0.794   0.205   0.606
  938TIP3    H1 2778   0.777   0.299   0.608
  938TIP3    H2 2779   0.709   0.165   0.585
  939TIP3   OH2 2780   0.541   6.582   0.631
  939TIP3    H1 2781   0.522   6.526   0.707
  939TIP3    H2 2782   0.474   6.650   0.635
  940TIP3   OH2 2783   4.860   1.566   5.243
  940TIP3    H1 2784   4.775   1.548   5.202
  940TIP3    H2 2785   4.924   1.546   5.176
  941TIP3   OH2 2786   0.704   4.000   5.135
  941TIP3    H1 2787   0.730   3.977   5.224
  941TIP3    H2 2788   0.654   4.081   5.145
  942TIP3   OH2 2789   7.181   6.510   5.544
  942TIP3    H1 2790   7.153   6.432   5.591
  942TIP3    H2 2791   7.260   6.483   5.497
  943TIP3   OH2 2792   0.867   3.817   5.601
  943TIP3    H1 2793   0.915   3.885   5.648
  943TIP3    H2 2794   0.934   3.758   5.567
  944TIP3   OH2 2795   3.090   6.589   0.089
  944TIP3    H1 2796   3.016   6.552   0.041
  944TIP3    H2 2797   3.113   6.668   0.041
  945TIP3   OH2 2798   4.222   4.468   3.455
  945TIP3    H1 2799   4.205   4.383   3.495
  945TIP3    H2 2800   4.262   4.448   3.370
  946TIP3   OH2 2801   4.553   5.440   3.188
  946TIP3    H1 2802   4.514   5.353   3.198
  946TIP3    H2 2803   4.528   5.467   3.099
  947TIP3   OH2 2804   2.499   2.802   0.669
  947TIP3    H1 2805   2.451   2.884   0.654
  947TIP3    H2 2806   2.587   2.830   0.693
  948TIP3   OH2 2807   3.802   4.532   1.507
  948TIP3    H1 2808   3.776   4.599   1.444
  948TIP3    H2 2809   3.817   4.580   1.588
  949TIP3   OH2 2810   7.070   6.581   2.707
  949TIP3    H1 2811   7.012   6.523   2.658
  949TIP3    H2 2812   7.020   6.662   2.719
  950TIP3   OH2 2813   4.355   1.379   1.151
  950TIP3    H1 2814   4.420   1.344   1.090
  950TIP3    H2 2815   4.358   1.474   1.137
  951TIP3   OH2 2816   2.134   3.334   1.738
  951TIP3    H1 2817   2.092   3.295   1.815
  951TIP3    H2 2818   2.133   3.264   1.672
  952TIP3   OH2 2819   0.615   5.526   0.324
  952TIP3    H1 2820   0.572   5.573   0.395
  952TIP3    H2 2821   0.709   5.532   0.344
  953TIP3   OH2 2822   0.206   0.344   5.741
  953TIP3    H1 2823   0.262   0.409   5.782
  953TIP3    H2 2824   0.235   0.341   5.650
  954TIP3   OH2 2825   1.000   0.473   4.128
  954TIP3    H1 2826   1.008   0.568   4.117
  954TIP3    H2 2827   1.073   0.438   4.077
  955TIP3   OH2 2828   6.345   6.341   1.492
  955TIP3    H1 2829   6.312   6.431   1.491
  955TIP3    H2 2830   6.410   6.338   1.422
  956TIP3   OH2 2831   1.095   2.271   3.584
  956TIP3    H1 2832   1.045   2.201   3.542
  956TIP3    H2 2833   1.157   2.300   3.518
  957TIP3   OH2 2834   3.962   1.353   4.094
  957TIP3    H1 2835   4.040   1.333   4.145
  957TIP3    H2 2836   3.924   1.430   4.135
  958TIP3   OH2 2837   3.855   0.622   4.654
  958TIP3    H1 2838   3.772   0.667   4.646
  958TIP3    H2 2839   3.921   0.692   4.654
  959TIP3   OH2 2840   1.804   6.054   4.478
  959TIP3    H1 2841   1.861   6.120   4.439
  959TIP3    H2 2842   1.863   5.998   4.529
  960TIP3   OH2 2843   2.046   3.017   2.857
  960TIP3    H1 2844   1.991   3.094   2.871
  960TIP3    H2 2845   2.027   2.989   2.767
  961TIP3   OH2 2846   3.285   4.592   3.453
  961TIP3    H1 2847   3.227   4.666   3.437
  961TIP3    H2 2848   3.294   4.589   3.548
  962TIP3   OH2 2849   0.263   0.634   2.389
  962TIP3    H1 2850   0.206   0.632   2.312
  962TIP3    H2 2851   0.349   0.607   2.357
  963TIP3   OH2 2852   2.227   5.592   0.977
  963TIP3    H1 2853   2.256   5.577   0.887
  963TIP3    H2 2854   2.245   5.685   0.991
  964TIP3   OH2 2855   6.142   5.146   1.737
  964TIP3    H1 2856   6.158   5.158   1.830
  964TIP3    H2 2857   6.227   5.164   1.696
  965TIP3   OH2 2858   5.708   4.759   5.139
  965TIP3    H1 2859   5.669   4.806   5.213
  965TIP3    H2 2860   5.639   4.699   5.110
  966TIP3   OH2 2861   3.539   0.346   1.930
  966TIP3    H1 2862   3.526   0.307   2.017
  966TIP3    H2 2863   3.456   0.332   1.884
  967TIP3   OH2 2864   3.189   6.807   5.140
  967TIP3    H1 2865   3.213   6.851   5.221
  967TIP3    H2 2866   3.095   6.791   5.149
  968TIP3   OH2 2867   1.472   5.347   4.937
  968TIP3    H1 2868   1.394   5.354   4.882
  968TIP3    H2 2869   1.439   5.360   5.026
  969TIP3   OH2 2870   3.313   0.123   1.870
  969TIP3    H1 2871   3.294   0.093   1.781
  969TIP3    H2 2872   3.287   0.215   1.870
  970TIP3   OH2 2873   1.126   1.288   3.233
  970TIP3    H1 2874   1.084   1.352   3.176
  970TIP3    H2 2875   1.118   1.325   3.321
  971TIP3   OH2 2876   1.073   1.336   3.502
  971TIP3    H1 2877   1.063   1.419   3.549
  971TIP3    H2 2878   1.128   1.283   3.559
  972TIP3   OH2 2879   1.843   2.091   2.001
  972TIP3    H1 2880   1.757   2.124   2.028
  972TIP3    H2 2881   1.824   2.032   1.928
  973TIP3   OH2 2882   6.382   6.032   2.093
  973TIP3    H1 2883   6.366   6.092   2.020
  973TIP3    H2 2884   6.433   5.960   2.054
  974TIP3   OH2 2885   3.271   5.232   0.519
  974TIP3    H1 2886   3.201   5.260   0.461
  974TIP3    H2 2887   3.292   5.310   0.571
  975TIP3   OH2 2888   1.110   3.843   1.038
  975TIP3    H1 2889   1.180   3.883   1.090
  975TIP3    H2 2890   1.044   3.911   1.029
  976TIP3   OH2 2891   6.059   3.474   5.585
  976TIP3    H1 2892   5.969   3.443   5.574
  976TIP3    H2 2893   6.078   3.523   5.505
  977TIP3   OH2 2894   3.030   5.689   1.732
  977TIP3    H1 2895   3.022   5.618   1.796
  977TIP3    H2 2896   2.940   5.717   1.715
  978TIP3   OH2 2897   4.750   4.821   1.400
  978TIP3    H1 2898   4.685   4.751   1.396
  978TIP3    H2 2899   4.713   4.884   1.462
  979TIP3   OH2 2900   4.120   5.855   1.214
  979TIP3    H1 2901   4.040   5.851   1.266
  979TIP3    H2 2902   4.117   5.940   1.171
  980TIP3   OH2 2903   5.073   0.124   5.538
  980TIP3    H1 2904   5.052   0.197   5.595
  980TIP3    H2 2905   5.023   0.051   5.573
  981TIP3   OH2 2906   3.026   4.010   4.506
  981TIP3    H1 2907   3.028   4.040   4.415
  981TIP3    H2 2908   2.942   4.042   4.540
  982TIP3   OH2 2909   0.401   0.880   3.498
  982TIP3    H1 2910   0.427   0.877   3.406
  982TIP3    H2 2911   0.472   0.834   3.545
  983TIP3   OH2 2912   1.828   4.707   1.962
  983TIP3    H1 2913   1.756   4.648   1.942
  983TIP3    H2 2914   1.868   4.671   2.042
  984TIP3   OH2 2915   3.755   1.032   3.945
  984TIP3    H1 2916   3.712   1.002   3.865
  984TIP3    H2 2917   3.809   1.105   3.918
  985TIP3   OH2 2918   3.206   6.720   4.595
  985TIP3    H1 2919   3.222   6.626   4.582
  985TIP3    H2 2920   3.141   6.723   4.665
  986TIP3   OH2 2921   1.288   5.926   1.761
  986TIP3    H1 2922   1.228   5.946   1.833
  986TIP3    H2 2923   1.265   5.838   1.734
  987TIP3   OH2 2924   2.946   2.473   4.641
  987TIP3    H1 2925   3.039   2.474   4.617
  987TIP3    H2 2926   2.905   2.412   4.580
  988TIP3   OH2 2927   7.199   4.312   4.005
  988TIP3    H1 2928   7.206   4.377   4.075
  988TIP3    H2 2929   7.146   4.242   4.042
  989TIP3   OH2 2930   5.547   3.881   1.384
  989TIP3    H1 2931   5.513   3.969   1.405
  989TIP3    H2 2932   5.631   3.898   1.342
  990TIP3   OH2 2933   4.354   4.659   5.324
  990TIP3    H1 2934   4.383   4.702   5.405
  990TIP3    H2 2935   4.307   4.581   5.353
  991TIP3   OH2 2936   2.912   6.833   2.676
  991TIP3    H1 2937   2.889   6.879   2.757
  991TIP3    H2 2938   2.953   6.752   2.705
  992TIP3   OH2 2939   2.179   2.971   1.636
  992TIP3    H1 2940   2.149   3.048   1.588
  992TIP3    H2 2941   2.155   2.897   1.580
  993TIP3   OH2 2942   3.152   6.428   3.281
  993TIP3    H1 2943   3.181   6.383   3.202
  993TIP3    H2 2944   3.139   6.518   3.254
  994TIP3   OH2 2945   1.883   5.113   1.603
  994TIP3    H1 2946   1.804   5.164   1.583
  994TIP3    H2 2947   1.864   5.071   1.686
  995TIP3   OH2 2948   5.582   0.566   1.012
  995TIP3    H1 2949   5.619   0.593   1.095
  995TIP3    H2 2950   5.568   0.471   1.022
  996TIP3   OH2 2951   1.534   4.567   3.099
  996TIP3    H1 2952   1.501   4.640   3.153
  996TIP3    H2 2953   1.627   4.586   3.088
  997TIP3   OH2 2954   5.135   2.492   5.777
  997TIP3    H1 2955   5.215   2.441   5.787
  997TIP3    H2 2956   5.164   2.575   5.741
  998TIP3   OH2 2957   5.468   1.926   5.657
  998TIP3    H1 2958   5.548   1.955   5.613
  998TIP3    H2 2959   5.497   1.898   5.744
  999TIP3   OH2 2960   4.263   0.686   0.200
  999TIP3    H1 2961   4.213   0.757   0.160
  999TIP3    H2 2962   4.210   0.658   0.274
 1000TIP3   OH2 2963   0.905   6.812   1.011
 1000TIP3    H1 2964   0.909   6.832   1.105
 1000TIP3    H2 2965   0.861   6.727   1.007
 1001TIP3   OH2 2966   6.055   1.148   0.344
 1001TIP3    H1 2967   6.042   1.057   0.369
 1001TIP3    H2 2968   6.101   1.143   0.260
 1002TIP3   OH2 2969   0.227   3.281   4.491
 1002TIP3    H1 2970   0.224   3.369   4.529
 1002TIP3    H2 2971   0.146   3.273   4.442
 1003TIP3   OH2 2972   4.541   3.402   5.487
 1003TIP3    H1 2973   4.497   3.329   5.443
 1003TIP3    H2 2974   4.575   3.456   5.416
 1004TIP3   OH2 2975   4.274   5.591   0.669
 1004TIP3    H1 2976   4.196   5.618   0.621
 1004TIP3    H2 2977   4.247   5.593   0.761
 1005TIP3   OH2 2978   3.988   1.614   3.577
 1005TIP3    H1 2979   4.048   1.644   3.509
 1005TIP3    H2 2980   3.901   1.632   3.541
 1006TIP3   OH2 2981   1.606   6.298   0.779
 1006TIP3    H1 2982   1.550   6.264   0.849
 1006TIP3    H2 2983   1.695   6.285   0.810
 1007TIP3   OH2 2984   2.358   2.101   4.584
 1007TIP3    H1 2985   2.355   2.152   4.504
 1007TIP3    H2 2986   2.394   2.016   4.556
 1008TIP3   OH2 2987   2.664   4.199   0.363
 1008TIP3    H1 2988   2.665   4.170   0.455
 1008TIP3    H2 2989   2.745   4.249   0.353
 1009TIP3   OH2 2990   0.364   4.155   1.592
 1009TIP3    H1 2991   0.460   4.158   1.590
 1009TIP3    H2 2992   0.337   4.209   1.519
 1010TIP3   OH2 2993   4.476   6.559   1.108
 1010TIP3    H1 2994   4.433   6.632   1.152
 1010TIP3    H2 2995   4.479   6.490   1.174
 1011TIP3   OH2 2996   2.712   1.979   3.241
 1011TIP3    H1 2997   2.797   2.009   3.209
 1011TIP3    H2 2998   2.713   2.002   3.334
 1012TIP3   OH2 2999   6.059   1.790   4.595
 1012TIP3    H1 3000   6.059   1.730   4.670
 1012TIP3    H2 3001   5.981   1.766   4.545
 1013TIP3   OH2 3002   4.727   0.097   4.317
 1013TIP3    H1 3003   4.735   0.070   4.409
 1013TIP3    H2 3004   4.815   0.127   4.293
 1014TIP3   OH2 3005   4.966   1.183   0.906
 1014TIP3    H1 3006   4.900   1.114   0.917
 1014TIP3    H2 3007   4.986   1.182   0.812
 1015TIP3   OH2 3008   6.818   3.503   0.482
 1015TIP3    H1 3009   6.743   3.537   0.531
 1015TIP3    H2 3010   6.846   3.426   0.532
 1016TIP3   OH2 3011   1.805   3.794   3.052
 1016TIP3    H1 3012   1.809   3.727   2.983
 1016TIP3    H2 3013   1.822   3.746   3.133
 1017TIP3   OH2 3014   1.618   6.744   2.650
 1017TIP3    H1 3015   1.600   6.712   2.738
 1017TIP3    H2 3016   1.664   6.671   2.608
 1018TIP3   OH2 3017   3.151   3.424   1.754
 1018TIP3    H1 3018   3.186   3.417   1.843
 1018TIP3    H2 3019   3.070   3.373   1.755
 1019TIP3   OH2 3020   3.083   0.415   0.890
 1019TIP3    H1 3021   3.131   0.372   0.820
 1019TIP3    H2 3022   3.015   0.466   0.846
 1020TIP3   OH2 3023   2.596   5.662   2.399
 1020TIP3    H1 3024   2.571   5.749   2.368
 1020TIP3    H2 3025   2.691   5.659   2.385
 1021TIP3   OH2 3026   2.094   5.524   3.654
 1021TIP3    H1 3027   2.031   5.595   3.666
 1021TIP3    H2 3028   2.133   5.512   3.740
 1022TIP3   OH2 3029   4.804   1.942   3.868
 1022TIP3    H1 3030   4.760   1.945   3.783
 1022TIP3    H2 3031   4.742   1.897   3.926
 1023TIP3   OH2 3032   0.739   2.979   2.194
 1023TIP3    H1 3033   0.709   2.965   2.104
 1023TIP3    H2 3034   0.834   2.981   2.188
 1024TIP3   OH2 3035   4.026   0.520   0.420
 1024TIP3    H1 3036   4.001   0.536   0.511
 1024TIP3    H2 3037   3.977   0.585   0.370
 1025TIP3   OH2 3038   4.343   1.555   1.624
 1025TIP3    H1 3039   4.352   1.621   1.555
 1025TIP3    H2 3040   4.252   1.526   1.618
 1026TIP3   OH2 3041   6.505   3.907   0.920
 1026TIP3    H1 3042   6.591   3.904   0.879
 1026TIP3    H2 3043   6.523   3.910   1.014
 1027TIP3   OH2 3044   4.170   2.957   2.153
 1027TIP3    H1 3045   4.212   3.010   2.221
 1027TIP3    H2 3046   4.084   2.935   2.189
 1028TIP3   OH2 3047   3.701   2.865   1.397
 1028TIP3    H1 3048   3.652   2.789   1.430
 1028TIP3    H2 3049   3.650   2.940   1.427
 1029TIP3   OH2 3050   2.378   5.941   4.941
 1029TIP3    H1 3051   2.451   5.923   5.000
 1029TIP3    H2 3052   2.354   6.032   4.958
 1030TIP3   OH2 3053   3.586   5.490   2.607
 1030TIP3    H1 3054   3.660   5.471   2.665
 1030TIP3    H2 3055   3.529   5.546   2.660
 1031TIP3   OH2 3056   0.903   5.633   1.998
 1031TIP3    H1 3057   0.983   5.657   1.952
 1031TIP3    H2 3058   0.833   5.646   1.934
 1032TIP3   OH2 3059   0.835   1.631   0.217
 1032TIP3    H1 3060   0.826   1.635   0.312
 1032TIP3    H2 3061   0.779   1.701   0.184
 1033TIP3   OH2 3062   5.403   5.681   3.665
 1033TIP3    H1 3063   5.414   5.702   3.758
 1033TIP3    H2 3064   5.474   5.619   3.646
 1034TIP3   OH2 3065   0.637   5.937   0.887
 1034TIP3    H1 3066   0.602   5.909   0.803
 1034TIP3    H2 3067   0.646   6.032   0.880
 1035TIP3   OH2 3068   4.329   3.823   0.517
 1035TIP3    H1 3069   4.370   3.799   0.600
 1035TIP3    H2 3070   4.366   3.761   0.453
 1036TIP3   OH2 3071   1.851   4.507   1.737
 1036TIP3    H1 3072   1.766   4.467   1.719
 1036TIP3    H2 3073   1.830   4.594   1.770
 1037TIP3   OH2 3074   4.489   3.446   0.232
 1037TIP3    H1 3075   4.400   3.439   0.198
 1037TIP3    H2 3076   4.493   3.385   0.304
 1038TIP3   OH2 3077   4.737   4.138   1.231
 1038TIP3    H1 3078   4.811   4.138   1.291
 1038TIP3    H2 3079   4.725   4.230   1.208
 1039TIP3   OH2 3080   1.283   3.284   1.107
 1039TIP3    H1 3081   1.228   3.324   1.040
 1039TIP3    H2 3082   1.301   3.196   1.075
 1040TIP3   OH2 3083   1.778   3.913   4.496
 1040TIP3    H1 3084   1.800   3.959   4.577
 1040TIP3    H2 3085   1.698   3.957   4.466
 1041TIP3   OH2 3086   6.200   5.002   1.198
 1041TIP3    H1 3087   6.223   4.961   1.115
 1041TIP3    H2 3088   6.245   4.949   1.264
 1042TIP3   OH2 3089   7.204   4.420   1.451
 1042TIP3    H1 3090   7.153   4.351   1.492
 1042TIP3    H2 3091   7.187   4.410   1.357
 1043TIP3   OH2 3092   4.849   5.418   5.619
 1043TIP3    H1 3093   4.808   5.370   5.547
 1043TIP3    H2 3094   4.890   5.494   5.577
 1044TIP3   OH2 3095   2.094   0.842   2.165
 1044TIP3    H1 3096   2.089   0.786   2.088
 1044TIP3    H2 3097   2.183   0.830   2.197
 1045TIP3   OH2 3098   5.628   1.330   0.123
 1045TIP3    H1 3099   5.694   1.353   0.188
 1045TIP3    H2 3100   5.614   1.411   0.073
 1046TIP3   OH2 3101   2.553   5.202   2.814
 1046TIP3    H1 3102   2.581   5.294   2.814
 1046TIP3    H2 3103   2.588   5.167   2.896
 1047TIP3   OH2 3104   0.243   6.740   4.361
 1047TIP3    H1 3105   0.194   6.811   4.318
 1047TIP3    H2 3106   0.208   6.660   4.321
 1048TIP3   OH2 3107   7.105   3.260   2.283
 1048TIP3    H1 3108   7.033   3.299   2.232
 1048TIP3    H2 3109   7.061   3.198   2.341
 1049TIP3   OH2 3110   3.470   4.810   5.405
 1049TIP3    H1 3111   3.440   4.899   5.425
 1049TIP3    H2 3112   3.563   4.820   5.386
 1050TIP3   OH2 3113   1.805   3.853   3.676
 1050TIP3    H1 3114   1.820   3.845   3.582
 1050TIP3    H2 3115   1.830   3.944   3.696
 1051TIP3   OH2 3116   4.646   6.708   3.650
 1051TIP3    H1 3117   4.721   6.694   3.592
 1051TIP3    H2 3118   4.575   6.656   3.612
 1052TIP3   OH2 3119   4.196   3.367   4.338
 1052TIP3    H1 3120   4.276   3.327   4.372
 1052TIP3    H2 3121   4.213   3.461   4.341
 1053TIP3   OH2 3122   6.866   6.740   1.003
 1053TIP3    H1 3123   6.827   6.693   0.929
 1053TIP3    H2 3124   6.938   6.685   1.032
 1054TIP3   OH2 3125   4.096   2.502   3.722
 1054TIP3    H1 3126   4.080   2.409   3.736
 1054TIP3    H2 3127   4.185   2.507   3.688
 1055TIP3   OH2 3128   1.356   6.348   5.562
 1055TIP3    H1 3129   1.317   6.352   5.475
 1055TIP3    H2 3130   1.357   6.255   5.584
 1056TIP3   OH2 3131   1.935   5.311   3.585
 1056TIP3    H1 3132   1.956   5.398   3.618
 1056TIP3    H2 3133   1.845   5.295   3.614
 1057TIP3   OH2 3134   1.311   0.624   5.619
 1057TIP3    H1 3135   1.349   0.598   5.703
 1057TIP3    H2 3136   1.360   0.573   5.554
 1058TIP3   OH2 3137   3.632   2.661   2.355
 1058TIP3    H1 3138   3.656   2.749   2.326
 1058TIP3    H2 3139   3.709   2.631   2.403
 1059TIP3   OH2 3140   0.143   5.993   4.260
 1059TIP3    H1 3141   0.118   5.945   4.339
 1059TIP3    H2 3142   0.150   5.925   4.192
 1060TIP3   OH2 3143   5.662   3.638   5.728
 1060TIP3    H1 3144   5.593   3.670   5.786
 1060TIP3    H2 3145   5.697   3.717   5.687
 1061TIP3   OH2 3146   5.493   1.131   4.705
 1061TIP3    H1 3147   5.568   1.104   4.758
 1061TIP3    H2 3148   5.465   1.214   4.745
 1062TIP3   OH2 3149   2.895   5.632   2.413
 1062TIP3    H1 3150   2.957   5.668   2.475
 1062TIP3    H2 3151   2.949   5.603   2.339
 1063TIP3   OH2 3152   4.265   3.303   3.850
 1063TIP3    H1 3153   4.195   3.244   3.877
 1063TIP3    H2 3154   4.280   3.283   3.758
 1064TIP3   OH2 3155   1.432   1.726   2.053
 1064TIP3    H1 3156   1.496   1.679   2.106
 1064TIP3    H2 3157   1.416   1.807   2.102
 1065TIP3   OH2 3158   0.882   4.865   3.322
 1065TIP3    H1 3159   0.957   4.807   3.311
 1065TIP3    H2 3160   0.916   4.940   3.371
 1066TIP3   OH2 3161   0.081   3.755   3.542
 1066TIP3    H1 3162  -0.005   3.795   3.528
 1066TIP3    H2 3163   0.073   3.711   3.627
 1067TIP3   OH2 3164   4.968   6.618   3.989
 1067TIP3    H1 3165   4.909   6.543   3.996
 1067TIP3    H2 3166   5.022   6.599   3.912
 1068TIP3   OH2 3167   3.604   0.702   4.596
 1068TIP3    H1 3168   3.582   0.657   4.678
 1068TIP3    H2 3169   3.534   0.676   4.536
 1069TIP3   OH2 3170   1.683   4.558   4.302
 1069TIP3    H1 3171   1.722   4.498   4.365
 1069TIP3    H2 3172   1.589   4.538   4.305
 1070TIP3   OH2 3173   3.036   0.678   5.349
 1070TIP3    H1 3174   3.027   0.756   5.294
 1070TIP3    H2 3175   2.995   0.608   5.298
 1071TIP3   OH2 3176   5.991   4.561   1.480
 1071TIP3    H1 3177   5.975   4.568   1.385
 1071TIP3    H2 3178   5.950   4.639   1.517
 1072TIP3   OH2 3179   4.655   4.636   2.510
 1072TIP3    H1 3180   4.628   4.728   2.512
 1072TIP3    H2 3181   4.746   4.638   2.481
 1073TIP3   OH2 3182   5.488   6.537   4.513
 1073TIP3    H1 3183   5.396   6.516   4.524
 1073TIP3    H2 3184   5.506   6.517   4.421
 1074TIP3   OH2 3185   3.958   6.538   3.693
 1074TIP3    H1 3186   4.005   6.617   3.723
 1074TIP3    H2 3187   3.890   6.525   3.759
 1075TIP3   OH2 3188   3.695   4.549   0.589
 1075TIP3    H1 3189   3.755   4.552   0.515
 1075TIP3    H2 3190   3.723   4.473   0.640
 1076TIP3   OH2 3191   6.115   1.601   2.176
 1076TIP3    H1 3192   6.131   1.518   2.220
 1076TIP3    H2 3193   6.068   1.577   2.096
 1077TIP3   OH2 3194   2.738   5.111   1.768
 1077TIP3    H1 3195   2.680   5.039   1.742
 1077TIP3    H2 3196   2.784   5.078   1.845
 1078TIP3   OH2 3197   5.578   1.370   5.214
 1078TIP3    H1 3198   5.514   1.364   5.143
 1078TIP3    H2 3199   5.548   1.306   5.279
 1079TIP3   OH2 3200   0.879   4.357   2.272
 1079TIP3    H1 3201   0.936   4.434   2.277
 1079TIP3    H2 3202   0.938   4.282   2.276
 1080TIP3   OH2 3203   6.150   2.574   1.882
 1080TIP3    H1 3204   6.165   2.655   1.833
 1080TIP3    H2 3205   6.208   2.510   1.840
 1081TIP3   OH2 3206   1.426   3.164   2.110
 1081TIP3    H1 3207   1.514   3.202   2.114
 1081TIP3    H2 3208   1.439   3.078   2.068
 1082TIP3   OH2 3209   1.368   2.498   0.892
 1082TIP3    H1 3210   1.277   2.466   0.896
 1082TIP3    H2 3211   1.401   2.465   0.809
 1083TIP3   OH2 3212   3.906   0.602   5.725
 1083TIP3    H1 3213   3.813   0.595   5.746
 1083TIP3    H2 3214   3.925   0.696   5.726
 1084TIP3   OH2 3215   0.258   5.759   1.028
 1084TIP3    H1 3216   0.349   5.734   1.044
 1084TIP3    H2 3217   0.217   5.679   0.994
 1085TIP3   OH2 3218   6.434   5.086   2.669
 1085TIP3    H1 3219   6.387   5.091   2.586
 1085TIP3    H2 3220   6.517   5.044   2.647
 1086TIP3   OH2 3221   2.589   1.948   2.514
 1086TIP3    H1 3222   2.616   1.999   2.591
 1086TIP3    H2 3223   2.589   2.012   2.442
 1087TIP3   OH2 3224   5.899   4.772   1.923
 1087TIP3    H1 3225   5.851   4.769   2.006
 1087TIP3    H2 3226   5.866   4.850   1.880
 1088TIP3   OH2 3227   6.178   5.426   4.756
 1088TIP3    H1 3228   6.251   5.367   4.736
 1088TIP3    H2 3229   6.107   5.395   4.700
 1089TIP3   OH2 3230   0.139   1.698   5.144
 1089TIP3    H1 3231   0.185   1.774   5.109
 1089TIP3    H2 3232   0.058   1.734   5.182
 1090TIP3   OH2 3233   4.796   0.636   3.250
 1090TIP3    H1 3234   4.773   0.557   3.298
 1090TIP3    H2 3235   4.750   0.628   3.166
 1091TIP3   OH2 3236   0.011   4.484   4.230
 1091TIP3    H1 3237  -0.072   4.458   4.272
 1091TIP3    H2 3238  -0.003   4.575   4.205
 1092TIP3   OH2 3239   4.766   4.722   1.672
 1092TIP3    H1 3240   4.801   4.807   1.642
 1092TIP3    H2 3241   4.762   4.669   1.592
 1093TIP3   OH2 3242   3.384   2.727   5.564
 1093TIP3    H1 3243   3.325   2.803   5.565
 1093TIP3    H2 3244   3.373   2.691   5.476
 1094TIP3   OH2 3245   6.011   2.834   3.528
 1094TIP3    H1 3246   6.054   2.859   3.610
 1094TIP3    H2 3247   6.004   2.915   3.478
 1095TIP3   OH2 3248   3.987   4.906   4.148
 1095TIP3    H1 3249   3.965   4.829   4.096
 1095TIP3    H2 3250   4.050   4.954   4.094
 1096TIP3   OH2 3251   2.204   4.872   2.467
 1096TIP3    H1 3252   2.190   4.883   2.561
 1096TIP3    H2 3253   2.291   4.908   2.450
 1097TIP3   OH2 3254   6.598   6.462   1.084
 1097TIP3    H1 3255   6.578   6.549   1.118
 1097TIP3    H2 3256   6.656   6.478   1.010
 1098TIP3   OH2 3257   5.112   4.111   5.018
 1098TIP3    H1 3258   5.168   4.188   5.007
 1098TIP3    H2 3259   5.120   4.063   4.935
 1099TIP3   OH2 3260   3.710   0.153   4.725
 1099TIP3    H1 3261   3.761   0.233   4.709
 1099TIP3    H2 3262   3.622   0.185   4.745
 1100TIP3   OH2 3263   4.899   4.584   2.097
 1100TIP3    H1 3264   4.966   4.521   2.125
 1100TIP3    H2 3265   4.937   4.628   2.021
 1101TIP3   OH2 3266   3.382   1.105   3.495
 1101TIP3    H1 3267   3.317   1.078   3.560
 1101TIP3    H2 3268   3.441   1.030   3.488
 1102TIP3   OH2 3269   3.351   0.930   2.199
 1102TIP3    H1 3270   3.350   0.846   2.152
 1102TIP3    H2 3271   3.277   0.923   2.260
 1103TIP3   OH2 3272   7.048   4.088   4.091
 1103TIP3    H1 3273   7.013   4.050   4.010
 1103TIP3    H2 3274   6.971   4.109   4.143
 1104TIP3   OH2 3275   6.504   6.098   3.544
 1104TIP3    H1 3276   6.594   6.090   3.576
 1104TIP3    H2 3277   6.450   6.080   3.621
 1105TIP3   OH2 3278   1.614   6.057   3.946
 1105TIP3    H1 3279   1.701   6.097   3.939
 1105TIP3    H2 3280   1.610   6.023   4.035
 1106TIP3   OH2 3281   4.479   4.243   4.639
 1106TIP3    H1 3282   4.477   4.294   4.719
 1106TIP3    H2 3283   4.389   4.248   4.605
 1107TIP3   OH2 3284   2.713   2.118   4.320
 1107TIP3    H1 3285   2.698   2.073   4.402
 1107TIP3    H2 3286   2.674   2.061   4.254
 1108TIP3   OH2 3287   2.711   5.605   4.860
 1108TIP3    H1 3288   2.753   5.687   4.884
 1108TIP3    H2 3289   2.624   5.630   4.830
 1109TIP3   OH2 3290   0.888   6.525   2.285
 1109TIP3    H1 3291   0.926   6.437   2.278
 1109TIP3    H2 3292   0.884   6.556   2.194
 1110TIP3   OH2 3293   5.691   4.401   3.983
 1110TIP3    H1 3294   5.781   4.406   3.952
 1110TIP3    H2 3295   5.647   4.476   3.943
 1111TIP3   OH2 3296   5.787   3.910   0.658
 1111TIP3    H1 3297   5.752   3.822   0.673
 1111TIP3    H2 3298   5.710   3.963   0.637
 1112TIP3   OH2 3299   1.107   5.511   2.194
 1112TIP3    H1 3300   1.054   5.509   2.274
 1112TIP3    H2 3301   1.132   5.603   2.184
 1113TIP3   OH2 3302   4.690   2.215   2.337
 1113TIP3    H1 3303   4.760   2.280   2.335
 1113TIP3    H2 3304   4.659   2.211   2.247
 1114TIP3   OH2 3305   4.367   1.670   2.558
 1114TIP3    H1 3306   4.350   1.660   2.652
 1114TIP3    H2 3307   4.289   1.714   2.524
 1115TIP3   OH2 3308   2.429   4.473   4.615
 1115TIP3    H1 3309   2.398   4.512   4.534
 1115TIP3    H2 3310   2.429   4.379   4.598
 1116TIP3   OH2 3311   1.685   2.955   2.494
 1116TIP3    H1 3312   1.674   2.915   2.580
 1116TIP3    H2 3313   1.679   3.049   2.510
 1117TIP3   OH2 3314   2.858   3.107   5.160
 1117TIP3    H1 3315   2.847   3.141   5.071
 1117TIP3    H2 3316   2.812   3.170   5.215
 1118TIP3   OH2 3317   2.393   3.138   1.074
 1118TIP3    H1 3318   2.475   3.179   1.046
 1118TIP3    H2 3319   2.412   3.044   1.073
 1119TIP3   OH2 3320   0.336   2.864   2.627
 1119TIP3    H1 3321   0.264   2.909   2.584
 1119TIP3    H2 3322   0.316   2.870   2.721
 1120TIP3   OH2 3323   6.032   2.050   4.626
 1120TIP3    H1 3324   6.045   1.956   4.616
 1120TIP3    H2 3325   6.065   2.088   4.544
 1121TIP3   OH2 3326   6.139   5.788   2.027
 1121TIP3    H1 3327   6.225   5.768   1.991
 1121TIP3    H2 3328   6.080   5.724   1.988
 1122TIP3   OH2 3329   4.996   6.004   5.164
 1122TIP3    H1 3330   4.929   5.935   5.163
 1122TIP3    H2 3331   4.952   6.079   5.204
 1123TIP3   OH2 3332   2.368   0.174   1.629
 1123TIP3    H1 3333   2.434   0.241   1.610
 1123TIP3    H2 3334   2.418   0.100   1.663
 1124TIP3   OH2 3335   4.826   2.351   3.585
 1124TIP3    H1 3336   4.759   2.406   3.624
 1124TIP3    H2 3337   4.866   2.406   3.517
 1125TIP3   OH2 3338   3.316   2.223   4.573
 1125TIP3    H1 3339   3.410   2.236   4.560
 1125TIP3    H2 3340   3.276   2.307   4.552
 1126TIP3   OH2 3341   0.956   0.260   3.798
 1126TIP3    H1 3342   0.941   0.186   3.858
 1126TIP3    H2 3343   0.959   0.220   3.711
 1127TIP3   OH2 3344   5.781   2.346   0.471
 1127TIP3    H1 3345   5.761   2.391   0.553
 1127TIP3    H2 3346   5.855   2.394   0.434
 1128TIP3   OH2 3347   0.552   6.335  -0.022
 1128TIP3    H1 3348   0.642   6.351   0.006
 1128TIP3    H2 3349   0.499   6.362   0.052
 1129TIP3   OH2 3350   4.120   1.108   3.616
 1129TIP3    H1 3351   4.164   1.192   3.626
 1129TIP3    H2 3352   4.033   1.131   3.582
 1130TIP3   OH2 3353   4.084   6.562   4.076
 1130TIP3    H1 3354   4.041   6.484   4.042
 1130TIP3    H2 3355   4.070   6.558   4.171
 1131TIP3   OH2 3356   4.283   2.344   1.250
 1131TIP3    H1 3357   4.218   2.288   1.292
 1131TIP3    H2 3358   4.319   2.290   1.180
 1132TIP3   OH2 3359   4.631   1.494   4.268
 1132TIP3    H1 3360   4.672   1.420   4.223
 1132TIP3    H2 3361   4.682   1.570   4.241
 1133TIP3   OH2 3362   0.161   2.138   0.593
 1133TIP3    H1 3363   0.134   2.210   0.650
 1133TIP3    H2 3364   0.113   2.154   0.512
 1134TIP3   OH2 3365   4.034   5.712   0.576
 1134TIP3    H1 3366   3.965   5.655   0.542
 1134TIP3    H2 3367   3.994   5.756   0.651
 1135TIP3   OH2 3368   5.393   2.352   2.894
 1135TIP3    H1 3369   5.297   2.348   2.894
 1135TIP3    H2 3370   5.418   2.330   2.983
 1136TIP3   OH2 3371   1.586   5.758   3.309
 1136TIP3    H1 3372   1.528   5.834   3.313
 1136TIP3    H2 3373   1.554   5.706   3.235
 1137TIP3   OH2 3374   2.315   5.742   3.295
 1137TIP3    H1 3375   2.338   5.651   3.273
 1137TIP3    H2 3376   2.225   5.752   3.264
 1138TIP3   OH2 3377   6.325   2.478   1.683
 1138TIP3    H1 3378   6.351   2.387   1.699
 1138TIP3    H2 3379   6.404   2.520   1.650
 1139TIP3   OH2 3380   1.345   1.471   5.374
 1139TIP3    H1 3381   1.276   1.421   5.418
 1139TIP3    H2 3382   1.414   1.406   5.358
 1140TIP3   OH2 3383   5.498   0.432   2.089
 1140TIP3    H1 3384   5.451   0.515   2.084
 1140TIP3    H2 3385   5.439   0.369   2.050
 1141TIP3   OH2 3386   7.127   5.974   5.669
 1141TIP3    H1 3387   7.085   5.891   5.692
 1141TIP3    H2 3388   7.076   6.006   5.594
 1142TIP3   OH2 3389   0.958   0.689   4.603
 1142TIP3    H1 3390   0.915   0.774   4.607
 1142TIP3    H2 3391   0.934   0.654   4.517
 1143TIP3   OH2 3392   6.680   0.351   5.832
 1143TIP3    H1 3393   6.763   0.400   5.830
 1143TIP3    H2 3394   6.629   0.395   5.901
 1144TIP3   OH2 3395   1.736   0.928   2.788
 1144TIP3    H1 3396   1.685   0.907   2.710
 1144TIP3    H2 3397   1.810   0.868   2.786
 1145TIP3   OH2 3398   7.040   1.225   0.940
 1145TIP3    H1 3399   7.040   1.273   1.022
 1145TIP3    H2 3400   6.957   1.250   0.898
 1146TIP3   OH2 3401   6.743   4.407   4.487
 1146TIP3    H1 3402   6.666   4.361   4.454
 1146TIP3    H2 3403   6.716   4.442   4.572
 1147TIP3   OH2 3404   0.482   2.997   1.527
 1147TIP3    H1 3405   0.420   3.071   1.531
 1147TIP3    H2 3406   0.514   2.999   1.436
 1148TIP3   OH2 3407   1.626   2.730   4.352
 1148TIP3    H1 3408   1.552   2.782   4.322
 1148TIP3    H2 3409   1.648   2.675   4.277
 1149TIP3   OH2 3410   1.579   5.907   4.407
 1149TIP3    H1 3411   1.665   5.945   4.423
 1149TIP3    H2 3412   1.577   5.892   4.312
 1150TIP3   OH2 3413   3.105   3.311   5.318
 1150TIP3    H1 3414   3.089   3.321   5.411
 1150TIP3    H2 3415   3.026   3.348   5.276
 1151TIP3   OH2 3416   3.773   3.523   1.585
 1151TIP3    H1 3417   3.849   3.470   1.561
 1151TIP3    H2 3418   3.752   3.496   1.674
 1152TIP3   OH2 3419   0.742   1.563   3.513
 1152TIP3    H1 3420   0.740   1.477   3.556
 1152TIP3    H2 3421   0.675   1.614   3.557
 1153TIP3   OH2 3422   5.512   1.562   4.566
 1153TIP3    H1 3423   5.530   1.576   4.659
 1153TIP3    H2 3424   5.435   1.506   4.564
 1154TIP3   OH2 3425   3.698   6.075   2.522
 1154TIP3    H1 3426   3.718   6.163   2.491
 1154TIP3    H2 3427   3.704   6.020   2.444
 1155TIP3   OH2 3428   3.809   3.257   2.452
 1155TIP3    H1 3429   3.737   3.272   2.512
 1155TIP3    H2 3430   3.774   3.196   2.387
 1156TIP3   OH2 3431   6.636   0.539   0.448
 1156TIP3    H1 3432   6.573   0.544   0.519
 1156TIP3    H2 3433   6.698   0.610   0.467
 1157TIP3   OH2 3434   2.024   1.036   3.767
 1157TIP3    H1 3435   1.952   0.995   3.815
 1157TIP3    H2 3436   2.024   1.127   3.797
 1158TIP3   OH2 3437   5.085   5.068   3.267
 1158TIP3    H1 3438   5.123   5.147   3.229
 1158TIP3    H2 3439   5.070   5.010   3.192
 1159TIP3   OH2 3440   7.024   4.738   0.942
 1159TIP3    H1 3441   6.946   4.785   0.913
 1159TIP3    H2 3442   7.077   4.727   0.863
 1160TIP3   OH2 3443   1.710   3.094   4.627
 1160TIP3    H1 3444   1.672   3.111   4.713
 1160TIP3    H2 3445   1.635   3.077   4.570
 1161TIP3   OH2 3446   3.247   2.487   1.852
 1161TIP3    H1 3447   3.320   2.533   1.894
 1161TIP3    H2 3448   3.276   2.395   1.850
 1162TIP3   OH2 3449   5.609   5.441   0.807
 1162TIP3    H1 3450   5.527   5.478   0.839
 1162TIP3    H2 3451   5.589   5.414   0.717
 1163TIP3   OH2 3452   7.006   1.415  -0.006
 1163TIP3    H1 3453   7.087   1.383  -0.043
 1163TIP3    H2 3454   7.008   1.386   0.086
 1164TIP3   OH2 3455   2.922   6.249   3.808
 1164TIP3    H1 3456   2.881   6.306   3.873
 1164TIP3    H2 3457   2.857   6.240   3.739
 1165TIP3   OH2 3458   1.728   3.008   0.939
 1165TIP3    H1 3459   1.671   3.052   0.876
 1165TIP3    H2 3460   1.813   3.005   0.895
 1166TIP3   OH2 3461   2.091   4.786   0.017
 1166TIP3    H1 3462   2.063   4.807   0.106
 1166TIP3    H2 3463   2.099   4.691   0.016
 1167TIP3   OH2 3464   7.157   2.627   1.145
 1167TIP3    H1 3465   7.226   2.688   1.122
 1167TIP3    H2 3466   7.161   2.622   1.241
 1168TIP3   OH2 3467   7.062   3.253   3.692
 1168TIP3    H1 3468   7.148   3.218   3.715
 1168TIP3    H2 3469   7.048   3.223   3.602
 1169TIP3   OH2 3470   5.151   3.761   0.284
 1169TIP3    H1 3471   5.163   3.694   0.352
 1169TIP3    H2 3472   5.234   3.809   0.282
 1170TIP3   OH2 3473   7.101   6.640   1.170
 1170TIP3    H1 3474   7.127   6.615   1.259
 1170TIP3    H2 3475   7.180   6.628   1.117
 1171TIP3   OH2 3476   4.956   0.447   2.898
 1171TIP3    H1 3477   5.000   0.362   2.893
 1171TIP3    H2 3478   5.025   0.511   2.881
 1172TIP3   OH2 3479   4.359   3.991   1.917
 1172TIP3    H1 3480   4.268   3.975   1.893
 1172TIP3    H2 3481   4.360   4.081   1.949
 1173TIP3   OH2 3482   6.916   6.667   0.378
 1173TIP3    H1 3483   6.918   6.716   0.460
 1173TIP3    H2 3484   6.891   6.578   0.404
 1174TIP3   OH2 3485   6.930   6.497   2.150
 1174TIP3    H1 3486   6.879   6.457   2.221
 1174TIP3    H2 3487   6.865   6.539   2.094
 1175TIP3   OH2 3488   4.507   6.480   4.621
 1175TIP3    H1 3489   4.532   6.413   4.685
 1175TIP3    H2 3490   4.575   6.475   4.554
 1176TIP3   OH2 3491   2.448   5.602   4.558
 1176TIP3    H1 3492   2.458   5.657   4.636
 1176TIP3    H2 3493   2.409   5.661   4.493
 1177TIP3   OH2 3494   1.421   0.300   5.791
 1177TIP3    H1 3495   1.349   0.237   5.796
 1177TIP3    H2 3496   1.392   0.373   5.846
 1178TIP3   OH2 3497   5.399   4.870   3.398
 1178TIP3    H1 3498   5.392   4.843   3.307
 1178TIP3    H2 3499   5.492   4.890   3.410
 1179TIP3   OH2 3500   6.600   4.044   2.740
 1179TIP3    H1 3501   6.657   4.014   2.811
 1179TIP3    H2 3502   6.558   3.964   2.708
 1180TIP3   OH2 3503   1.607   6.437   3.149
 1180TIP3    H1 3504   1.634   6.368   3.210
 1180TIP3    H2 3505   1.532   6.479   3.191
 1181TIP3   OH2 3506   0.050   1.093   0.387
 1181TIP3    H1 3507   0.053   1.107   0.292
 1181TIP3    H2 3508   0.133   1.130   0.419
 1182TIP3   OH2 3509   7.147   0.918   5.125
 1182TIP3    H1 3510   7.071   0.946   5.076
 1182TIP3    H2 3511   7.158   0.825   5.102
 1183TIP3   OH2 3512   3.766   6.208   3.669
 1183TIP3    H1 3513   3.683   6.169   3.640
 1183TIP3    H2 3514   3.768   6.294   3.627
 1184TIP3   OH2 3515   5.949   0.615   1.084
 1184TIP3    H1 3516   5.876   0.585   1.138
 1184TIP3    H2 3517   6.027   0.598   1.138
 1185TIP3   OH2 3518   5.972   4.138   1.820
 1185TIP3    H1 3519   5.975   4.184   1.904
 1185TIP3    H2 3520   5.939   4.203   1.758
 1186TIP3   OH2 3521   4.373   0.488   5.600
 1186TIP3    H1 3522   4.344   0.490   5.691
 1186TIP3    H2 3523   4.425   0.568   5.589
 1187TIP3   OH2 3524   4.570   6.278   2.446
 1187TIP3    H1 3525   4.608   6.271   2.359
 1187TIP3    H2 3526   4.492   6.331   2.435
 1188TIP3   OH2 3527   6.306   2.808   1.488
 1188TIP3    H1 3528   6.376   2.814   1.423
 1188TIP3    H2 3529   6.293   2.713   1.500
 1189TIP3   OH2 3530   4.576   2.196   0.272
 1189TIP3    H1 3531   4.659   2.215   0.316
 1189TIP3    H2 3532   4.599   2.138   0.200
 1190TIP3   OH2 3533   2.910   1.374   0.846
 1190TIP3    H1 3534   2.982   1.314   0.827
 1190TIP3    H2 3535   2.837   1.317   0.871
 1191TIP3   OH2 3536   2.817   2.902   2.347
 1191TIP3    H1 3537   2.730   2.927   2.314
 1191TIP3    H2 3538   2.875   2.970   2.315
 1192TIP3   OH2 3539   6.226   4.486   2.776
 1192TIP3    H1 3540   6.255   4.548   2.843
 1192TIP3    H2 3541   6.298   4.424   2.767
 1193TIP3   OH2 3542   0.961   5.072   4.834
 1193TIP3    H1 3543   0.893   5.037   4.777
 1193TIP3    H2 3544   0.930   5.159   4.858
 1194TIP3   OH2 3545   3.972   2.004   0.768
 1194TIP3    H1 3546   3.918   1.939   0.723
 1194TIP3    H2 3547   3.998   2.065   0.700
 1195TIP3   OH2 3548   5.089   0.994   3.225
 1195TIP3    H1 3549   5.142   0.942   3.285
 1195TIP3    H2 3550   4.999   0.969   3.244
 1196TIP3   OH2 3551   4.696   1.894   4.487
 1196TIP3    H1 3552   4.656   1.844   4.559
 1196TIP3    H2 3553   4.722   1.827   4.424
 1197TIP3   OH2 3554   2.494   2.388   0.903
 1197TIP3    H1 3555   2.533   2.330   0.969
 1197TIP3    H2 3556   2.529   2.356   0.820
 1198TIP3   OH2 3557   1.292   0.106   3.895
 1198TIP3    H1 3558   1.279   0.078   3.804
 1198TIP3    H2 3559   1.380   0.077   3.917
 1199TIP3   OH2 3560   0.202   4.308   0.812
 1199TIP3    H1 3561   0.200   4.337   0.903
 1199TIP3    H2 3562   0.217   4.388   0.762
 1200TIP3   OH2 3563   6.437   6.393   2.867
 1200TIP3    H1 3564   6.394   6.414   2.950
 1200TIP3    H2 3565   6.509   6.334   2.891
 1201TIP3   OH2 3566   4.263   1.997   2.105
 1201TIP3    H1 3567   4.307   2.028   2.185
 1201TIP3    H2 3568   4.190   2.057   2.093
 1202TIP3   OH2 3569   6.011   2.185   0.710
 1202TIP3    H1 3570   5.928   2.158   0.670
 1202TIP3    H2 3571   6.078   2.146   0.655
 1203TIP3   OH2 3572   4.278   4.830   0.773
 1203TIP3    H1 3573   4.328   4.829   0.855
 1203TIP3    H2 3574   4.267   4.738   0.750
 1204TIP3   OH2 3575   3.987   1.309   1.972
 1204TIP3    H1 3576   3.905   1.319   2.020
 1204TIP3    H2 3577   4.020   1.223   1.998
 1205TIP3   OH2 3578   0.794   4.093   4.360
 1205TIP3    H1 3579   0.735   4.114   4.288
 1205TIP3    H2 3580   0.861   4.162   4.358
 1206TIP3   OH2 3581   0.750   4.951   0.031
 1206TIP3    H1 3582   0.669   4.996   0.010
 1206TIP3    H2 3583   0.794   5.010   0.093
 1207TIP3   OH2 3584   6.655   5.768   0.611
 1207TIP3    H1 3585   6.589   5.835   0.594
 1207TIP3    H2 3586   6.701   5.758   0.527
 1208TIP3   OH2 3587   2.990   2.710   3.237
 1208TIP3    H1 3588   2.934   2.647   3.191
 1208TIP3    H2 3589   3.029   2.762   3.167
 1209TIP3   OH2 3590   0.394   3.261   0.314
 1209TIP3    H1 3591   0.329   3.215   0.261
 1209TIP3    H2 3592   0.343   3.303   0.384
 1210TIP3   OH2 3593   4.297   5.143   2.599
 1210TIP3    H1 3594   4.243   5.108   2.528
 1210TIP3    H2 3595   4.273   5.090   2.675
 1211TIP3   OH2 3596   3.713   1.671   2.343
 1211TIP3    H1 3597   3.722   1.590   2.394
 1211TIP3    H2 3598   3.713   1.741   2.409
 1212TIP3   OH2 3599   0.020  -0.024   4.479
 1212TIP3    H1 3600   0.115  -0.024   4.488
 1212TIP3    H2 3601  -0.013  -0.045   4.566
 1213TIP3   OH2 3602   7.112   6.083   4.911
 1213TIP3    H1 3603   7.131   6.030   4.989
 1213TIP3    H2 3604   7.025   6.119   4.927
 1214TIP3   OH2 3605   0.211   5.474   2.131
 1214TIP3    H1 3606   0.153   5.459   2.206
 1214TIP3    H2 3607   0.164   5.537   2.076
 1215TIP3   OH2 3608   6.035   3.007   0.970
 1215TIP3    H1 3609   5.945   2.976   0.958
 1215TIP3    H2 3610   6.072   2.948   1.036
 1216TIP3   OH2 3611   1.911   0.662   5.674
 1216TIP3    H1 3612   1.896   0.567   5.673
 1216TIP3    H2 3613   1.824   0.700   5.681
 1217TIP3   OH2 3614   6.368   0.886   1.201
 1217TIP3    H1 3615   6.399   0.949   1.266
 1217TIP3    H2 3616   6.302   0.834   1.247
 1218TIP3   OH2 3617   3.567   4.115   5.593
 1218TIP3    H1 3618   3.489   4.110   5.538
 1218TIP3    H2 3619   3.604   4.027   5.589
 1219TIP3   OH2 3620   4.219   1.211   4.517
 1219TIP3    H1 3621   4.210   1.123   4.481
 1219TIP3    H2 3622   4.313   1.219   4.536
 1220TIP3   OH2 3623   5.592   6.368   0.027
 1220TIP3    H1 3624   5.555   6.343   0.111
 1220TIP3    H2 3625   5.541   6.318  -0.037
 1221TIP3   OH2 3626   4.553   1.760   3.030
 1221TIP3    H1 3627   4.608   1.833   3.000
 1221TIP3    H2 3628   4.471   1.771   2.982
 1222TIP3   OH2 3629   0.119   0.103   3.983
 1222TIP3    H1 3630   0.157   0.016   3.980
 1222TIP3    H2 3631   0.079   0.109   4.070
 1223TIP3   OH2 3632   1.568   6.490   4.476
 1223TIP3    H1 3633   1.610   6.415   4.520
 1223TIP3    H2 3634   1.642   6.540   4.440
 1224TIP3   OH2 3635   5.126   1.189   4.473
 1224TIP3    H1 3636   5.105   1.236   4.392
 1224TIP3    H2 3637   5.062   1.118   4.477
 1225TIP3   OH2 3638   6.416   6.034   2.634
 1225TIP3    H1 3639   6.411   6.125   2.606
 1225TIP3    H2 3640   6.507   6.021   2.659
 1226TIP3   OH2 3641   2.500   0.977   0.183
 1226TIP3    H1 3642   2.466   1.022   0.106
 1226TIP3    H2 3643   2.519   0.888   0.153
 1227TIP3   OH2 3644   1.361   6.358   0.146
 1227TIP3    H1 3645   1.350   6.433   0.205
 1227TIP3    H2 3646   1.375   6.398   0.060
 1228TIP3   OH2 3647   4.597   4.076   4.383
 1228TIP3    H1 3648   4.550   4.115   4.309
 1228TIP3    H2 3649   4.578   4.134   4.457
 1229TIP3   OH2 3650   0.721   1.334   5.481
 1229TIP3    H1 3651   0.632   1.318   5.451
 1229TIP3    H2 3652   0.748   1.414   5.435
 1230TIP3   OH2 3653   6.222   0.951   4.302
 1230TIP3    H1 3654   6.297   0.929   4.246
 1230TIP3    H2 3655   6.234   0.897   4.380
 1231TIP3   OH2 3656   1.609   1.960   1.010
 1231TIP3    H1 3657   1.643   1.871   1.012
 1231TIP3    H2 3658   1.652   2.001   0.935
 1232TIP3   OH2 3659   0.379   2.259   4.301
 1232TIP3    H1 3660   0.339   2.278   4.386
 1232TIP3    H2 3661   0.334   2.180   4.271
 1233TIP3   OH2 3662   5.187   1.028   5.707
 1233TIP3    H1 3663   5.197   0.966   5.780
 1233TIP3    H2 3664   5.262   1.086   5.714
 1234TIP3   OH2 3665   5.264   5.925   4.343
 1234TIP3    H1 3666   5.272   5.856   4.408
 1234TIP3    H2 3667   5.351   5.931   4.302
 1235TIP3   OH2 3668   0.876   0.482   5.159
 1235TIP3    H1 3669   0.805   0.430   5.197
 1235TIP3    H2 3670   0.883   0.558   5.217
 1236TIP3   OH2 3671   6.200   3.647   5.771
 1236TIP3    H1 3672   6.254   3.578   5.811
 1236TIP3    H2 3673   6.125   3.600   5.735
 1237TIP3   OH2 3674   1.765   3.989   5.522
 1237TIP3    H1 3675   1.782   4.054   5.590
 1237TIP3    H2 3676   1.804   3.908   5.554
 1238TIP3   OH2 3677   5.865   3.176   0.558
 1238TIP3    H1 3678   5.865   3.080   0.551
 1238TIP3    H2 3679   5.907   3.206   0.477
 1239TIP3   OH2 3680   6.007   3.369   2.779
 1239TIP3    H1 3681   6.027   3.316   2.701
 1239TIP3    H2 3682   5.912   3.377   2.780
 1240TIP3   OH2 3683   1.775   3.886   4.100
 1240TIP3    H1 3684   1.682   3.890   4.079
 1240TIP3    H2 3685   1.782   3.813   4.162
 1241TIP3   OH2 3686   1.750   3.187   2.628
 1241TIP3    H1 3687   1.827   3.229   2.591
 1241TIP3    H2 3688   1.753   3.209   2.721
 1242TIP3   OH2 3689   4.424   1.672   4.387
 1242TIP3    H1 3690   4.492   1.605   4.384
 1242TIP3    H2 3691   4.346   1.625   4.418
 1243TIP3   OH2 3692   4.536   2.629   3.512
 1243TIP3    H1 3693   4.594   2.600   3.582
 1243TIP3    H2 3694   4.455   2.580   3.527
 1244TIP3   OH2 3695   0.392   0.896   0.072
 1244TIP3    H1 3696   0.416   0.803   0.075
 1244TIP3    H2 3697   0.360   0.915   0.161
 1245TIP3   OH2 3698   5.951   2.431   4.477
 1245TIP3    H1 3699   5.867   2.443   4.434
 1245TIP3    H2 3700   5.958   2.505   4.538
 1246TIP3   OH2 3701   6.531   6.662   4.907
 1246TIP3    H1 3702   6.488   6.602   4.968
 1246TIP3    H2 3703   6.570   6.604   4.841
 1247TIP3   OH2 3704   1.591   3.286   4.298
 1247TIP3    H1 3705   1.606   3.228   4.373
 1247TIP3    H2 3706   1.582   3.227   4.223
 1248TIP3   OH2 3707   7.114   1.847   2.644
 1248TIP3    H1 3708   7.160   1.792   2.708
 1248TIP3    H2 3709   7.101   1.930   2.689
 1249TIP3   OH2 3710   6.688   4.605   4.691
 1249TIP3    H1 3711   6.775   4.617   4.729
 1249TIP3    H2 3712   6.633   4.668   4.738
 1250TIP3   OH2 3713   4.092   1.982   2.711
 1250TIP3    H1 3714   4.156   2.039   2.668
 1250TIP3    H2 3715   4.014   2.038   2.720
 1251TIP3   OH2 3716   3.607   5.608   1.017
 1251TIP3    H1 3717   3.702   5.609   1.026
 1251TIP3    H2 3718   3.575   5.669   1.083
 1252TIP3   OH2 3719   3.544   4.301   4.700
 1252TIP3    H1 3720   3.609   4.355   4.745
 1252TIP3    H2 3721   3.506   4.247   4.769
 1253TIP3   OH2 3722   3.371   1.009   2.658
 1253TIP3    H1 3723   3.332   0.978   2.739
 1253TIP3    H2 3724   3.328   1.093   2.640
 1254TIP3   OH2 3725   1.248   6.229   3.410
 1254TIP3    H1 3726   1.308   6.194   3.476
 1254TIP3    H2 3727   1.222   6.152   3.359
 1255TIP3   OH2 3728   5.130   3.932   2.712
 1255TIP3    H1 3729   5.141   4.010   2.657
 1255TIP3    H2 3730   5.213   3.925   2.759
 1256TIP3   OH2 3731   2.270   5.550   2.527
 1256TIP3    H1 3732   2.319   5.617   2.574
 1256TIP3    H2 3733   2.333   5.514   2.464
 1257TIP3   OH2 3734   2.647   4.848   4.229
 1257TIP3    H1 3735   2.673   4.757   4.213
 1257TIP3    H2 3736   2.557   4.842   4.261
 1258TIP3   OH2 3737   5.906   4.996   5.909
 1258TIP3    H1 3738   5.898   4.910   5.867
 1258TIP3    H2 3739   5.999   5.017   5.903
 1259TIP3   OH2 3740   3.370   0.251   4.677
 1259TIP3    H1 3741   3.382   0.324   4.737
 1259TIP3    H2 3742   3.295   0.202   4.712
 1260TIP3   OH2 3743   2.785   5.115   1.410
 1260TIP3    H1 3744   2.767   5.035   1.459
 1260TIP3    H2 3745   2.792   5.086   1.319
 1261TIP3   OH2 3746   4.334   4.626   2.084
 1261TIP3    H1 3747   4.418   4.587   2.108
 1261TIP3    H2 3748   4.281   4.621   2.163
 1262TIP3   OH2 3749   3.309   2.419   2.615
 1262TIP3    H1 3750   3.328   2.511   2.600
 1262TIP3    H2 3751   3.283   2.385   2.529
 1263TIP3   OH2 3752   4.063   5.490   0.341
 1263TIP3    H1 3753   3.982   5.507   0.390
 1263TIP3    H2 3754   4.052   5.401   0.309
 1264TIP3   OH2 3755   4.895   6.207   3.066
 1264TIP3    H1 3756   4.971   6.265   3.075
 1264TIP3    H2 3757   4.843   6.224   3.144
 1265TIP3   OH2 3758   2.238   0.547   0.624
 1265TIP3    H1 3759   2.200   0.506   0.547
 1265TIP3    H2 3760   2.271   0.632   0.593
 1266TIP3   OH2 3761   4.920   3.252   1.581
 1266TIP3    H1 3762   4.935   3.200   1.502
 1266TIP3    H2 3763   4.937   3.342   1.555
 1267TIP3   OH2 3764   3.924   2.579   4.769
 1267TIP3    H1 3765   3.871   2.584   4.848
 1267TIP3    H2 3766   3.934   2.485   4.752
 1268TIP3   OH2 3767   7.034   6.644   5.829
 1268TIP3    H1 3768   6.975   6.633   5.755
 1268TIP3    H2 3769   7.112   6.685   5.792
 1269TIP3   OH2 3770   4.051   0.067   3.741
 1269TIP3    H1 3771   4.017   0.090   3.654
 1269TIP3    H2 3772   4.146   0.060   3.729
 1270TIP3   OH2 3773   1.365   5.381   2.106
 1270TIP3    H1 3774   1.397   5.449   2.048
 1270TIP3    H2 3775   1.277   5.408   2.129
 1271TIP3   OH2 3776   4.991   6.497   1.207
 1271TIP3    H1 3777   4.907   6.542   1.215
 1271TIP3    H2 3778   5.055   6.567   1.197
 1272TIP3   OH2 3779   3.637   6.608   1.735
 1272TIP3    H1 3780   3.722   6.645   1.712
 1272TIP3    H2 3781   3.625   6.633   1.827
 1273TIP3   OH2 3782   4.496   0.276   4.883
 1273TIP3    H1 3783   4.453   0.277   4.797
 1273TIP3    H2 3784   4.502   0.183   4.905
 1274TIP3   OH2 3785   0.129   1.688   1.660
 1274TIP3    H1 3786   0.089   1.692   1.573
 1274TIP3    H2 3787   0.208   1.635   1.648
 1275TIP3   OH2 3788   5.031   3.162   3.247
 1275TIP3    H1 3789   4.957   3.108   3.220
 1275TIP3    H2 3790   5.090   3.162   3.172
 1276TIP3   OH2 3791   1.033   3.947   3.068
 1276TIP3    H1 3792   1.073   3.875   3.116
 1276TIP3    H2 3793   1.010   3.910   2.983
 1277TIP3   OH2 3794   6.170   0.520   3.284
 1277TIP3    H1 3795   6.149   0.529   3.191
 1277TIP3    H2 3796   6.161   0.608   3.320
 1278TIP3   OH2 3797   0.721   0.422   2.697
 1278TIP3    H1 3798   0.802   0.376   2.719
 1278TIP3    H2 3799   0.662   0.353   2.664
 1279TIP3   OH2 3800   3.154   1.206   1.760
 1279TIP3    H1 3801   3.127   1.138   1.698
 1279TIP3    H2 3802   3.183   1.158   1.838
 1280TIP3   OH2 3803   3.535   4.605   3.320
 1280TIP3    H1 3804   3.506   4.668   3.254
 1280TIP3    H2 3805   3.453   4.574   3.360
 1281TIP3   OH2 3806   2.549   6.745   3.574
 1281TIP3    H1 3807   2.618   6.700   3.621
 1281TIP3    H2 3808   2.471   6.734   3.629
 1282TIP3   OH2 3809   5.718   4.243   4.700
 1282TIP3    H1 3810   5.738   4.155   4.668
 1282TIP3    H2 3811   5.623   4.245   4.708
 1283TIP3   OH2 3812   4.038   0.750   3.888
 1283TIP3    H1 3813   4.025   0.758   3.793
 1283TIP3    H2 3814   4.120   0.702   3.897
 1284TIP3   OH2 3815   3.361   4.740   2.179
 1284TIP3    H1 3816   3.445   4.785   2.184
 1284TIP3    H2 3817   3.343   4.712   2.269
 1285TIP3   OH2 3818   6.042   0.697   3.670
 1285TIP3    H1 3819   5.963   0.647   3.648
 1285TIP3    H2 3820   6.009   0.783   3.698
 1286TIP3   OH2 3821   6.201   1.446   4.090
 1286TIP3    H1 3822   6.231   1.537   4.091
 1286TIP3    H2 3823   6.141   1.440   4.016
 1287TIP3   OH2 3824   4.246   0.686   4.878
 1287TIP3    H1 3825   4.206   0.688   4.791
 1287TIP3    H2 3826   4.320   0.626   4.869
 1288TIP3   OH2 3827   2.070   1.357   3.847
 1288TIP3    H1 3828   2.162   1.382   3.844
 1288TIP3    H2 3829   2.029   1.406   3.775
 1289TIP3   OH2 3830   4.465   6.488   2.656
 1289TIP3    H1 3831   4.478   6.470   2.562
 1289TIP3    H2 3832   4.430   6.577   2.658
 1290TIP3   OH2 3833   6.345   3.313   1.458
 1290TIP3    H1 3834   6.315   3.296   1.547
 1290TIP3    H2 3835   6.270   3.354   1.415
 1291TIP3   OH2 3836   0.541   3.129   2.306
 1291TIP3    H1 3837   0.575   3.190   2.372
 1291TIP3    H2 3838   0.616   3.072   2.285
 1292TIP3   OH2 3839   1.116   4.381   1.257
 1292TIP3    H1 3840   1.189   4.345   1.206
 1292TIP3    H2 3841   1.153   4.398   1.343
 1293TIP3   OH2 3842   3.519   2.245   2.628
 1293TIP3    H1 3843   3.460   2.215   2.697
 1293TIP3    H2 3844   3.464   2.297   2.570
 1294TIP3   OH2 3845   6.081   1.735   5.544
 1294TIP3    H1 3846   6.054   1.790   5.470
 1294TIP3    H2 3847   6.016   1.665   5.547
 1295TIP3   OH2 3848   2.003   6.541   2.257
 1295TIP3    H1 3849   2.041   6.454   2.266
 1295TIP3    H2 3850   1.909   6.528   2.273
 1296TIP3   OH2 3851   2.369   5.324   4.490
 1296TIP3    H1 3852   2.393   5.253   4.550
 1296TIP3    H2 3853   2.397   5.403   4.535
 1297TIP3   OH2 3854   5.333   1.818   3.312
 1297TIP3    H1 3855   5.271   1.813   3.239
 1297TIP3    H2 3856   5.339   1.728   3.344
 1298TIP3   OH2 3857   3.880   2.752   2.934
 1298TIP3    H1 3858   3.871   2.659   2.912
 1298TIP3    H2 3859   3.791   2.787   2.927
 1299TIP3   OH2 3860   6.694   0.015   2.790
 1299TIP3    H1 3861   6.747   0.039   2.714
 1299TIP3    H2 3862   6.707   0.087   2.853
 1300TIP3   OH2 3863   4.288   3.106   2.354
 1300TIP3    H1 3864   4.352   3.165   2.316
 1300TIP3    H2 3865   4.332   3.068   2.430
 1301TIP3   OH2 3866   3.054   6.662   4.801
 1301TIP3    H1 3867   3.035   6.750   4.834
 1301TIP3    H2 3868   3.117   6.626   4.863
 1302TIP3   OH2 3869   6.705   6.103   3.945
 1302TIP3    H1 3870   6.724   6.073   3.856
 1302TIP3    H2 3871   6.783   6.151   3.972
 1303TIP3   OH2 3872   4.737   3.537   3.546
 1303TIP3    H1 3873   4.660   3.534   3.603
 1303TIP3    H2 3874   4.772   3.448   3.549
 1304TIP3   OH2 3875   4.291   0.249   2.422
 1304TIP3    H1 3876   4.276   0.329   2.473
 1304TIP3    H2 3877   4.367   0.207   2.463
 1305TIP3   OH2 3878   3.444   6.317   4.694
 1305TIP3    H1 3879   3.497   6.240   4.674
 1305TIP3    H2 3880   3.469   6.342   4.783
 1306TIP3   OH2 3881   0.970   5.999   3.417
 1306TIP3    H1 3882   0.924   6.078   3.446
 1306TIP3    H2 3883   0.990   6.014   3.325
 1307TIP3   OH2 3884   7.046   5.395   0.602
 1307TIP3    H1 3885   7.080   5.441   0.678
 1307TIP3    H2 3886   7.123   5.365   0.554
 1308TIP3   OH2 3887   1.331   1.920   2.507
 1308TIP3    H1 3888   1.415   1.928   2.552
 1308TIP3    H2 3889   1.314   1.826   2.505
 1309TIP3   OH2 3890   6.150   2.585   1.002
 1309TIP3    H1 3891   6.190   2.506   1.039
 1309TIP3    H2 3892   6.111   2.555   0.920
 1310TIP3   OH2 3893   4.743   3.915   3.754
 1310TIP3    H1 3894   4.727   4.003   3.719
 1310TIP3    H2 3895   4.808   3.877   3.696
 1311TIP3   OH2 3896   0.789   1.400   1.909
 1311TIP3    H1 3897   0.869   1.446   1.885
 1311TIP3    H2 3898   0.745   1.385   1.825
 1312TIP3   OH2 3899   6.764   1.742   5.447
 1312TIP3    H1 3900   6.751   1.693   5.528
 1312TIP3    H2 3901   6.853   1.719   5.420
 1313TIP3   OH2 3902   2.214   2.651   3.669
 1313TIP3    H1 3903   2.274   2.678   3.600
 1313TIP3    H2 3904   2.254   2.572   3.706
 1314TIP3   OH2 3905   5.880   0.519   2.947
 1314TIP3    H1 3906   5.945   0.581   2.980
 1314TIP3    H2 3907   5.846   0.476   3.026
 1315TIP3   OH2 3908   5.695   6.249   5.891
 1315TIP3    H1 3909   5.700   6.319   5.827
 1315TIP3    H2 3910   5.647   6.286   5.965
 1316TIP3   OH2 3911   0.594   5.299   2.717
 1316TIP3    H1 3912   0.552   5.381   2.741
 1316TIP3    H2 3913   0.680   5.324   2.684
 1317TIP3   OH2 3914   3.073   6.661   1.785
 1317TIP3    H1 3915   3.095   6.706   1.704
 1317TIP3    H2 3916   3.112   6.574   1.775
 1318TIP3   OH2 3917   1.748   0.875   1.809
 1318TIP3    H1 3918   1.809   0.856   1.880
 1318TIP3    H2 3919   1.665   0.838   1.837
 1319TIP3   OH2 3920   0.195   4.566   0.665
 1319TIP3    H1 3921   0.267   4.629   0.662
 1319TIP3    H2 3922   0.147   4.580   0.584
 1320TIP3   OH2 3923   2.678   5.652   5.813
 1320TIP3    H1 3924   2.710   5.644   5.723
 1320TIP3    H2 3925   2.745   5.702   5.858
 1321TIP3   OH2 3926   6.445   5.650   3.026
 1321TIP3    H1 3927   6.371   5.710   3.038
 1321TIP3    H2 3928   6.520   5.699   3.059
 1322TIP3   OH2 3929   5.613   5.616   2.229
 1322TIP3    H1 3930   5.703   5.584   2.224
 1322TIP3    H2 3931   5.573   5.587   2.147
 1323TIP3   OH2 3932   1.849   0.001   0.625
 1323TIP3    H1 3933   1.760  -0.024   0.649
 1323TIP3    H2 3934   1.844   0.096   0.610
 1324TIP3   OH2 3935   1.440   3.666   4.503
 1324TIP3    H1 3936   1.375   3.630   4.563
 1324TIP3    H2 3937   1.480   3.738   4.552
 1325TIP3   OH2 3938   2.321   5.148   1.852
 1325TIP3    H1 3939   2.397   5.176   1.903
 1325TIP3    H2 3940   2.286   5.230   1.816
 1326TIP3   OH2 3941   2.931   5.816   4.719
 1326TIP3    H1 3942   3.024   5.838   4.714
 1326TIP3    H2 3943   2.893   5.887   4.771
 1327TIP3   OH2 3944   5.479   0.326   3.229
 1327TIP3    H1 3945   5.427   0.395   3.271
 1327TIP3    H2 3946   5.558   0.319   3.282
 1328TIP3   OH2 3947   2.178   1.633   1.047
 1328TIP3    H1 3948   2.161   1.552   1.094
 1328TIP3    H2 3949   2.137   1.701   1.100
 1329TIP3   OH2 3950   2.708   6.686   3.347
 1329TIP3    H1 3951   2.634   6.722   3.395
 1329TIP3    H2 3952   2.780   6.686   3.410
 1330TIP3   OH2 3953   6.818   5.702   5.022
 1330TIP3    H1 3954   6.731   5.717   4.986
 1330TIP3    H2 3955   6.804   5.684   5.115
 1331TIP3   OH2 3956   1.891   4.274   0.311
 1331TIP3    H1 3957   1.922   4.343   0.253
 1331TIP3    H2 3958   1.796   4.289   0.317
 1332TIP3   OH2 3959   2.787   2.469   0.079
 1332TIP3    H1 3960   2.753   2.559   0.085
 1332TIP3    H2 3961   2.840   2.468  -0.001
 1333TIP3   OH2 3962   0.117   5.890   4.848
 1333TIP3    H1 3963   0.208   5.891   4.879
 1333TIP3    H2 3964   0.085   5.802   4.868
 1334TIP3   OH2 3965   5.607   5.502   4.587
 1334TIP3    H1 3966   5.524   5.489   4.633
 1334TIP3    H2 3967   5.618   5.422   4.536
 1335TIP3   OH2 3968   1.987   0.461   5.177
 1335TIP3    H1 3969   1.911   0.487   5.124
 1335TIP3    H2 3970   2.060   0.462   5.116
 1336TIP3   OH2 3971   4.546   5.309   4.292
 1336TIP3    H1 3972   4.608   5.250   4.334
 1336TIP3    H2 3973   4.573   5.396   4.321
 1337TIP3   OH2 3974   2.347   3.387   1.420
 1337TIP3    H1 3975   2.347   3.319   1.353
 1337TIP3    H2 3976   2.297   3.459   1.381
 1338TIP3   OH2 3977   1.494   3.583   2.327
 1338TIP3    H1 3978   1.529   3.599   2.414
 1338TIP3    H2 3979   1.566   3.542   2.279
 1339TIP3   OH2 3980   4.695   1.578   0.073
 1339TIP3    H1 3981   4.744   1.502   0.042
 1339TIP3    H2 3982   4.720   1.587   0.165
 1340TIP3   OH2 3983   6.760   6.478   2.814
 1340TIP3    H1 3984   6.695   6.452   2.749
 1340TIP3    H2 3985   6.829   6.413   2.806
 1341TIP3   OH2 3986   1.900   0.032   1.777
 1341TIP3    H1 3987   1.856   0.106   1.819
 1341TIP3    H2 3988   1.990   0.061   1.765
 1342TIP3   OH2 3989   5.447   2.426   1.500
 1342TIP3    H1 3990   5.514   2.445   1.435
 1342TIP3    H2 3991   5.471   2.480   1.575
 1343TIP3   OH2 3992   2.499   0.127   5.130
 1343TIP3    H1 3993   2.423   0.175   5.162
 1343TIP3    H2 3994   2.547   0.101   5.209
 1344TIP3   OH2 3995   4.467   6.327   0.226
 1344TIP3    H1 3996   4.510   6.358   0.146
 1344TIP3    H2 3997   4.536   6.278   0.272
 1345TIP3   OH2 3998   1.004   4.843   4.955
 1345TIP3    H1 3999   0.984   4.929   4.918
 1345TIP3    H2 4000   1.015   4.859   5.049
 1346TIP3   OH2 4001   3.110   6.040   5.475
 1346TIP3    H1 4002   3.119   6.130   5.443
 1346TIP3    H2 4003   3.067   6.049   5.560
 1347TIP3   OH2 4004   0.380   1.290   1.895
 1347TIP3    H1 4005   0.320   1.313   1.965
 1347TIP3    H2 4006   0.323   1.266   1.822
 1348TIP3   OH2 4007   0.902   5.784   0.486
 1348TIP3    H1 4008   0.871   5.809   0.573
 1348TIP3    H2 4009   0.897   5.688   0.485
 1349TIP3   OH2 4010   4.359   3.111   2.007
 1349TIP3    H1 4011   4.279   3.060   2.017
 1349TIP3    H2 4012   4.328   3.197   1.978
 1350TIP3   OH2 4013   6.267   2.278   3.207
 1350TIP3    H1 4014   6.303   2.366   3.216
 1350TIP3    H2 4015   6.203   2.285   3.136
 1351TIP3   OH2 4016   5.058   0.817   2.486
 1351TIP3    H1 4017   5.037   0.752   2.419
 1351TIP3    H2 4018   4.990   0.807   2.552
 1352TIP3   OH2 4019   4.492   4.372   2.277
 1352TIP3    H1 4020   4.451   4.428   2.342
 1352TIP3    H2 4021   4.533   4.432   2.215
 1353TIP3   OH2 4022  -0.007   0.437   5.374
 1353TIP3    H1 4023   0.073   0.408   5.418
 1353TIP3    H2 4024   0.003   0.409   5.284
 1354TIP3   OH2 4025   5.365   6.733  -0.054
 1354TIP3    H1 4026   5.384   6.767   0.033
 1354TIP3    H2 4027   5.303   6.662  -0.039
 1355TIP3   OH2 4028   1.792   3.427   1.007
 1355TIP3    H1 4029   1.776   3.351   1.063
 1355TIP3    H2 4030   1.755   3.403   0.922
 1356TIP3   OH2 4031   6.592   6.171   3.111
 1356TIP3    H1 4032   6.600   6.080   3.081
 1356TIP3    H2 4033   6.682   6.201   3.119
 1357TIP3   OH2 4034   3.177   1.666   2.607
 1357TIP3    H1 4035   3.128   1.696   2.683
 1357TIP3    H2 4036   3.138   1.712   2.533
 1358TIP3   OH2 4037   3.038   4.698   0.537
 1358TIP3    H1 4038   3.068   4.699   0.446
 1358TIP3    H2 4039   3.075   4.777   0.576
 1359TIP3   OH2 4040   0.876   1.168   5.641
 1359TIP3    H1 4041   0.820   1.236   5.604
 1359TIP3    H2 4042   0.820   1.123   5.704
 1360TIP3   OH2 4043   0.964   3.847   0.762
 1360TIP3    H1 4044   1.050   3.888   0.748
 1360TIP3    H2 4045   0.978   3.787   0.835
 1361TIP3   OH2 4046   2.149   3.608   1.845
 1361TIP3    H1 4047   2.139   3.616   1.940
 1361TIP3    H2 4048   2.142   3.514   1.828
 1362TIP3   OH2 4049   5.086   2.584   2.656
 1362TIP3    H1 4050   5.031   2.651   2.615
 1362TIP3    H2 4051   5.114   2.529   2.583
 1363TIP3   OH2 4052   2.548   3.699   2.040
 1363TIP3    H1 4053   2.538   3.776   2.096
 1363TIP3    H2 4054   2.482   3.710   1.971
 1364TIP3   OH2 4055   0.019   1.160   1.978
 1364TIP3    H1 4056   0.066   1.113   2.047
 1364TIP3    H2 4057  -0.029   1.229   2.025
 1365TIP3   OH2 4058   1.314   1.609   0.065
 1365TIP3    H1 4059   1.386   1.664   0.036
 1365TIP3    H2 4060   1.343   1.574   0.149
 1366TIP3   OH2 4061   0.738   5.607   1.772
 1366TIP3    H1 4062   0.776   5.631   1.687
 1366TIP3    H2 4063   0.715   5.515   1.763
 1367TIP3   OH2 4064   5.108   0.824   1.939
 1367TIP3    H1 4065   5.058   0.881   1.881
 1367TIP3    H2 4066   5.043   0.789   2.001
 1368TIP3   OH2 4067   0.816   1.731   1.787
 1368TIP3    H1 4068   0.760   1.807   1.769
 1368TIP3    H2 4069   0.901   1.770   1.809
 1369TIP3   OH2 4070   1.739   0.667   1.161
 1369TIP3    H1 4071   1.786   0.738   1.205
 1369TIP3    H2 4072   1.658   0.657   1.212
 1370TIP3   OH2 4073   6.186   5.749   4.875
 1370TIP3    H1 4074   6.212   5.833   4.837
 1370TIP3    H2 4075   6.135   5.706   4.806
 1371TIP3   OH2 4076   2.190   5.397   4.826
 1371TIP3    H1 4077   2.106   5.402   4.873
 1371TIP3    H2 4078   2.256   5.409   4.894
 1372TIP3   OH2 4079   7.119   2.205   4.292
 1372TIP3    H1 4080   7.087   2.162   4.213
 1372TIP3    H2 4081   7.214   2.193   4.289
 1373TIP3   OH2 4082   4.000   3.075   4.539
 1373TIP3    H1 4083   4.062   3.059   4.611
 1373TIP3    H2 4084   3.914   3.073   4.582
 1374TIP3   OH2 4085   3.869   6.326   2.469
 1374TIP3    H1 4086   3.936   6.364   2.412
 1374TIP3    H2 4087   3.786   6.350   2.427
 1375TIP3   OH2 4088   3.422   6.059   4.503
 1375TIP3    H1 4089   3.421   6.092   4.593
 1375TIP3    H2 4090   3.367   6.120   4.454
 1376TIP3   OH2 4091   6.056   2.528   3.640
 1376TIP3    H1 4092   5.968   2.555   3.664
 1376TIP3    H2 4093   6.066   2.553   3.548
 1377TIP3   OH2 4094   3.952   2.016   4.878
 1377TIP3    H1 4095   3.895   1.980   4.810
 1377TIP3    H2 4096   3.954   1.949   4.946
 1378TIP3   OH2 4097   0.822   6.145   1.293
 1378TIP3    H1 4098   0.790   6.235   1.282
 1378TIP3    H2 4099   0.895   6.152   1.354
 1379TIP3   OH2 4100   0.644   4.298   5.037
 1379TIP3    H1 4101   0.709   4.317   4.970
 1379TIP3    H2 4102   0.590   4.228   4.999
 1380TIP3   OH2 4103   4.779   0.575   5.630
 1380TIP3    H1 4104   4.705   0.633   5.648
 1380TIP3    H2 4105   4.804   0.540   5.715
 1381TIP3   OH2 4106   4.645   6.471   2.866
 1381TIP3    H1 4107   4.567   6.500   2.914
 1381TIP3    H2 4108   4.621   6.480   2.774
 1382TIP3   OH2 4109   4.160   5.029   3.919
 1382TIP3    H1 4110   4.125   4.971   3.851
 1382TIP3    H2 4111   4.114   5.112   3.907
 1383TIP3   OH2 4112   2.519   6.466   5.293
 1383TIP3    H1 4113   2.457   6.487   5.363
 1383TIP3    H2 4114   2.598   6.514   5.316
 1384TIP3   OH2 4115   2.306   2.245   2.865
 1384TIP3    H1 4116   2.392   2.243   2.908
 1384TIP3    H2 4117   2.313   2.316   2.802
 1385TIP3   OH2 4118   5.863   0.512   5.672
 1385TIP3    H1 4119   5.944   0.526   5.623
 1385TIP3    H2 4120   5.827   0.600   5.684
 1386TIP3   OH2 4121   7.040   3.069   2.472
 1386TIP3    H1 4122   7.006   3.017   2.399
 1386TIP3    H2 4123   7.068   3.005   2.536
 1387TIP3   OH2 4124   1.020   4.674   1.439
 1387TIP3    H1 4125   1.053   4.587   1.417
 1387TIP3    H2 4126   0.931   4.658   1.471
 1388TIP3   OH2 4127   6.339   6.714   5.479
 1388TIP3    H1 4128   6.411   6.728   5.541
 1388TIP3    H2 4129   6.296   6.799   5.472
 1389TIP3   OH2 4130   1.446   2.216   5.793
 1389TIP3    H1 4131   1.498   2.221   5.874
 1389TIP3    H2 4132   1.503   2.253   5.726
 1390TIP3   OH2 4133   5.147   3.577   5.726
 1390TIP3    H1 4134   5.112   3.653   5.772
 1390TIP3    H2 4135   5.210   3.539   5.788
 1391TIP3   OH2 4136   6.778   4.069   1.127
 1391TIP3    H1 4137   6.867   4.042   1.152
 1391TIP3    H2 4138   6.780   4.073   1.032
 1392TIP3   OH2 4139   1.152   1.297   5.501
 1392TIP3    H1 4140   1.113   1.308   5.587
 1392TIP3    H2 4141   1.084   1.255   5.449
 1393TIP3   OH2 4142   3.431   2.926   2.155
 1393TIP3    H1 4143   3.516   2.928   2.200
 1393TIP3    H2 4144   3.409   3.018   2.141
 1394TIP3   OH2 4145   3.160   6.462   5.676
 1394TIP3    H1 4146   3.250   6.432   5.691
 1394TIP3    H2 4147   3.135   6.504   5.758
 1395TIP3   OH2 4148   1.147   0.764   1.193
 1395TIP3    H1 4149   1.233   0.806   1.185
 1395TIP3    H2 4150   1.087   0.836   1.212
 1396TIP3   OH2 4151   5.919   6.676   1.511
 1396TIP3    H1 4152   5.957   6.750   1.557
 1396TIP3    H2 4153   5.895   6.614   1.580
 1397TIP3   OH2 4154   1.262   6.674   1.255
 1397TIP3    H1 4155   1.257   6.749   1.195
 1397TIP3    H2 4156   1.323   6.702   1.323
 1398TIP3   OH2 4157   5.557   1.514   0.631
 1398TIP3    H1 4158   5.539   1.603   0.660
 1398TIP3    H2 4159   5.610   1.524   0.552
 1399TIP3   OH2 4160   1.952   0.657   3.918
 1399TIP3    H1 4161   2.036   0.683   3.879
 1399TIP3    H2 4162   1.946   0.710   3.998
 1400TIP3   OH2 4163   6.699   5.803   1.973
 1400TIP3    H1 4164   6.749   5.883   1.957
 1400TIP3    H2 4165   6.685   5.767   1.885
 1401TIP3   OH2 4166   5.193   6.161   4.540
 1401TIP3    H1 4167   5.167   6.248   4.569
 1401TIP3    H2 4168   5.289   6.164   4.542
 1402TIP3   OH2 4169   4.101   1.043   0.921
 1402TIP3    H1 4170   4.091   1.134   0.949
 1402TIP3    H2 4171   4.012   1.009   0.918
 1403TIP3   OH2 4172   0.084   0.419   3.972
 1403TIP3    H1 4173   0.171   0.380   3.961
 1403TIP3    H2 4174   0.024   0.344   3.966
 1404TIP3   OH2 4175   6.227   2.249   0.286
 1404TIP3    H1 4176   6.172   2.313   0.240
 1404TIP3    H2 4177   6.313   2.257   0.244
 1405TIP3   OH2 4178   6.800   3.804   3.540
 1405TIP3    H1 4179   6.713   3.842   3.525
 1405TIP3    H2 4180   6.797   3.720   3.494
 1406TIP3   OH2 4181   6.647   0.852   4.965
 1406TIP3    H1 4182   6.623   0.876   4.876
 1406TIP3    H2 4183   6.609   0.765   4.978
 1407TIP3   OH2 4184   6.044   6.283   5.049
 1407TIP3    H1 4185   6.042   6.378   5.041
 1407TIP3    H2 4186   6.055   6.267   5.143
 1408TIP3   OH2 4187   3.291   4.488   5.561
 1408TIP3    H1 4188   3.221   4.426   5.581
 1408TIP3    H2 4189   3.280   4.558   5.626
 1409TIP3   OH2 4190   6.363   4.899   1.004
 1409TIP3    H1 4191   6.406   4.961   0.946
 1409TIP3    H2 4192   6.427   4.829   1.018
 1410TIP3   OH2 4193   0.415   4.382   5.174
 1410TIP3    H1 4194   0.415   4.409   5.082
 1410TIP3    H2 4195   0.502   4.345   5.188
 1411TIP3   OH2 4196   3.661   5.149   2.167
 1411TIP3    H1 4197   3.715   5.185   2.095
 1411TIP3    H2 4198   3.571   5.168   2.141
 1412TIP3   OH2 4199   2.559   3.004   5.196
 1412TIP3    H1 4200   2.525   2.942   5.132
 1412TIP3    H2 4201   2.532   3.090   5.162
 1413TIP3   OH2 4202   2.806   6.424   5.802
 1413TIP3    H1 4203   2.898   6.397   5.802
 1413TIP3    H2 4204   2.762   6.360   5.859
 1414TIP3   OH2 4205   1.479   0.394   0.545
 1414TIP3    H1 4206   1.397   0.430   0.578
 1414TIP3    H2 4207   1.460   0.369   0.455
 1415TIP3   OH2 4208   0.423   2.335   5.293
 1415TIP3    H1 4209   0.449   2.298   5.208
 1415TIP3    H2 4210   0.328   2.325   5.296
 1416TIP3   OH2 4211   6.092   3.632   5.343
 1416TIP3    H1 4212   6.181   3.616   5.312
 1416TIP3    H2 4213   6.040   3.641   5.264
 1417TIP3   OH2 4214   2.713   3.632   5.814
 1417TIP3    H1 4215   2.791   3.624   5.759
 1417TIP3    H2 4216   2.721   3.560   5.876
 1418TIP3   OH2 4217   1.063   6.307   0.744
 1418TIP3    H1 4218   0.998   6.316   0.674
 1418TIP3    H2 4219   1.055   6.217   0.774
 1419TIP3   OH2 4220   0.706   1.805   1.135
 1419TIP3    H1 4221   0.719   1.762   1.219
 1419TIP3    H2 4222   0.628   1.763   1.098
 1420TIP3   OH2 4223   0.681   6.424   1.647
 1420TIP3    H1 4224   0.617   6.429   1.577
 1420TIP3    H2 4225   0.752   6.483   1.620
 1421TIP3   OH2 4226   2.322   6.358   2.287
 1421TIP3    H1 4227   2.247   6.313   2.248
 1421TIP3    H2 4228   2.298   6.450   2.287
 1422TIP3   OH2 4229   1.685   0.938   1.037
 1422TIP3    H1 4230   1.718   0.908   0.953
 1422TIP3    H2 4231   1.726   0.881   1.101
 1423TIP3   OH2 4232   5.250   6.398   1.023
 1423TIP3    H1 4233   5.245   6.302   1.019
 1423TIP3    H2 4234   5.220   6.419   1.111
 1424TIP3   OH2 4235   5.422   6.132   0.497
 1424TIP3    H1 4236   5.508   6.100   0.523
 1424TIP3    H2 4237   5.363   6.059   0.516
 1425TIP3   OH2 4238   2.570   0.132   4.558
 1425TIP3    H1 4239   2.603   0.043   4.547
 1425TIP3    H2 4240   2.591   0.176   4.476
 1426TIP3   OH2 4241   2.951   6.236   4.813
 1426TIP3    H1 4242   3.000   6.174   4.867
 1426TIP3    H2 4243   2.921   6.303   4.875
 1427TIP3   OH2 4244   1.836   4.942   4.659
 1427TIP3    H1 4245   1.810   4.981   4.742
 1427TIP3    H2 4246   1.913   4.889   4.680
 1428TIP3   OH2 4247   3.882   1.881   0.526
 1428TIP3    H1 4248   3.947   1.947   0.504
 1428TIP3    H2 4249   3.799   1.918   0.495
 1429TIP3   OH2 4250   1.717   6.066   4.856
 1429TIP3    H1 4251   1.700   6.135   4.792
 1429TIP3    H2 4252   1.676   5.988   4.819
 1430TIP3   OH2 4253   0.908   0.127   3.500
 1430TIP3    H1 4254   0.987   0.146   3.450
 1430TIP3    H2 4255   0.869   0.051   3.456
 1431TIP3   OH2 4256   3.379   1.755   1.581
 1431TIP3    H1 4257   3.331   1.673   1.566
 1431TIP3    H2 4258   3.425   1.742   1.664
 1432TIP3   OH2 4259   0.965   5.326   4.122
 1432TIP3    H1 4260   1.017   5.402   4.147
 1432TIP3    H2 4261   1.023   5.273   4.069
 1433TIP3   OH2 4262   1.051   4.592   1.705
 1433TIP3    H1 4263   1.024   4.501   1.722
 1433TIP3    H2 4264   1.062   4.596   1.610
 1434TIP3   OH2 4265   0.773   6.310   0.122
 1434TIP3    H1 4266   0.749   6.240   0.183
 1434TIP3    H2 4267   0.851   6.276   0.077
 1435TIP3   OH2 4268   0.999   6.128   5.614
 1435TIP3    H1 4269   1.019   6.034   5.616
 1435TIP3    H2 4270   0.915   6.134   5.569
 1436TIP3   OH2 4271   3.631   0.697   0.999
 1436TIP3    H1 4272   3.627   0.732   0.910
 1436TIP3    H2 4273   3.719   0.661   1.007
 1437TIP3   OH2 4274   4.921   4.754   5.793
 1437TIP3    H1 4275   4.988   4.785   5.855
 1437TIP3    H2 4276   4.896   4.668   5.826
 1438TIP3   OH2 4277   2.096   4.998   1.455
 1438TIP3    H1 4278   2.149   5.071   1.423
 1438TIP3    H2 4279   2.030   5.040   1.510
 1439TIP3   OH2 4280   4.891   1.079   3.675
 1439TIP3    H1 4281   4.979   1.100   3.641
 1439TIP3    H2 4282   4.849   1.164   3.685
 1440TIP3   OH2 4283   4.614   6.263   1.867
 1440TIP3    H1 4284   4.526   6.269   1.830
 1440TIP3    H2 4285   4.672   6.256   1.791
 1441TIP3   OH2 4286   4.797   0.012   2.628
 1441TIP3    H1 4287   4.891  -0.004   2.623
 1441TIP3    H2 4288   4.781   0.082   2.565
 1442TIP3   OH2 4289   1.911   1.500   2.368
 1442TIP3    H1 4290   1.996   1.491   2.410
 1442TIP3    H2 4291   1.848   1.491   2.439
 1443TIP3   OH2 4292   5.323   3.832   2.383
 1443TIP3    H1 4293   5.237   3.874   2.382
 1443TIP3    H2 4294   5.371   3.878   2.451
 1444TIP3   OH2 4295   1.865   6.739   4.539
 1444TIP3    H1 4296   1.891   6.661   4.588
 1444TIP3    H2 4297   1.825   6.705   4.459
 1445TIP3   OH2 4298   2.276   6.695   0.962
 1445TIP3    H1 4299   2.225   6.717   1.039
 1445TIP3    H2 4300   2.222   6.723   0.888
 1446TIP3   OH2 4301   5.459   1.395   4.802
 1446TIP3    H1 4302   5.419   1.357   4.880
 1446TIP3    H2 4303   5.549   1.415   4.829
 1447TIP3   OH2 4304   3.241   5.382   3.882
 1447TIP3    H1 4305   3.213   5.311   3.824
 1447TIP3    H2 4306   3.284   5.338   3.954
 1448TIP3   OH2 4307   1.683   1.472   4.558
 1448TIP3    H1 4308   1.670   1.534   4.486
 1448TIP3    H2 4309   1.698   1.388   4.515
 1449TIP3   OH2 4310   3.932   4.396   3.399
 1449TIP3    H1 4311   3.992   4.336   3.444
 1449TIP3    H2 4312   3.989   4.448   3.343
 1450TIP3   OH2 4313   4.450   4.287   2.734
 1450TIP3    H1 4314   4.534   4.321   2.703
 1450TIP3    H2 4315   4.398   4.365   2.754
 1451TIP3   OH2 4316   3.530   4.014   4.164
 1451TIP3    H1 4317   3.446   4.059   4.157
 1451TIP3    H2 4318   3.511   3.937   4.218
 1452TIP3   OH2 4319   4.459   1.664   2.240
 1452TIP3    H1 4320   4.409   1.681   2.320
 1452TIP3    H2 4321   4.535   1.722   2.246
 1453TIP3   OH2 4322   2.322   4.998   4.147
 1453TIP3    H1 4323   2.412   4.994   4.115
 1453TIP3    H2 4324   2.329   4.981   4.241
 1454TIP3   OH2 4325   7.053   5.903   1.323
 1454TIP3    H1 4326   7.079   5.961   1.395
 1454TIP3    H2 4327   7.011   5.829   1.367
 1455TIP3   OH2 4328   4.794   5.889   5.815
 1455TIP3    H1 4329   4.710   5.847   5.800
 1455TIP3    H2 4330   4.793   5.967   5.759
 1456TIP3   OH2 4331   6.255   4.694   5.360
 1456TIP3    H1 4332   6.346   4.723   5.367
 1456TIP3    H2 4333   6.241   4.680   5.267
 1457TIP3   OH2 4334   4.955   0.764   0.191
 1457TIP3    H1 4335   4.940   0.839   0.247
 1457TIP3    H2 4336   4.867   0.731   0.171
 1458TIP3   OH2 4337   1.841   0.276   0.543
 1458TIP3    H1 4338   1.779   0.341   0.511
 1458TIP3    H2 4339   1.885   0.244   0.464
 1459TIP3   OH2 4340   5.196   0.694   4.961
 1459TIP3    H1 4341   5.256   0.636   4.914
 1459TIP3    H2 4342   5.118   0.699   4.905
 1460TIP3   OH2 4343   4.609   1.059   5.224
 1460TIP3    H1 4344   4.523   1.017   5.229
 1460TIP3    H2 4345   4.593   1.149   5.252
 1461TIP3   OH2 4346   2.250   3.996   2.733
 1461TIP3    H1 4347   2.269   3.903   2.744
 1461TIP3    H2 4348   2.177   3.999   2.670
 1462TIP3   OH2 4349   1.937   6.368   4.912
 1462TIP3    H1 4350   1.910   6.297   4.970
 1462TIP3    H2 4351   1.882   6.442   4.938
 1463TIP3   OH2 4352   2.008   2.630   4.220
 1463TIP3    H1 4353   2.086   2.631   4.164
 1463TIP3    H2 4354   2.034   2.678   4.298
 1464TIP3   OH2 4355   2.675   5.091   3.726
 1464TIP3    H1 4356   2.699   5.038   3.650
 1464TIP3    H2 4357   2.673   5.181   3.693
 1465TIP3   OH2 4358   5.154   5.437   4.225
 1465TIP3    H1 4359   5.211   5.498   4.178
 1465TIP3    H2 4360   5.084   5.417   4.163
 1466TIP3   OH2 4361   3.931   1.229   3.864
 1466TIP3    H1 4362   3.995   1.282   3.815
 1466TIP3    H2 4363   3.934   1.266   3.953
 1467TIP3   OH2 4364   3.909   1.202   3.478
 1467TIP3    H1 4365   3.904   1.251   3.395
 1467TIP3    H2 4366   3.848   1.129   3.466
 1468TIP3   OH2 4367   4.807   0.973   4.763
 1468TIP3    H1 4368   4.815   0.944   4.854
 1468TIP3    H2 4369   4.748   1.049   4.767
 1469TIP3   OH2 4370   4.806   6.656   5.533
 1469TIP3    H1 4371   4.716   6.658   5.567
 1469TIP3    H2 4372   4.818   6.741   5.492
 1470TIP3   OH2 4373   3.822   3.694   4.095
 1470TIP3    H1 4374   3.913   3.687   4.067
 1470TIP3    H2 4375   3.826   3.732   4.183
 1471TIP3   OH2 4376   0.304   5.172   3.177
 1471TIP3    H1 4377   0.287   5.078   3.183
 1471TIP3    H2 4378   0.234   5.206   3.121
 1472TIP3   OH2 4379   6.654   4.756   5.841
 1472TIP3    H1 4380   6.580   4.803   5.880
 1472TIP3    H2 4381   6.726   4.771   5.902
 1473TIP3   OH2 4382   4.055   1.722   2.172
 1473TIP3    H1 4383   3.978   1.777   2.184
 1473TIP3    H2 4384   4.118   1.752   2.238
 1474TIP3   OH2 4385   5.249   0.220   2.319
 1474TIP3    H1 4386   5.311   0.154   2.288
 1474TIP3    H2 4387   5.303   0.283   2.366
 1475TIP3   OH2 4388   4.539   1.429   0.720
 1475TIP3    H1 4389   4.507   1.518   0.735
 1475TIP3    H2 4390   4.541   1.420   0.625
 1476TIP3   OH2 4391   1.032   0.890   5.812
 1476TIP3    H1 4392   0.955   0.919   5.862
 1476TIP3    H2 4393   1.087   0.846   5.876
 1477TIP3   OH2 4394   4.778   0.580   0.915
 1477TIP3    H1 4395   4.840   0.633   0.965
 1477TIP3    H2 4396   4.707   0.641   0.893
 1478TIP3   OH2 4397   5.427   3.420   0.178
 1478TIP3    H1 4398   5.354   3.407   0.238
 1478TIP3    H2 4399   5.414   3.508   0.143
 1479TIP3   OH2 4400   7.204   1.266   3.004
 1479TIP3    H1 4401   7.234   1.269   2.913
 1479TIP3    H2 4402   7.209   1.174   3.029
 1480TIP3   OH2 4403   3.612   2.832   2.867
 1480TIP3    H1 4404   3.572   2.858   2.784
 1480TIP3    H2 4405   3.551   2.769   2.905
 1481TIP3   OH2 4406   3.750   3.915   3.904
 1481TIP3    H1 4407   3.668   3.867   3.893
 1481TIP3    H2 4408   3.817   3.846   3.913
 1482TIP3   OH2 4409   1.425   0.456   1.792
 1482TIP3    H1 4410   1.483   0.392   1.752
 1482TIP3    H2 4411   1.362   0.404   1.843
 1483TIP3   OH2 4412   6.790   0.721   0.586
 1483TIP3    H1 4413   6.871   0.727   0.637
 1483TIP3    H2 4414   6.724   0.691   0.648
 1484TIP3   OH2 4415   4.465   4.365   1.320
 1484TIP3    H1 4416   4.373   4.389   1.306
 1484TIP3    H2 4417   4.462   4.270   1.335
 1485TIP3   OH2 4418   0.593   6.074   0.232
 1485TIP3    H1 4419   0.500   6.069   0.213
 1485TIP3    H2 4420   0.636   6.053   0.149
 1486TIP3   OH2 4421   6.160   0.677   1.282
 1486TIP3    H1 4422   6.218   0.664   1.357
 1486TIP3    H2 4423   6.074   0.694   1.322
 1487TIP3   OH2 4424   5.685   2.940   2.594
 1487TIP3    H1 4425   5.591   2.922   2.592
 1487TIP3    H2 4426   5.725   2.855   2.610
 1488TIP3   OH2 4427   5.717   2.488   2.806
 1488TIP3    H1 4428   5.735   2.396   2.790
 1488TIP3    H2 4429   5.642   2.508   2.750
 1489TIP3   OH2 4430   1.290   2.262   3.084
 1489TIP3    H1 4431   1.224   2.210   3.130
 1489TIP3    H2 4432   1.349   2.197   3.046
 1490TIP3   OH2 4433   3.515   0.845   2.471
 1490TIP3    H1 4434   3.451   0.899   2.517
 1490TIP3    H2 4435   3.583   0.907   2.443
 1491TIP3   OH2 4436   4.534   1.950   3.434
 1491TIP3    H1 4437   4.440   1.962   3.446
 1491TIP3    H2 4438   4.561   2.024   3.380
 1492TIP3   OH2 4439   2.169   3.632   4.859
 1492TIP3    H1 4440   2.111   3.680   4.917
 1492TIP3    H2 4441   2.257   3.664   4.881
 1493TIP3   OH2 4442   1.658   1.252   5.608
 1493TIP3    H1 4443   1.709   1.224   5.533
 1493TIP3    H2 4444   1.568   1.228   5.587
 1494TIP3   OH2 4445   3.032   1.049   3.668
 1494TIP3    H1 4446   3.026   1.006   3.752
 1494TIP3    H2 4447   3.019   1.142   3.688
 1495TIP3   OH2 4448   3.612   4.222   4.001
 1495TIP3    H1 4449   3.584   4.134   4.026
 1495TIP3    H2 4450   3.660   4.255   4.078
 1496TIP3   OH2 4451   2.282   5.201   1.405
 1496TIP3    H1 4452   2.360   5.206   1.351
 1496TIP3    H2 4453   2.314   5.174   1.491
 1497TIP3   OH2 4454   5.074   2.342   0.890
 1497TIP3    H1 4455   5.048   2.400   0.819
 1497TIP3    H2 4456   5.083   2.400   0.966
 1498TIP3   OH2 4457   5.739   2.381   3.459
 1498TIP3    H1 4458   5.780   2.388   3.373
 1498TIP3    H2 4459   5.737   2.287   3.478
 1499TIP3   OH2 4460   5.675   0.940   3.177
 1499TIP3    H1 4461   5.705   1.008   3.238
 1499TIP3    H2 4462   5.580   0.956   3.169
 1500TIP3   OH2 4463   1.381   1.162   5.585
 1500TIP3    H1 4464   1.333   1.081   5.598
 1500TIP3    H2 4465   1.314   1.226   5.559
 1501TIP3   OH2 4466   3.768   1.523   5.527
 1501TIP3    H1 4467   3.748   1.450   5.468
 1501TIP3    H2 4468   3.717   1.596   5.492
 1502TIP3   OH2 4469   7.233   3.142   0.351
 1502TIP3    H1 4470   7.285   3.215   0.383
 1502TIP3    H2 4471   7.158   3.182   0.309
 1503TIP3   OH2 4472   4.075   4.320   2.842
 1503TIP3    H1 4473   4.016   4.268   2.787
 1503TIP3    H2 4474   4.113   4.256   2.902
 1504TIP3   OH2 4475   2.150   4.621   2.046
 1504TIP3    H1 4476   2.198   4.680   2.104
 1504TIP3    H2 4477   2.203   4.617   1.966
 1505TIP3   OH2 4478   3.354   6.280   1.408
 1505TIP3    H1 4479   3.333   6.190   1.434
 1505TIP3    H2 4480   3.270   6.325   1.410
 1506TIP3   OH2 4481   4.387   2.211   3.150
 1506TIP3    H1 4482   4.360   2.295   3.186
 1506TIP3    H2 4483   4.347   2.208   3.063
 1507TIP3   OH2 4484   2.398   6.107   5.635
 1507TIP3    H1 4485   2.485   6.071   5.616
 1507TIP3    H2 4486   2.341   6.071   5.568
 1508TIP3   OH2 4487   1.784   4.267   1.174
 1508TIP3    H1 4488   1.759   4.346   1.223
 1508TIP3    H2 4489   1.879   4.272   1.167
 1509TIP3   OH2 4490   1.776   2.101   0.764
 1509TIP3    H1 4491   1.717   2.146   0.825
 1509TIP3    H2 4492   1.831   2.171   0.728
 1510TIP3   OH2 4493   6.734   4.911   0.686
 1510TIP3    H1 4494   6.792   4.987   0.686
 1510TIP3    H2 4495   6.646   4.947   0.695
 1511TIP3   OH2 4496   2.824   4.836   1.503
 1511TIP3    H1 4497   2.867   4.772   1.447
 1511TIP3    H2 4498   2.880   4.841   1.580
 1512TIP3   OH2 4499   6.787   2.834   5.645
 1512TIP3    H1 4500   6.724   2.879   5.701
 1512TIP3    H2 4501   6.809   2.754   5.693
 1513TIP3   OH2 4502   0.797   4.736   4.727
 1513TIP3    H1 4503   0.755   4.735   4.813
 1513TIP3    H2 4504   0.816   4.644   4.707
 1514TIP3   OH2 4505   3.349   4.559   3.710
 1514TIP3    H1 4506   3.443   4.540   3.713
 1514TIP3    H2 4507   3.314   4.517   3.788
 1515TIP3   OH2 4508   4.678   2.526   5.004
 1515TIP3    H1 4509   4.644   2.554   5.089
 1515TIP3    H2 4510   4.605   2.541   4.943
 1516TIP3   OH2 4511   0.883   0.462   0.091
 1516TIP3    H1 4512   0.940   0.388   0.068
 1516TIP3    H2 4513   0.907   0.483   0.181
 1517TIP3   OH2 4514   7.036   5.988   2.876
 1517TIP3    H1 4515   7.101   5.937   2.827
 1517TIP3    H2 4516   6.953   5.944   2.858
 1518TIP3   OH2 4517   2.147   5.785   3.891
 1518TIP3    H1 4518   2.226   5.765   3.839
 1518TIP3    H2 4519   2.144   5.716   3.957
 1519TIP3   OH2 4520   3.310   5.033   2.090
 1519TIP3    H1 4521   3.344   4.944   2.093
 1519TIP3    H2 4522   3.246   5.037   2.161
 1520TIP3   OH2 4523   0.718   0.945   0.089
 1520TIP3    H1 4524   0.776   0.937   0.013
 1520TIP3    H2 4525   0.645   0.998   0.057
 1521TIP3   OH2 4526   5.597   6.290   0.825
 1521TIP3    H1 4527   5.596   6.369   0.879
 1521TIP3    H2 4528   5.619   6.219   0.885
 1522TIP3   OH2 4529   3.293   1.807   4.000
 1522TIP3    H1 4530   3.373   1.755   4.003
 1522TIP3    H2 4531   3.323   1.895   3.975
 1523TIP3   OH2 4532   4.602   0.898   4.233
 1523TIP3    H1 4533   4.591   0.901   4.138
 1523TIP3    H2 4534   4.590   0.805   4.255
 1524TIP3   OH2 4535   4.612   3.278   2.776
 1524TIP3    H1 4536   4.621   3.363   2.818
 1524TIP3    H2 4537   4.564   3.296   2.695
 1525TIP3   OH2 4538   6.612   1.198   1.644
 1525TIP3    H1 4539   6.530   1.178   1.689
 1525TIP3    H2 4540   6.605   1.292   1.623
 1526TIP3   OH2 4541   3.353   2.144   2.836
 1526TIP3    H1 4542   3.402   2.086   2.895
 1526TIP3    H2 4543   3.312   2.208   2.894
 1527TIP3   OH2 4544   6.675   3.289   3.413
 1527TIP3    H1 4545   6.580   3.291   3.426
 1527TIP3    H2 4546   6.711   3.311   3.498
 1528TIP3   OH2 4547   2.181   2.109   2.155
 1528TIP3    H1 4548   2.190   2.051   2.230
 1528TIP3    H2 4549   2.223   2.062   2.083
 1529TIP3   OH2 4550   5.640   5.517   5.249
 1529TIP3    H1 4551   5.596   5.527   5.165
 1529TIP3    H2 4552   5.633   5.603   5.290
 1530TIP3   OH2 4553   2.747   6.237   0.728
 1530TIP3    H1 4554   2.819   6.280   0.681
 1530TIP3    H2 4555   2.787   6.207   0.809
 1531TIP3   OH2 4556   6.386   2.461   3.501
 1531TIP3    H1 4557   6.394   2.447   3.407
 1531TIP3    H2 4558   6.397   2.374   3.540
 1532TIP3   OH2 4559   1.329   4.924   1.883
 1532TIP3    H1 4560   1.256   4.978   1.852
 1532TIP3    H2 4561   1.360   4.969   1.962
 1533TIP3   OH2 4562   6.372   3.851   5.029
 1533TIP3    H1 4563   6.437   3.903   4.981
 1533TIP3    H2 4564   6.291   3.902   5.022
 1534TIP3   OH2 4565   6.681   0.565   5.176
 1534TIP3    H1 4566   6.670   0.593   5.267
 1534TIP3    H2 4567   6.776   0.558   5.165
 1535TIP3   OH2 4568   1.044   2.506   1.152
 1535TIP3    H1 4569   1.098   2.510   1.231
 1535TIP3    H2 4570   1.041   2.413   1.130
 1536TIP3   OH2 4571   6.396   3.840   0.664
 1536TIP3    H1 4572   6.464   3.868   0.725
 1536TIP3    H2 4573   6.335   3.790   0.717
 1537TIP3   OH2 4574   6.860   6.330   3.427
 1537TIP3    H1 4575   6.827   6.320   3.516
 1537TIP3    H2 4576   6.855   6.424   3.410
 1538TIP3   OH2 4577   6.418   0.165   1.624
 1538TIP3    H1 4578   6.510   0.149   1.648
 1538TIP3    H2 4579   6.377   0.193   1.706
 1539TIP3   OH2 4580   5.293   0.048   5.123
 1539TIP3    H1 4581   5.223   0.086   5.177
 1539TIP3    H2 4582   5.251  -0.027   5.080
 1540TIP3   OH2 4583   1.874   1.395   1.486
 1540TIP3    H1 4584   1.887   1.486   1.512
 1540TIP3    H2 4585   1.780   1.379   1.497
 1541TIP3   OH2 4586   0.034   1.257   3.657
 1541TIP3    H1 4587   0.116   1.240   3.611
 1541TIP3    H2 4588   0.014   1.174   3.701
 1542TIP3   OH2 4589   3.614   2.257   2.327
 1542TIP3    H1 4590   3.576   2.336   2.287
 1542TIP3    H2 4591   3.539   2.199   2.340
 1543TIP3   OH2 4592   3.903   4.601   2.050
 1543TIP3    H1 4593   3.894   4.511   2.081
 1543TIP3    H2 4594   3.937   4.592   1.961
 1544TIP3   OH2 4595   5.061  -0.016   2.520
 1544TIP3    H1 4596   5.068   0.057   2.459
 1544TIP3    H2 4597   5.138  -0.008   2.576
 1545TIP3   OH2 4598   1.256   2.823   3.394
 1545TIP3    H1 4599   1.294   2.867   3.470
 1545TIP3    H2 4600   1.165   2.855   3.391
 1546TIP3   OH2 4601   3.233   0.255   4.973
 1546TIP3    H1 4602   3.300   0.317   5.002
 1546TIP3    H2 4603   3.154   0.308   4.960
 1547TIP3   OH2 4604   6.252   2.577   3.224
 1547TIP3    H1 4605   6.226   2.663   3.192
 1547TIP3    H2 4606   6.182   2.552   3.284
 1548TIP3   OH2 4607   0.809   5.148   0.517
 1548TIP3    H1 4608   0.730   5.173   0.566
 1548TIP3    H2 4609   0.845   5.074   0.565
 1549TIP3   OH2 4610   1.092   5.068   4.504
 1549TIP3    H1 4611   1.107   5.101   4.415
 1549TIP3    H2 4612   1.062   5.145   4.553
 1550TIP3   OH2 4613   4.204   5.554   4.994
 1550TIP3    H1 4614   4.291   5.515   5.007
 1550TIP3    H2 4615   4.145   5.479   4.992
 1551TIP3   OH2 4616   6.449   2.015   1.171
 1551TIP3    H1 4617   6.446   1.923   1.199
 1551TIP3    H2 4618   6.423   2.065   1.248
 1552TIP3   OH2 4619   5.954   0.966   5.447
 1552TIP3    H1 4620   6.000   0.897   5.399
 1552TIP3    H2 4621   5.912   0.920   5.519
 1553TIP3   OH2 4622   5.333   5.718   0.708
 1553TIP3    H1 4623   5.346   5.648   0.771
 1553TIP3    H2 4624   5.241   5.743   0.718
 1554TIP3   OH2 4625   5.047   2.374   5.124
 1554TIP3    H1 4626   5.000   2.404   5.046
 1554TIP3    H2 4627   4.981   2.330   5.177
 1555TIP3   OH2 4628   4.359   0.101   3.043
 1555TIP3    H1 4629   4.371   0.152   2.964
 1555TIP3    H2 4630   4.363   0.010   3.014
 1556TIP3   OH2 4631   3.878   5.774   2.562
 1556TIP3    H1 4632   3.793   5.783   2.606
 1556TIP3    H2 4633   3.899   5.682   2.571
 1557TIP3   OH2 4634   0.219   5.825   5.839
 1557TIP3    H1 4635   0.228   5.848   5.747
 1557TIP3    H2 4636   0.217   5.909   5.885
 1558TIP3   OH2 4637   2.997   1.792   2.392
 1558TIP3    H1 4638   2.939   1.809   2.318
 1558TIP3    H2 4639   2.937   1.776   2.465
 1559TIP3   OH2 4640   0.166   4.593   2.270
 1559TIP3    H1 4641   0.181   4.602   2.176
 1559TIP3    H2 4642   0.083   4.639   2.285
 1560TIP3   OH2 4643   5.848   5.268   3.914
 1560TIP3    H1 4644   5.807   5.293   3.997
 1560TIP3    H2 4645   5.884   5.181   3.931
 1561TIP3   OH2 4646   6.978   1.830   1.225
 1561TIP3    H1 4647   7.002   1.750   1.179
 1561TIP3    H2 4648   7.056   1.854   1.275
 1562TIP3   OH2 4649   2.512   6.103   0.936
 1562TIP3    H1 4650   2.572   6.165   0.894
 1562TIP3    H2 4651   2.492   6.040   0.867
 1563TIP3   OH2 4652   3.575   4.615   1.963
 1563TIP3    H1 4653   3.589   4.647   2.052
 1563TIP3    H2 4654   3.593   4.690   1.907
 1564TIP3   OH2 4655   0.619   0.358   2.325
 1564TIP3    H1 4656   0.623   0.276   2.375
 1564TIP3    H2 4657   0.698   0.358   2.271
 1565TIP3   OH2 4658   0.424   3.479   3.810
 1565TIP3    H1 4659   0.456   3.435   3.889
 1565TIP3    H2 4660   0.491   3.544   3.790
 1566TIP3   OH2 4661   0.039   5.364   4.847
 1566TIP3    H1 4662  -0.051   5.366   4.816
 1566TIP3    H2 4663   0.077   5.287   4.805
 1567TIP3   OH2 4664   3.807   2.161   3.756
 1567TIP3    H1 4665   3.855   2.082   3.782
 1567TIP3    H2 4666   3.828   2.225   3.824
 1568TIP3   OH2 4667   6.356   4.472   2.026
 1568TIP3    H1 4668   6.388   4.550   2.071
 1568TIP3    H2 4669   6.278   4.502   1.979
 1569TIP3   OH2 4670   2.188   1.661   3.333
 1569TIP3    H1 4671   2.143   1.612   3.264
 1569TIP3    H2 4672   2.250   1.598   3.369
 1570TIP3   OH2 4673   1.593   0.411   2.148
 1570TIP3    H1 4674   1.520   0.470   2.131
 1570TIP3    H2 4675   1.552   0.331   2.182
 1571TIP3   OH2 4676   4.032   6.129   1.218
 1571TIP3    H1 4677   4.023   6.157   1.127
 1571TIP3    H2 4678   3.949   6.154   1.259
 1572TIP3   OH2 4679   2.389   2.751   3.465
 1572TIP3    H1 4680   2.379   2.846   3.478
 1572TIP3    H2 4681   2.474   2.741   3.424
 1573TIP3   OH2 4682   6.015   4.235   0.310
 1573TIP3    H1 4683   5.972   4.261   0.391
 1573TIP3    H2 4684   5.976   4.150   0.288
 1574TIP3   OH2 4685   2.998   4.574   4.255
 1574TIP3    H1 4686   2.988   4.559   4.161
 1574TIP3    H2 4687   3.092   4.576   4.269
 1575TIP3   OH2 4688   0.267   1.904   4.995
 1575TIP3    H1 4689   0.187   1.952   4.974
 1575TIP3    H2 4690   0.308   1.887   4.910
 1576TIP3   OH2 4691   1.658   2.788   2.709
 1576TIP3    H1 4692   1.581   2.784   2.765
 1576TIP3    H2 4693   1.726   2.741   2.758
 1577TIP3   OH2 4694   1.909   3.417   0.561
 1577TIP3    H1 4695   1.848   3.442   0.492
 1577TIP3    H2 4696   1.917   3.321   0.552
 1578TIP3   OH2 4697   5.779   0.912   0.468
 1578TIP3    H1 4698   5.759   0.982   0.406
 1578TIP3    H2 4699   5.805   0.838   0.412
 1579TIP3   OH2 4700   4.190   3.432   3.259
 1579TIP3    H1 4701   4.161   3.403   3.172
 1579TIP3    H2 4702   4.283   3.410   3.260
 1580TIP3   OH2 4703   1.263   1.746   5.400
 1580TIP3    H1 4704   1.272   1.656   5.371
 1580TIP3    H2 4705   1.353   1.779   5.406
 1581TIP3   OH2 4706   0.422   3.430   4.934
 1581TIP3    H1 4707   0.432   3.350   4.985
 1581TIP3    H2 4708   0.329   3.433   4.912
 1582TIP3   OH2 4709   0.884   1.396   2.966
 1582TIP3    H1 4710   0.836   1.313   2.972
 1582TIP3    H2 4711   0.819   1.461   2.942
 1583TIP3   OH2 4712   7.160   1.003   3.752
 1583TIP3    H1 4713   7.166   0.918   3.796
 1583TIP3    H2 4714   7.147   0.980   3.660
 1584TIP3   OH2 4715   5.772   0.763   1.932
 1584TIP3    H1 4716   5.677   0.747   1.931
 1584TIP3    H2 4717   5.779   0.858   1.945
 1585TIP3   OH2 4718   3.048   2.484   5.842
 1585TIP3    H1 4719   3.091   2.528   5.915
 1585TIP3    H2 4720   3.105   2.501   5.767
 1586TIP3   OH2 4721   1.349   2.375   5.058
 1586TIP3    H1 4722   1.344   2.461   5.098
 1586TIP3    H2 4723   1.321   2.388   4.967
 1587TIP3   OH2 4724   0.682   3.887   4.761
 1587TIP3    H1 4725   0.729   3.912   4.681
 1587TIP3    H2 4726   0.689   3.791   4.763
 1588TIP3   OH2 4727   6.977   0.333   1.568
 1588TIP3    H1 4728   6.891   0.374   1.576
 1588TIP3    H2 4729   6.966   0.265   1.502
 1589TIP3   OH2 4730   3.839   4.557   3.600
 1589TIP3    H1 4731   3.853   4.478   3.546
 1589TIP3    H2 4732   3.927   4.593   3.612
 1590TIP3   OH2 4733   2.933   5.810   2.814
 1590TIP3    H1 4734   2.959   5.886   2.867
 1590TIP3    H2 4735   2.915   5.847   2.727
 1591TIP3   OH2 4736   1.023   5.841   2.959
 1591TIP3    H1 4737   1.029   5.753   2.921
 1591TIP3    H2 4738   0.934   5.847   2.992
 1592TIP3   OH2 4739   0.546   2.175   1.884
 1592TIP3    H1 4740   0.536   2.243   1.950
 1592TIP3    H2 4741   0.465   2.125   1.889
 1593TIP3   OH2 4742   5.063   1.115   5.472
 1593TIP3    H1 4743   5.005   1.166   5.529
 1593TIP3    H2 4744   5.115   1.062   5.533
 1594TIP3   OH2 4745   4.218   2.247   4.644
 1594TIP3    H1 4746   4.129   2.214   4.631
 1594TIP3    H2 4747   4.273   2.184   4.598
 1595TIP3   OH2 4748   3.311   4.890   0.970
 1595TIP3    H1 4749   3.264   4.888   0.886
 1595TIP3    H2 4750   3.401   4.867   0.947
 1596TIP3   OH2 4751   2.763   1.188   5.623
 1596TIP3    H1 4752   2.680   1.141   5.624
 1596TIP3    H2 4753   2.740   1.279   5.638
 1597TIP3   OH2 4754   7.062   0.741   0.234
 1597TIP3    H1 4755   6.992   0.776   0.179
 1597TIP3    H2 4756   7.073   0.806   0.303
 1598TIP3   OH2 4757   5.601   6.037   0.160
 1598TIP3    H1 4758   5.667   6.095   0.198
 1598TIP3    H2 4759   5.631   5.949   0.183
 1599TIP3   OH2 4760   1.215   4.035   4.096
 1599TIP3    H1 4761   1.212   4.129   4.079
 1599TIP3    H2 4762   1.206   4.027   4.191
 1600TIP3   OH2 4763   5.424   0.478   5.761
 1600TIP3    H1 4764   5.409   0.497   5.668
 1600TIP3    H2 4765   5.511   0.438   5.764
 1601TIP3   OH2 4766   3.884   3.402   5.011
 1601TIP3    H1 4767   3.946   3.417   4.940
 1601TIP3    H2 4768   3.827   3.478   5.010
 1602TIP3   OH2 4769   4.271   2.174   2.543
 1602TIP3    H1 4770   4.201   2.219   2.495
 1602TIP3    H2 4771   4.344   2.236   2.542
 1603TIP3   OH2 4772   0.604   5.959   4.476
 1603TIP3    H1 4773   0.536   5.898   4.449
 1603TIP3    H2 4774   0.686   5.912   4.463
 1604TIP3   OH2 4775   0.022   1.634   1.175
 1604TIP3    H1 4776   0.113   1.606   1.186
 1604TIP3    H2 4777  -0.015   1.630   1.263
 1605TIP3   OH2 4778   6.208   6.029   4.812
 1605TIP3    H1 4779   6.148   6.081   4.759
 1605TIP3    H2 4780   6.281   6.089   4.830
 1606TIP3   OH2 4781   2.455   3.126   4.930
 1606TIP3    H1 4782   2.422   3.178   4.857
 1606TIP3    H2 4783   2.530   3.078   4.894
 1607TIP3   OH2 4784   0.546   6.082   4.727
 1607TIP3    H1 4785   0.568   6.025   4.653
 1607TIP3    H2 4786   0.492   6.151   4.689
 1608TIP3   OH2 4787   2.501   1.579   5.601
 1608TIP3    H1 4788   2.443   1.504   5.600
 1608TIP3    H2 4789   2.550   1.571   5.683
 1609TIP3   OH2 4790   6.103   2.354   1.566
 1609TIP3    H1 4791   6.159   2.393   1.633
 1609TIP3    H2 4792   6.063   2.429   1.522
 1610TIP3   OH2 4793   5.542   4.111   2.282
 1610TIP3    H1 4794   5.546   4.034   2.226
 1610TIP3    H2 4795   5.559   4.078   2.370
 1611TIP3   OH2 4796   1.971   2.224   5.143
 1611TIP3    H1 4797   2.025   2.147   5.165
 1611TIP3    H2 4798   1.968   2.275   5.224
 1612TIP3   OH2 4799   4.982   2.153   3.982
 1612TIP3    H1 4800   5.010   2.062   3.998
 1612TIP3    H2 4801   4.946   2.182   4.065
 1613TIP3   OH2 4802   6.179   3.698   4.535
 1613TIP3    H1 4803   6.116   3.645   4.585
 1613TIP3    H2 4804   6.150   3.690   4.444
 1614TIP3   OH2 4805   6.991   1.804   4.006
 1614TIP3    H1 4806   7.072   1.784   3.960
 1614TIP3    H2 4807   6.931   1.734   3.979
 1615TIP3   OH2 4808   5.081   5.055   1.931
 1615TIP3    H1 4809   5.063   5.147   1.915
 1615TIP3    H2 4810   5.168   5.041   1.892
 1616TIP3   OH2 4811   1.971   3.208   1.267
 1616TIP3    H1 4812   2.012   3.227   1.182
 1616TIP3    H2 4813   1.877   3.203   1.247
 1617TIP3   OH2 4814   6.560   5.584   0.353
 1617TIP3    H1 4815   6.630   5.518   0.356
 1617TIP3    H2 4816   6.604   5.664   0.325
 1618TIP3   OH2 4817   1.924   1.059   5.101
 1618TIP3    H1 4818   1.902   1.044   5.010
 1618TIP3    H2 4819   2.000   1.002   5.117
 1619TIP3   OH2 4820   2.928   5.219   5.492
 1619TIP3    H1 4821   2.893   5.307   5.509
 1619TIP3    H2 4822   2.858   5.174   5.446
 1620TIP3   OH2 4823   6.153   0.389   0.781
 1620TIP3    H1 4824   6.119   0.306   0.748
 1620TIP3    H2 4825   6.247   0.375   0.787
 1621TIP3   OH2 4826   4.042   3.788   1.013
 1621TIP3    H1 4827   3.968   3.775   0.954
 1621TIP3    H2 4828   4.018   3.866   1.064
 1622TIP3   OH2 4829   2.441   5.856   0.351
 1622TIP3    H1 4830   2.389   5.873   0.429
 1622TIP3    H2 4831   2.477   5.941   0.327
 1623TIP3   OH2 4832   5.499   4.860   3.980
 1623TIP3    H1 4833   5.469   4.844   3.890
 1623TIP3    H2 4834   5.496   4.773   4.021
 1624TIP3   OH2 4835   4.718   6.036   0.904
 1624TIP3    H1 4836   4.632   6.078   0.908
 1624TIP3    H2 4837   4.736   6.027   0.810
 1625TIP3   OH2 4838   5.953   1.333   2.824
 1625TIP3    H1 4839   6.008   1.389   2.768
 1625TIP3    H2 4840   5.863   1.351   2.795
 1626TIP3   OH2 4841   2.786   3.226   4.424
 1626TIP3    H1 4842   2.772   3.150   4.480
 1626TIP3    H2 4843   2.860   3.272   4.463
 1627TIP3   OH2 4844   2.582   1.983   0.873
 1627TIP3    H1 4845   2.570   2.073   0.905
 1627TIP3    H2 4846   2.512   1.933   0.916
 1628TIP3   OH2 4847   6.047   6.445   3.351
 1628TIP3    H1 4848   6.029   6.374   3.413
 1628TIP3    H2 4849   6.101   6.506   3.401
 1629TIP3   OH2 4850   2.185   6.432   3.462
 1629TIP3    H1 4851   2.184   6.346   3.503
 1629TIP3    H2 4852   2.277   6.451   3.447
 1630TIP3   OH2 4853   5.199   5.860   4.710
 1630TIP3    H1 4854   5.209   5.922   4.783
 1630TIP3    H2 4855   5.105   5.861   4.690
 1631TIP3   OH2 4856   1.541   3.836   0.525
 1631TIP3    H1 4857   1.626   3.834   0.482
 1631TIP3    H2 4858   1.551   3.780   0.601
 1632TIP3   OH2 4859   6.912   0.973   4.638
 1632TIP3    H1 4860   6.921   1.005   4.549
 1632TIP3    H2 4861   6.825   1.003   4.666
 1633TIP3   OH2 4862   0.822   0.103   0.316
 1633TIP3    H1 4863   0.905   0.101   0.268
 1633TIP3    H2 4864   0.819   0.190   0.355
 1634TIP3   OH2 4865   2.406   4.457   5.281
 1634TIP3    H1 4866   2.407   4.544   5.241
 1634TIP3    H2 4867   2.424   4.473   5.374
 1635TIP3   OH2 4868   1.340   2.511   1.272
 1635TIP3    H1 4869   1.341   2.564   1.192
 1635TIP3    H2 4870   1.398   2.437   1.253
 1636TIP3   OH2 4871   6.448   0.469   0.245
 1636TIP3    H1 4872   6.483   0.540   0.300
 1636TIP3    H2 4873   6.500   0.474   0.165
 1637TIP3   OH2 4874   6.653   6.704   0.250
 1637TIP3    H1 4875   6.650   6.620   0.205
 1637TIP3    H2 4876   6.710   6.689   0.326
 1638TIP3   OH2 4877   0.098   1.699   2.343
 1638TIP3    H1 4878   0.143   1.710   2.260
 1638TIP3    H2 4879   0.039   1.775   2.348
 1639TIP3   OH2 4880   5.365   0.921   1.894
 1639TIP3    H1 4881   5.430   0.851   1.889
 1639TIP3    H2 4882   5.284   0.876   1.918
 1640TIP3   OH2 4883   2.783   4.733   5.802
 1640TIP3    H1 4884   2.863   4.779   5.830
 1640TIP3    H2 4885   2.814   4.649   5.768
 1641TIP3   OH2 4886   2.749   4.147   2.313
 1641TIP3    H1 4887   2.685   4.212   2.342
 1641TIP3    H2 4888   2.834   4.188   2.329
 1642TIP3   OH2 4889   3.853   2.890   0.661
 1642TIP3    H1 4890   3.812   2.815   0.704
 1642TIP3    H2 4891   3.876   2.949   0.733
 1643TIP3   OH2 4892   0.942   3.626   4.519
 1643TIP3    H1 4893   1.037   3.636   4.510
 1643TIP3    H2 4894   0.930   3.539   4.557
 1644TIP3   OH2 4895   2.581   2.319   3.358
 1644TIP3    H1 4896   2.516   2.373   3.314
 1644TIP3    H2 4897   2.529   2.250   3.401
 1645TIP3   OH2 4898   5.652   5.875   2.811
 1645TIP3    H1 4899   5.618   5.929   2.740
 1645TIP3    H2 4900   5.595   5.798   2.813
 1646TIP3   OH2 4901   1.243   3.601   4.076
 1646TIP3    H1 4902   1.149   3.599   4.058
 1646TIP3    H2 4903   1.256   3.678   4.132
 1647TIP3   OH2 4904   6.529   6.566   2.353
 1647TIP3    H1 4905   6.522   6.547   2.446
 1647TIP3    H2 4906   6.617   6.601   2.342
 1648TIP3   OH2 4907   4.570   4.849   2.769
 1648TIP3    H1 4908   4.494   4.806   2.808
 1648TIP3    H2 4909   4.552   4.942   2.775
 1649TIP3   OH2 4910   7.020   5.367   4.717
 1649TIP3    H1 4911   7.014   5.334   4.628
 1649TIP3    H2 4912   6.930   5.365   4.749
 1650TIP3   OH2 4913   4.031   4.791   2.279
 1650TIP3    H1 4914   4.100   4.728   2.300
 1650TIP3    H2 4915   3.950   4.740   2.277
 1651TIP3   OH2 4916   6.440   2.191   3.639
 1651TIP3    H1 4917   6.479   2.138   3.568
 1651TIP3    H2 4918   6.469   2.148   3.719
 1652TIP3   OH2 4919   5.007   0.316   2.429
 1652TIP3    H1 4920   5.013   0.326   2.524
 1652TIP3    H2 4921   5.094   0.287   2.402
 1653TIP3   OH2 4922   1.821   1.436   3.668
 1653TIP3    H1 4923   1.812   1.443   3.573
 1653TIP3    H2 4924   1.810   1.526   3.699
 1654TIP3   OH2 4925   0.285   4.713   4.946
 1654TIP3    H1 4926   0.303   4.646   4.880
 1654TIP3    H2 4927   0.323   4.793   4.910
 1655TIP3   OH2 4928   0.545   6.223   1.144
 1655TIP3    H1 4929   0.515   6.314   1.142
 1655TIP3    H2 4930   0.638   6.228   1.121
 1656TIP3   OH2 4931   5.094   5.417   1.441
 1656TIP3    H1 4932   4.999   5.409   1.435
 1656TIP3    H2 4933   5.127   5.329   1.419
 1657TIP3   OH2 4934   6.405   2.738   2.811
 1657TIP3    H1 4935   6.370   2.656   2.847
 1657TIP3    H2 4936   6.500   2.725   2.811
 1658TIP3   OH2 4937   5.654   4.841   2.371
 1658TIP3    H1 4938   5.593   4.894   2.422
 1658TIP3    H2 4939   5.708   4.797   2.436
 1659TIP3   OH2 4940   3.770   0.235   1.751
 1659TIP3    H1 4941   3.791   0.148   1.786
 1659TIP3    H2 4942   3.709   0.272   1.815
 1660TIP3   OH2 4943   3.338   3.614   4.002
 1660TIP3    H1 4944   3.263   3.614   4.062
 1660TIP3    H2 4945   3.351   3.521   3.982
 1661TIP3   OH2 4946   1.142   5.630   1.879
 1661TIP3    H1 4947   1.228   5.625   1.837
 1661TIP3    H2 4948   1.087   5.572   1.827
 1662TIP3   OH2 4949   2.619   0.659   1.104
 1662TIP3    H1 4950   2.637   0.606   1.026
 1662TIP3    H2 4951   2.649   0.605   1.177
 1663TIP3   OH2 4952   2.920  -0.005   4.785
 1663TIP3    H1 4953   2.865  -0.030   4.860
 1663TIP3    H2 4954   2.876   0.071   4.747
 1664TIP3   OH2 4955   0.180   6.517   0.774
 1664TIP3    H1 4956   0.202   6.451   0.840
 1664TIP3    H2 4957   0.219   6.598   0.807
 1665TIP3   OH2 4958   5.261   2.409   0.662
 1665TIP3    H1 4959   5.258   2.324   0.705
 1665TIP3    H2 4960   5.245   2.473   0.732
 1666TIP3   OH2 4961   1.534   3.389   0.393
 1666TIP3    H1 4962   1.528   3.338   0.474
 1666TIP3    H2 4963   1.620   3.430   0.397
 1667TIP3   OH2 4964   0.541   1.368   1.101
 1667TIP3    H1 4965   0.529   1.274   1.084
 1667TIP3    H2 4966   0.632   1.375   1.130
 1668TIP3   OH2 4967   1.834   6.302   2.445
 1668TIP3    H1 4968   1.840   6.397   2.459
 1668TIP3    H2 4969   1.749   6.290   2.402
 1669TIP3   OH2 4970   2.831   5.908   1.872
 1669TIP3    H1 4971   2.876   5.966   1.934
 1669TIP3    H2 4972   2.781   5.849   1.928
 1670TIP3   OH2 4973   6.076   1.523   0.542
 1670TIP3    H1 4974   6.038   1.609   0.525
 1670TIP3    H2 4975   6.106   1.493   0.456
 1671TIP3   OH2 4976   3.678   5.746   3.108
 1671TIP3    H1 4977   3.680   5.721   3.016
 1671TIP3    H2 4978   3.769   5.738   3.137
 1672TIP3   OH2 4979   2.147   2.024   3.890
 1672TIP3    H1 4980   2.052   2.014   3.893
 1672TIP3    H2 4981   2.170   2.069   3.971
 1673TIP3   OH2 4982   4.685   5.776   4.229
 1673TIP3    H1 4983   4.655   5.858   4.268
 1673TIP3    H2 4984   4.749   5.742   4.292
 1674TIP3   OH2 4985   4.706   1.648   3.653
 1674TIP3    H1 4986   4.621   1.610   3.674
 1674TIP3    H2 4987   4.708   1.731   3.701
 1675TIP3   OH2 4988   1.222   6.536   0.618
 1675TIP3    H1 4989   1.312   6.567   0.626
 1675TIP3    H2 4990   1.218   6.457   0.672
 1676TIP3   OH2 4991   6.636   4.835   4.859
 1676TIP3    H1 4992   6.589   4.917   4.841
 1676TIP3    H2 4993   6.593   4.799   4.936
 1677TIP3   OH2 4994   1.992   3.803   5.401
 1677TIP3    H1 4995   1.928   3.745   5.360
 1677TIP3    H2 4996   2.061   3.744   5.432
 1678TIP3   OH2 4997   4.959   1.781   2.530
 1678TIP3    H1 4998   4.910   1.844   2.583
 1678TIP3    H2 4999   4.907   1.701   2.534
 1679TIP3   OH2 5000   4.196   4.515   5.747
 1679TIP3    H1 5001   4.236   4.598   5.773
 1679TIP3    H2 5002   4.175   4.526   5.655
 1680TIP3   OH2 5003   4.832   2.243   1.469
 1680TIP3    H1 5004   4.747   2.234   1.513
 1680TIP3    H2 5005   4.810   2.274   1.381
 1681TIP3   OH2 5006   3.738   1.716   0.979
 1681TIP3    H1 5007   3.795   1.688   1.050
 1681TIP3    H2 5008   3.781   1.683   0.900
 1682TIP3   OH2 5009   2.423   2.226   1.665
 1682TIP3    H1 5010   2.510   2.263   1.677
 1682TIP3    H2 5011   2.364   2.293   1.701
 1683TIP3   OH2 5012   1.941   4.967   2.793
 1683TIP3    H1 5013   1.958   5.047   2.843
 1683TIP3    H2 5014   2.017   4.911   2.809
 1684TIP3   OH2 5015   2.040   4.738   1.744
 1684TIP3    H1 5016   2.059   4.747   1.837
 1684TIP3    H2 5017   2.050   4.826   1.708
 1685TIP3   OH2 5018   0.111   3.222   5.638
 1685TIP3    H1 5019   0.023   3.247   5.609
 1685TIP3    H2 5020   0.166   3.298   5.619
 1686TIP3   OH2 5021   2.540   5.205   2.024
 1686TIP3    H1 5022   2.625   5.183   2.061
 1686TIP3    H2 5023   2.527   5.298   2.044
 1687TIP3   OH2 5024   3.118   6.038   0.223
 1687TIP3    H1 5025   3.191   6.092   0.254
 1687TIP3    H2 5026   3.044   6.099   0.218
 1688TIP3   OH2 5027   1.628   0.731   0.540
 1688TIP3    H1 5028   1.579   0.811   0.524
 1688TIP3    H2 5029   1.595   0.670   0.474
 1689TIP3   OH2 5030   4.354   2.432   0.606
 1689TIP3    H1 5031   4.400   2.482   0.673
 1689TIP3    H2 5032   4.289   2.493   0.572
 1690TIP3   OH2 5033   5.775   4.066   1.589
 1690TIP3    H1 5034   5.822   4.071   1.505
 1690TIP3    H2 5035   5.731   3.981   1.586
 1691TIP3   OH2 5036   4.619   4.770   1.908
 1691TIP3    H1 5037   4.664   4.719   1.841
 1691TIP3    H2 5038   4.599   4.853   1.865
 1692TIP3   OH2 5039   5.397   5.768   2.653
 1692TIP3    H1 5040   5.406   5.709   2.578
 1692TIP3    H2 5041   5.345   5.719   2.717
 1693TIP3   OH2 5042   0.703   5.676   4.297
 1693TIP3    H1 5043   0.614   5.710   4.310
 1693TIP3    H2 5044   0.690   5.591   4.255
 1694TIP3   OH2 5045   4.439   0.263   3.882
 1694TIP3    H1 5046   4.440   0.320   3.805
 1694TIP3    H2 5047   4.530   0.264   3.914
 1695TIP3   OH2 5048   0.519   4.730   4.238
 1695TIP3    H1 5049   0.543   4.705   4.149
 1695TIP3    H2 5050   0.426   4.708   4.245
 1696TIP3   OH2 5051   5.603   5.818   3.098
 1696TIP3    H1 5052   5.541   5.891   3.102
 1696TIP3    H2 5053   5.634   5.818   3.007
 1697TIP3   OH2 5054   4.978   2.253   1.935
 1697TIP3    H1 5055   4.996   2.277   1.845
 1697TIP3    H2 5056   5.054   2.201   1.962
 1698TIP3   OH2 5057   4.776   5.586   2.828
 1698TIP3    H1 5058   4.854   5.537   2.852
 1698TIP3    H2 5059   4.798   5.677   2.846
 1699TIP3   OH2 5060   4.854   2.819   5.164
 1699TIP3    H1 5061   4.869   2.786   5.075
 1699TIP3    H2 5062   4.917   2.772   5.218
 1700TIP3   OH2 5063   5.667   4.210   4.181
 1700TIP3    H1 5064   5.594   4.217   4.242
 1700TIP3    H2 5065   5.661   4.290   4.128
 1701TIP3   OH2 5066   6.705   5.629   1.220
 1701TIP3    H1 5067   6.684   5.546   1.177
 1701TIP3    H2 5068   6.800   5.633   1.220
 1702TIP3   OH2 5069   3.881   1.171   4.568
 1702TIP3    H1 5070   3.912   1.254   4.534
 1702TIP3    H2 5071   3.815   1.142   4.505
 1703TIP3   OH2 5072   1.560   4.459   1.230
 1703TIP3    H1 5073   1.540   4.545   1.269
 1703TIP3    H2 5074   1.481   4.408   1.243
 1704TIP3   OH2 5075   5.442   3.190   5.156
 1704TIP3    H1 5076   5.356   3.154   5.179
 1704TIP3    H2 5077   5.434   3.284   5.176
 1705TIP3   OH2 5078   2.162   0.991   1.469
 1705TIP3    H1 5079   2.105   1.047   1.522
 1705TIP3    H2 5080   2.119   0.905   1.471
 1706TIP3   OH2 5081   3.713   2.147   1.369
 1706TIP3    H1 5082   3.714   2.113   1.279
 1706TIP3    H2 5083   3.805   2.152   1.394
 1707TIP3   OH2 5084   4.688   6.439   0.817
 1707TIP3    H1 5085   4.714   6.367   0.759
 1707TIP3    H2 5086   4.771   6.477   0.846
 1708TIP3   OH2 5087   1.414   6.500   0.897
 1708TIP3    H1 5088   1.473   6.460   0.832
 1708TIP3    H2 5089   1.448   6.471   0.981
 1709TIP3   OH2 5090   0.519   4.860   0.844
 1709TIP3    H1 5091   0.605   4.880   0.881
 1709TIP3    H2 5092   0.537   4.843   0.751
 1710TIP3   OH2 5093   3.772   3.176   5.237
 1710TIP3    H1 5094   3.704   3.171   5.170
 1710TIP3    H2 5095   3.779   3.087   5.272
 1711TIP3   OH2 5096   6.250   0.199   4.814
 1711TIP3    H1 5097   6.215   0.159   4.734
 1711TIP3    H2 5098   6.313   0.264   4.782
 1712TIP3   OH2 5099   1.699   3.313   0.772
 1712TIP3    H1 5100   1.734   3.318   0.683
 1712TIP3    H2 5101   1.652   3.230   0.775
 1713TIP3   OH2 5102   2.813   0.853   3.612
 1713TIP3    H1 5103   2.876   0.787   3.586
 1713TIP3    H2 5104   2.865   0.932   3.626
 1714TIP3   OH2 5105   6.892   1.374   0.657
 1714TIP3    H1 5106   6.815   1.385   0.602
 1714TIP3    H2 5107   6.942   1.455   0.645
 1715TIP3   OH2 5108   6.815   1.055   3.219
 1715TIP3    H1 5109   6.721   1.072   3.216
 1715TIP3    H2 5110   6.854   1.129   3.172
 1716TIP3   OH2 5111   6.282   2.542   5.274
 1716TIP3    H1 5112   6.196   2.545   5.315
 1716TIP3    H2 5113   6.268   2.574   5.185
 1717TIP3   OH2 5114   2.349   5.968   4.428
 1717TIP3    H1 5115   2.289   5.945   4.498
 1717TIP3    H2 5116   2.319   6.055   4.399
 1718TIP3   OH2 5117   1.563   6.584   3.766
 1718TIP3    H1 5118   1.574   6.679   3.771
 1718TIP3    H2 5119   1.509   6.562   3.841
 1719TIP3   OH2 5120   6.329   5.446   0.010
 1719TIP3    H1 5121   6.289   5.361   0.025
 1719TIP3    H2 5122   6.259   5.509   0.028
 1720TIP3   OH2 5123   3.448   2.595   4.645
 1720TIP3    H1 5124   3.519   2.530   4.643
 1720TIP3    H2 5125   3.450   2.631   4.733
 1721TIP3   OH2 5126   2.394   0.246   4.852
 1721TIP3    H1 5127   2.383   0.263   4.758
 1721TIP3    H2 5128   2.468   0.300   4.878
 1722TIP3   OH2 5129   4.201   4.414   1.294
 1722TIP3    H1 5130   4.191   4.492   1.239
 1722TIP3    H2 5131   4.175   4.443   1.382
 1723TIP3   OH2 5132   3.595   0.866   2.936
 1723TIP3    H1 5133   3.530   0.909   2.992
 1723TIP3    H2 5134   3.578   0.772   2.948
 1724TIP3   OH2 5135   3.458   1.838   3.308
 1724TIP3    H1 5136   3.453   1.777   3.382
 1724TIP3    H2 5137   3.543   1.881   3.318
 1725TIP3   OH2 5138   0.123   4.481   1.705
 1725TIP3    H1 5139   0.064   4.464   1.632
 1725TIP3    H2 5140   0.195   4.531   1.666
 1726TIP3   OH2 5141   0.449   3.262   0.617
 1726TIP3    H1 5142   0.543   3.269   0.634
 1726TIP3    H2 5143   0.424   3.348   0.586
 1727TIP3   OH2 5144   3.508   3.182   4.757
 1727TIP3    H1 5145   3.525   3.151   4.668
 1727TIP3    H2 5146   3.438   3.125   4.789
 1728TIP3   OH2 5147   3.509   0.543   2.261
 1728TIP3    H1 5148   3.488   0.457   2.226
 1728TIP3    H2 5149   3.472   0.604   2.197
 1729TIP3   OH2 5150   3.002   5.189   4.756
 1729TIP3    H1 5151   2.924   5.229   4.795
 1729TIP3    H2 5152   3.019   5.241   4.678
 1730TIP3   OH2 5153   1.929   1.221   0.955
 1730TIP3    H1 5154   1.843   1.260   0.940
 1730TIP3    H2 5155   1.941   1.225   1.050
 1731TIP3   OH2 5156   1.575   0.248   1.736
 1731TIP3    H1 5157   1.552   0.155   1.740
 1731TIP3    H2 5158   1.648   0.257   1.796
 1732TIP3   OH2 5159   0.169   6.407   5.411
 1732TIP3    H1 5160   0.139   6.465   5.340
 1732TIP3    H2 5161   0.263   6.426   5.419
 1733TIP3   OH2 5162   1.418   0.497   4.416
 1733TIP3    H1 5163   1.374   0.488   4.332
 1733TIP3    H2 5164   1.350   0.480   4.481
 1734TIP3   OH2 5165   2.719   1.891   0.640
 1734TIP3    H1 5166   2.679   1.954   0.700
 1734TIP3    H2 5167   2.704   1.806   0.681
 1735TIP3   OH2 5168   0.555   0.207   2.562
 1735TIP3    H1 5169   0.504   0.150   2.620
 1735TIP3    H2 5170   0.639   0.162   2.551
 1736TIP3   OH2 5171   2.912   1.288   0.492
 1736TIP3    H1 5172   2.985   1.258   0.547
 1736TIP3    H2 5173   2.834   1.250   0.533
 1737TIP3   OH2 5174   2.419   1.334   5.675
 1737TIP3    H1 5175   2.442   1.337   5.768
 1737TIP3    H2 5176   2.430   1.242   5.651
 1738TIP3   OH2 5177   6.386   4.230   2.720
 1738TIP3    H1 5178   6.328   4.154   2.726
 1738TIP3    H2 5179   6.462   4.206   2.775
 1739TIP3   OH2 5180   0.167   3.401   3.537
 1739TIP3    H1 5181   0.205   3.487   3.559
 1739TIP3    H2 5182   0.199   3.384   3.448
 1740TIP3   OH2 5183   6.723   2.433   0.638
 1740TIP3    H1 5184   6.785   2.468   0.575
 1740TIP3    H2 5185   6.756   2.461   0.724
 1741TIP3   OH2 5186   3.125   4.489   0.049
 1741TIP3    H1 5187   3.081   4.404   0.059
 1741TIP3    H2 5188   3.057   4.547   0.014
 1742TIP3   OH2 5189   4.108   1.413   3.741
 1742TIP3    H1 5190   4.067   1.484   3.691
 1742TIP3    H2 5191   4.166   1.458   3.803
 1743TIP3   OH2 5192   5.382   4.493   3.058
 1743TIP3    H1 5193   5.292   4.490   3.091
 1743TIP3    H2 5194   5.433   4.531   3.129
 1744TIP3   OH2 5195   2.679   5.216   0.825
 1744TIP3    H1 5196   2.614   5.278   0.858
 1744TIP3    H2 5197   2.629   5.136   0.806
 1745TIP3   OH2 5198   1.969   4.349   4.121
 1745TIP3    H1 5199   2.008   4.311   4.200
 1745TIP3    H2 5200   2.035   4.410   4.089
 1746TIP3   OH2 5201   2.189   2.170   0.132
 1746TIP3    H1 5202   2.206   2.121   0.052
 1746TIP3    H2 5203   2.106   2.134   0.165
 1747TIP3   OH2 5204   5.874   0.224   0.513
 1747TIP3    H1 5205   5.939   0.196   0.448
 1747TIP3    H2 5206   5.869   0.319   0.503
 1748TIP3   OH2 5207   4.889   3.773   0.215
 1748TIP3    H1 5208   4.866   3.811   0.130
 1748TIP3    H2 5209   4.982   3.791   0.225
 1749TIP3   OH2 5210   5.617   4.980   1.859
 1749TIP3    H1 5211   5.635   4.895   1.899
 1749TIP3    H2 5212   5.703   5.019   1.846
 1750TIP3   OH2 5213   2.523   2.148   4.936
 1750TIP3    H1 5214   2.545   2.075   4.877
 1750TIP3    H2 5215   2.606   2.194   4.948
 1751TIP3   OH2 5216   2.136   5.609   0.377
 1751TIP3    H1 5217   2.118   5.515   0.367
 1751TIP3    H2 5218   2.092   5.649   0.302
 1752TIP3   OH2 5219   0.123   1.031   4.713
 1752TIP3    H1 5220   0.122   0.937   4.693
 1752TIP3    H2 5221   0.212   1.049   4.742
 1753TIP3   OH2 5222   1.908   6.648   2.943
 1753TIP3    H1 5223   1.825   6.650   2.895
 1753TIP3    H2 5224   1.904   6.567   2.994
 1754TIP3   OH2 5225   2.150   5.609   5.393
 1754TIP3    H1 5226   2.089   5.642   5.328
 1754TIP3    H2 5227   2.237   5.633   5.360
 1755TIP3   OH2 5228   7.238   4.711   1.885
 1755TIP3    H1 5229   7.187   4.630   1.884
 1755TIP3    H2 5230   7.323   4.686   1.921
 1756TIP3   OH2 5231   2.601   4.318   4.998
 1756TIP3    H1 5232   2.632   4.275   5.077
 1756TIP3    H2 5233   2.667   4.385   4.979
 1757TIP3   OH2 5234   2.901   3.348   2.112
 1757TIP3    H1 5235   2.820   3.398   2.119
 1757TIP3    H2 5236   2.902   3.293   2.191
 1758TIP3   OH2 5237   4.203   6.368   1.757
 1758TIP3    H1 5238   4.264   6.422   1.807
 1758TIP3    H2 5239   4.244   6.282   1.752
 1759TIP3   OH2 5240   4.284   5.405   3.502
 1759TIP3    H1 5241   4.231   5.327   3.488
 1759TIP3    H2 5242   4.309   5.400   3.595
 1760TIP3   OH2 5243   2.413   2.505   2.022
 1760TIP3    H1 5244   2.375   2.477   2.105
 1760TIP3    H2 5245   2.338   2.512   1.963
 1761TIP3   OH2 5246   7.039   0.957   1.000
 1761TIP3    H1 5247   7.120   0.917   1.031
 1761TIP3    H2 5248   7.061   1.049   0.988
 1762TIP3   OH2 5249   5.219   2.833   0.113
 1762TIP3    H1 5250   5.265   2.777   0.051
 1762TIP3    H2 5251   5.257   2.811   0.198
 1763TIP3   OH2 5252   5.335   4.527   3.892
 1763TIP3    H1 5253   5.390   4.471   3.837
 1763TIP3    H2 5254   5.387   4.544   3.970
 1764TIP3   OH2 5255   6.391   1.318   3.816
 1764TIP3    H1 5256   6.462   1.379   3.792
 1764TIP3    H2 5257   6.378   1.332   3.910
 1765TIP3   OH2 5258   3.552   1.138   1.147
 1765TIP3    H1 5259   3.469   1.115   1.188
 1765TIP3    H2 5260   3.615   1.074   1.180
 1766TIP3   OH2 5261   1.594   5.609   3.549
 1766TIP3    H1 5262   1.578   5.633   3.457
 1766TIP3    H2 5263   1.516   5.639   3.595
 1767TIP3   OH2 5264   3.484   3.079   1.089
 1767TIP3    H1 5265   3.537   3.090   1.010
 1767TIP3    H2 5266   3.495   3.161   1.136
 1768TIP3   OH2 5267   1.092   2.861   5.804
 1768TIP3    H1 5268   1.021   2.883   5.863
 1768TIP3    H2 5269   1.169   2.904   5.841
 1769TIP3   OH2 5270   3.268   3.364   0.256
 1769TIP3    H1 5271   3.302   3.356   0.167
 1769TIP3    H2 5272   3.260   3.458   0.271
 1770TIP3   OH2 5273   4.791   3.260   3.541
 1770TIP3    H1 5274   4.714   3.205   3.528
 1770TIP3    H2 5275   4.851   3.205   3.593
 1771TIP3   OH2 5276   6.894   3.921   1.755
 1771TIP3    H1 5277   6.807   3.905   1.790
 1771TIP3    H2 5278   6.897   4.016   1.742
 1772TIP3   OH2 5279   7.044   4.467   5.340
 1772TIP3    H1 5280   6.952   4.465   5.366
 1772TIP3    H2 5281   7.060   4.382   5.300
 1773TIP3   OH2 5282   0.368   0.565   5.725
 1773TIP3    H1 5283   0.301   0.596   5.665
 1773TIP3    H2 5284   0.363   0.625   5.800
 1774TIP3   OH2 5285   5.425   2.908   0.639
 1774TIP3    H1 5286   5.465   2.986   0.678
 1774TIP3    H2 5287   5.487   2.838   0.657
 1775TIP3   OH2 5288   5.805   4.148   3.526
 1775TIP3    H1 5289   5.714   4.132   3.548
 1775TIP3    H2 5290   5.817   4.242   3.540
 1776TIP3   OH2 5291   1.630   2.337   4.644
 1776TIP3    H1 5292   1.724   2.321   4.633
 1776TIP3    H2 5293   1.600   2.363   4.557
 1777TIP3   OH2 5294   5.933   6.020   3.177
 1777TIP3    H1 5295   5.924   6.098   3.123
 1777TIP3    H2 5296   6.027   6.010   3.189
 1778TIP3   OH2 5297   4.459   0.913   2.738
 1778TIP3    H1 5298   4.434   0.848   2.673
 1778TIP3    H2 5299   4.500   0.983   2.687
 1779TIP3   OH2 5300   3.430   5.212   2.868
 1779TIP3    H1 5301   3.379   5.245   2.795
 1779TIP3    H2 5302   3.370   5.216   2.943
 1780TIP3   OH2 5303   5.311   0.004   5.475
 1780TIP3    H1 5304   5.238   0.055   5.509
 1780TIP3    H2 5305   5.375   0.069   5.445
 1781TIP3   OH2 5306   2.175   5.083   5.843
 1781TIP3    H1 5307   2.086   5.066   5.812
 1781TIP3    H2 5308   2.219   4.998   5.835
 1782TIP3   OH2 5309   1.194   5.579   1.296
 1782TIP3    H1 5310   1.202   5.511   1.229
 1782TIP3    H2 5311   1.215   5.534   1.378
 1783TIP3   OH2 5312   2.383   4.928   1.056
 1783TIP3    H1 5313   2.460   4.917   1.112
 1783TIP3    H2 5314   2.383   4.851   0.999
 1784TIP3   OH2 5315   0.360   0.866   5.528
 1784TIP3    H1 5316   0.421   0.794   5.540
 1784TIP3    H2 5317   0.275   0.829   5.553
 1785TIP3   OH2 5318   3.730   6.222   1.347
 1785TIP3    H1 5319   3.770   6.308   1.352
 1785TIP3    H2 5320   3.754   6.179   1.430
 1786TIP3   OH2 5321   3.634   6.275   4.206
 1786TIP3    H1 5322   3.598   6.198   4.251
 1786TIP3    H2 5323   3.728   6.264   4.212
 1787TIP3   OH2 5324   3.052   2.128   5.136
 1787TIP3    H1 5325   3.049   2.089   5.223
 1787TIP3    H2 5326   3.139   2.169   5.131
 1788TIP3   OH2 5327   6.480   3.220   5.043
 1788TIP3    H1 5328   6.575   3.230   5.046
 1788TIP3    H2 5329   6.465   3.126   5.057
 1789TIP3   OH2 5330   2.058   5.722   3.147
 1789TIP3    H1 5331   2.098   5.698   3.063
 1789TIP3    H2 5332   1.989   5.657   3.160
 1790TIP3   OH2 5333   3.584   3.361   2.590
 1790TIP3    H1 5334   3.566   3.445   2.631
 1790TIP3    H2 5335   3.541   3.296   2.646
 1791TIP3   OH2 5336   2.392   5.532   1.527
 1791TIP3    H1 5337   2.418   5.624   1.534
 1791TIP3    H2 5338   2.468   5.488   1.488
 1792TIP3   OH2 5339   2.116   1.833   4.642
 1792TIP3    H1 5340   2.212   1.826   4.643
 1792TIP3    H2 5341   2.092   1.834   4.735
 1793TIP3   OH2 5342   5.099   1.250   3.125
 1793TIP3    H1 5343   5.028   1.233   3.062
 1793TIP3    H2 5344   5.120   1.163   3.160
 1794TIP3   OH2 5345   6.555   0.142   3.238
 1794TIP3    H1 5346   6.598   0.125   3.321
 1794TIP3    H2 5347   6.489   0.209   3.258
 1795TIP3   OH2 5348   0.016   5.166   3.469
 1795TIP3    H1 5349   0.108   5.148   3.490
 1795TIP3    H2 5350   0.015   5.259   3.447
 1796TIP3   OH2 5351   5.682   4.339   1.232
 1796TIP3    H1 5352   5.778   4.338   1.236
 1796TIP3    H2 5353   5.662   4.412   1.173
 1797TIP3   OH2 5354   6.000   1.242   5.427
 1797TIP3    H1 5355   5.978   1.149   5.435
 1797TIP3    H2 5356   5.964   1.268   5.342
 1798TIP3   OH2 5357   4.857   3.585   2.559
 1798TIP3    H1 5358   4.833   3.626   2.642
 1798TIP3    H2 5359   4.783   3.603   2.501
 1799TIP3   OH2 5360   3.118   2.730   4.771
 1799TIP3    H1 5361   3.113   2.806   4.713
 1799TIP3    H2 5362   3.028   2.696   4.773
 1800TIP3   OH2 5363   4.128   3.826   0.697
 1800TIP3    H1 5364   4.085   3.911   0.694
 1800TIP3    H2 5365   4.196   3.831   0.629
 1801TIP3   OH2 5366   6.135   4.483   0.318
 1801TIP3    H1 5367   6.073   4.413   0.298
 1801TIP3    H2 5368   6.099   4.560   0.274
 1802TIP3   OH2 5369   0.782   3.100   1.684
 1802TIP3    H1 5370   0.715   3.032   1.680
 1802TIP3    H2 5371   0.844   3.068   1.749
 1803TIP3   OH2 5372   6.810   0.989   1.831
 1803TIP3    H1 5373   6.812   1.083   1.849
 1803TIP3    H2 5374   6.861   0.979   1.750
 1804TIP3   OH2 5375   7.195   2.535   5.396
 1804TIP3    H1 5376   7.167   2.576   5.315
 1804TIP3    H2 5377   7.162   2.445   5.391
 1805TIP3   OH2 5378   5.237   6.666   1.169
 1805TIP3    H1 5379   5.209   6.726   1.239
 1805TIP3    H2 5380   5.233   6.719   1.090
 1806TIP3   OH2 5381   0.197   5.303   0.845
 1806TIP3    H1 5382   0.128   5.268   0.902
 1806TIP3    H2 5383   0.197   5.245   0.769
 1807TIP3   OH2 5384   3.491   1.274   4.063
 1807TIP3    H1 5385   3.536   1.325   3.995
 1807TIP3    H2 5386   3.399   1.278   4.039
 1808TIP3   OH2 5387   6.694   1.483   0.450
 1808TIP3    H1 5388   6.786   1.501   0.433
 1808TIP3    H2 5389   6.647   1.552   0.402
 1809TIP3   OH2 5390   1.862   3.537   2.327
 1809TIP3    H1 5391   1.875   3.630   2.344
 1809TIP3    H2 5392   1.876   3.494   2.412
 1810TIP3   OH2 5393   5.441   4.565   2.145
 1810TIP3    H1 5394   5.378   4.624   2.187
 1810TIP3    H2 5395   5.476   4.512   2.217
 1811TIP3   OH2 5396   2.131   2.414  -0.012
 1811TIP3    H1 5397   2.160   2.334   0.032
 1811TIP3    H2 5398   2.037   2.403  -0.022
 1812TIP3   OH2 5399   3.590   5.532   5.326
 1812TIP3    H1 5400   3.602   5.573   5.241
 1812TIP3    H2 5401   3.676   5.498   5.350
 1813TIP3   OH2 5402   4.138   2.470   4.077
 1813TIP3    H1 5403   4.127   2.437   4.166
 1813TIP3    H2 5404   4.222   2.434   4.048
 1814TIP3   OH2 5405   3.427   6.789   4.849
 1814TIP3    H1 5406   3.402   6.708   4.894
 1814TIP3    H2 5407   3.511   6.813   4.889
 1815TIP3   OH2 5408   3.396   5.012   4.767
 1815TIP3    H1 5409   3.359   4.967   4.844
 1815TIP3    H2 5410   3.471   5.061   4.802
 1816TIP3   OH2 5411   0.211   1.261   1.033
 1816TIP3    H1 5412   0.232   1.298   0.947
 1816TIP3    H2 5413   0.222   1.335   1.093
 1817TIP3   OH2 5414   2.255   4.807   2.208
 1817TIP3    H1 5415   2.294   4.895   2.207
 1817TIP3    H2 5416   2.227   4.795   2.299
 1818TIP3   OH2 5417   1.194   5.712   0.836
 1818TIP3    H1 5418   1.118   5.676   0.880
 1818TIP3    H2 5419   1.269   5.674   0.882
 1819TIP3   OH2 5420   6.357   2.840   5.463
 1819TIP3    H1 5421   6.406   2.794   5.530
 1819TIP3    H2 5422   6.417   2.908   5.431
 1820TIP3   OH2 5423   0.514   3.480   5.764
 1820TIP3    H1 5424   0.594   3.532   5.758
 1820TIP3    H2 5425   0.524   3.412   5.697
 1821TIP3   OH2 5426   0.867   6.307   1.944
 1821TIP3    H1 5427   0.847   6.214   1.933
 1821TIP3    H2 5428   0.942   6.322   1.887
 1822TIP3   OH2 5429   3.469   5.056   0.639
 1822TIP3    H1 5430   3.545   5.037   0.583
 1822TIP3    H2 5431   3.416   5.117   0.588
 1823TIP3   OH2 5432   4.421   5.048   3.862
 1823TIP3    H1 5433   4.459   4.998   3.935
 1823TIP3    H2 5434   4.328   5.055   3.884
 1824TIP3   OH2 5435   3.522   3.548   5.060
 1824TIP3    H1 5436   3.474   3.523   5.139
 1824TIP3    H2 5437   3.486   3.492   4.991
 1825TIP3   OH2 5438   6.334   6.794   1.804
 1825TIP3    H1 5439   6.270   6.796   1.875
 1825TIP3    H2 5440   6.412   6.754   1.844
 1826TIP3   OH2 5441   1.840   2.213   4.261
 1826TIP3    H1 5442   1.835   2.120   4.283
 1826TIP3    H2 5443   1.845   2.257   4.346
 1827TIP3   OH2 5444   0.412   5.682   3.440
 1827TIP3    H1 5445   0.378   5.598   3.409
 1827TIP3    H2 5446   0.335   5.737   3.451
 1828TIP3   OH2 5447   2.722   2.752   0.982
 1828TIP3    H1 5448   2.812   2.784   0.987
 1828TIP3    H2 5449   2.730   2.664   0.945
 1829TIP3   OH2 5450   4.624   4.909   1.170
 1829TIP3    H1 5451   4.686   4.911   1.243
 1829TIP3    H2 5452   4.540   4.887   1.211
 1830TIP3   OH2 5453   0.817   0.723   3.793
 1830TIP3    H1 5454   0.780   0.781   3.860
 1830TIP3    H2 5455   0.803   0.635   3.828
 1831TIP3   OH2 5456   0.218   3.257   5.298
 1831TIP3    H1 5457   0.170   3.227   5.375
 1831TIP3    H2 5458   0.150   3.285   5.237
 1832TIP3   OH2 5459   5.569   5.917   1.349
 1832TIP3    H1 5460   5.504   5.879   1.409
 1832TIP3    H2 5461   5.653   5.903   1.392
 1833TIP3   OH2 5462   4.003   0.582   2.650
 1833TIP3    H1 5463   3.937   0.642   2.615
 1833TIP3    H2 5464   4.034   0.625   2.730
 1834TIP3   OH2 5465   3.136   3.802   2.526
 1834TIP3    H1 5466   3.202   3.852   2.478
 1834TIP3    H2 5467   3.127   3.848   2.609
 1835TIP3   OH2 5468   3.269   3.181   4.541
 1835TIP3    H1 5469   3.361   3.157   4.537
 1835TIP3    H2 5470   3.267   3.257   4.599
 1836TIP3   OH2 5471   6.521   1.966   1.890
 1836TIP3    H1 5472   6.499   1.885   1.935
 1836TIP3    H2 5473   6.436   2.002   1.864
 1837TIP3   OH2 5474   0.655   1.800   0.331
 1837TIP3    H1 5475   0.569   1.786   0.370
 1837TIP3    H2 5476   0.657   1.893   0.310
 1838TIP3   OH2 5477   0.403   1.061   3.166
 1838TIP3    H1 5478   0.358   0.981   3.192
 1838TIP3    H2 5479   0.356   1.092   3.088
 1839TIP3   OH2 5480   5.470   6.195   4.087
 1839TIP3    H1 5481   5.473   6.124   4.023
 1839TIP3    H2 5482   5.383   6.187   4.127
 1840TIP3   OH2 5483   2.851   5.972   4.083
 1840TIP3    H1 5484   2.759   5.965   4.107
 1840TIP3    H2 5485   2.861   6.061   4.050
 1841TIP3   OH2 5486   4.226   5.808   0.063
 1841TIP3    H1 5487   4.292   5.765   0.009
 1841TIP3    H2 5488   4.195   5.881   0.009
 1842TIP3   OH2 5489   1.848   3.709   4.314
 1842TIP3    H1 5490   1.822   3.779   4.375
 1842TIP3    H2 5491   1.785   3.638   4.330
 1843TIP3   OH2 5492   1.537   2.745   4.645
 1843TIP3    H1 5493   1.444   2.723   4.634
 1843TIP3    H2 5494   1.578   2.716   4.563
 1844TIP3   OH2 5495   1.221   3.834   4.748
 1844TIP3    H1 5496   1.202   3.913   4.797
 1844TIP3    H2 5497   1.295   3.856   4.692
 1845TIP3   OH2 5498   2.450   3.873   5.629
 1845TIP3    H1 5499   2.494   3.855   5.546
 1845TIP3    H2 5500   2.403   3.954   5.614
 1846TIP3   OH2 5501   5.217   2.254   0.309
 1846TIP3    H1 5502   5.248   2.275   0.221
 1846TIP3    H2 5503   5.149   2.318   0.327
 1847TIP3   OH2 5504   1.411   4.147   1.925
 1847TIP3    H1 5505   1.496   4.111   1.950
 1847TIP3    H2 5506   1.348   4.100   1.979
 1848TIP3   OH2 5507   2.938   1.776   0.332
 1848TIP3    H1 5508   2.910   1.731   0.411
 1848TIP3    H2 5509   2.896   1.863   0.338
 1849TIP3   OH2 5510   4.592   0.332   2.125
 1849TIP3    H1 5511   4.497   0.323   2.114
 1849TIP3    H2 5512   4.606   0.426   2.137
 1850TIP3   OH2 5513   1.186   2.244   0.628
 1850TIP3    H1 5514   1.114   2.303   0.604
 1850TIP3    H2 5515   1.265   2.288   0.596
 1851TIP3   OH2 5516   7.072   3.573   4.676
 1851TIP3    H1 5517   7.102   3.583   4.766
 1851TIP3    H2 5518   7.009   3.644   4.663
 1852TIP3   OH2 5519   1.594   2.238   4.973
 1852TIP3    H1 5520   1.597   2.323   4.929
 1852TIP3    H2 5521   1.518   2.244   5.031
 1853TIP3   OH2 5522   1.118   3.872   3.889
 1853TIP3    H1 5523   1.146   3.880   3.980
 1853TIP3    H2 5524   1.194   3.836   3.844
 1854TIP3   OH2 5525   5.171   2.074   0.018
 1854TIP3    H1 5526   5.167   2.017   0.095
 1854TIP3    H2 5527   5.211   2.020  -0.050
 1855TIP3   OH2 5528   2.270   0.262   5.723
 1855TIP3    H1 5529   2.240   0.172   5.719
 1855TIP3    H2 5530   2.238   0.294   5.808
 1856TIP3   OH2 5531   6.671   4.646   4.346
 1856TIP3    H1 5532   6.675   4.587   4.421
 1856TIP3    H2 5533   6.762   4.657   4.319
 1857TIP3   OH2 5534   4.982   1.675   0.340
 1857TIP3    H1 5535   5.049   1.709   0.281
 1857TIP3    H2 5536   5.031   1.645   0.416
 1858TIP3   OH2 5537   2.538   5.801   0.997
 1858TIP3    H1 5538   2.556   5.708   0.984
 1858TIP3    H2 5539   2.619   5.845   0.970
 1859TIP3   OH2 5540   7.018   1.208   1.523
 1859TIP3    H1 5541   6.968   1.134   1.486
 1859TIP3    H2 5542   7.101   1.206   1.477
 1860TIP3   OH2 5543   4.095   3.315   1.181
 1860TIP3    H1 5544   4.080   3.409   1.187
 1860TIP3    H2 5545   4.040   3.278   1.249
 1861TIP3   OH2 5546   3.156   4.577   1.676
 1861TIP3    H1 5547   3.080   4.635   1.679
 1861TIP3    H2 5548   3.227   4.631   1.641
 1862TIP3   OH2 5549   3.155   0.068   4.171
 1862TIP3    H1 5550   3.180   0.113   4.252
 1862TIP3    H2 5551   3.133  -0.021   4.199
 1863TIP3   OH2 5552   7.202   4.520   0.480
 1863TIP3    H1 5553   7.218   4.579   0.407
 1863TIP3    H2 5554   7.124   4.554   0.523
 1864TIP3   OH2 5555   2.408   4.660   5.753
 1864TIP3    H1 5556   2.452   4.745   5.747
 1864TIP3    H2 5557   2.447   4.607   5.684
 1865TIP3   OH2 5558   2.759   5.092   5.043
 1865TIP3    H1 5559   2.836   5.056   5.087
 1865TIP3    H2 5560   2.771   5.070   4.951
 1866TIP3   OH2 5561   6.900   1.227   3.415
 1866TIP3    H1 5562   6.980   1.263   3.377
 1866TIP3    H2 5563   6.866   1.167   3.349
 1867TIP3   OH2 5564   0.184   1.473   1.984
 1867TIP3    H1 5565   0.194   1.493   1.891
 1867TIP3    H2 5566   0.252   1.524   2.028
 1868TIP3   OH2 5567   1.710   4.177   3.791
 1868TIP3    H1 5568   1.695   4.228   3.871
 1868TIP3    H2 5569   1.689   4.087   3.816
 1869TIP3   OH2 5570   0.329   6.535   1.821
 1869TIP3    H1 5571   0.351   6.470   1.754
 1869TIP3    H2 5572   0.234   6.542   1.817
 1870TIP3   OH2 5573   2.176   5.448   1.224
 1870TIP3    H1 5574   2.263   5.408   1.230
 1870TIP3    H2 5575   2.180   5.503   1.146
 1871TIP3   OH2 5576   3.943   2.863   2.271
 1871TIP3    H1 5577   3.873   2.926   2.254
 1871TIP3    H2 5578   3.961   2.870   2.364
 1872TIP3   OH2 5579   7.031   1.624   0.697
 1872TIP3    H1 5580   6.972   1.625   0.773
 1872TIP3    H2 5581   7.020   1.710   0.657
 1873TIP3   OH2 5582   7.063   5.615   0.777
 1873TIP3    H1 5583   7.024   5.703   0.773
 1873TIP3    H2 5584   7.022   5.574   0.853
 1874TIP3   OH2 5585   2.226   5.127   0.957
 1874TIP3    H1 5586   2.139   5.108   0.992
 1874TIP3    H2 5587   2.283   5.062   0.999
 1875TIP3   OH2 5588   1.086   6.645   4.181
 1875TIP3    H1 5589   1.074   6.698   4.260
 1875TIP3    H2 5590   1.159   6.586   4.202
 1876TIP3   OH2 5591   4.307   1.076   1.757
 1876TIP3    H1 5592   4.256   1.127   1.695
 1876TIP3    H2 5593   4.335   1.139   1.823
 1877TIP3   OH2 5594   5.753   2.321   3.108
 1877TIP3    H1 5595   5.783   2.272   3.032
 1877TIP3    H2 5596   5.780   2.411   3.091
 1878TIP3   OH2 5597   6.139   2.864   0.150
 1878TIP3    H1 5598   6.194   2.917   0.093
 1878TIP3    H2 5599   6.061   2.918   0.165
 1879TIP3   OH2 5600   2.537   6.671   4.773
 1879TIP3    H1 5601   2.513   6.758   4.806
 1879TIP3    H2 5602   2.454   6.625   4.763
 1880TIP3   OH2 5603   1.981   2.172   4.570
 1880TIP3    H1 5604   2.032   2.100   4.531
 1880TIP3    H2 5605   1.960   2.141   4.658
 1881TIP3   OH2 5606   6.643   6.084   1.559
 1881TIP3    H1 5607   6.564   6.132   1.584
 1881TIP3    H2 5608   6.617   6.031   1.484
 1882TIP3   OH2 5609   2.231   0.751   5.910
 1882TIP3    H1 5610   2.240   0.684   5.977
 1882TIP3    H2 5611   2.243   0.834   5.956
 1883TIP3   OH2 5612   4.442   3.291   3.629
 1883TIP3    H1 5613   4.517   3.245   3.590
 1883TIP3    H2 5614   4.478   3.375   3.659
 1884TIP3   OH2 5615   4.826   5.422   1.401
 1884TIP3    H1 5616   4.773   5.426   1.480
 1884TIP3    H2 5617   4.771   5.461   1.333
 1885TIP3   OH2 5618   2.630   2.745   1.305
 1885TIP3    H1 5619   2.657   2.654   1.289
 1885TIP3    H2 5620   2.564   2.763   1.238
 1886TIP3   OH2 5621   0.029   1.890   0.726
 1886TIP3    H1 5622   0.069   1.964   0.679
 1886TIP3    H2 5623  -0.055   1.877   0.682
 1887TIP3   OH2 5624   1.988   4.058   4.265
 1887TIP3    H1 5625   1.916   4.004   4.233
 1887TIP3    H2 5626   1.946   4.129   4.313
 1888TIP3   OH2 5627   3.979   0.876   5.692
 1888TIP3    H1 5628   4.006   0.868   5.600
 1888TIP3    H2 5629   4.058   0.902   5.738
 1889TIP3   OH2 5630   0.221   3.002   2.382
 1889TIP3    H1 5631   0.199   2.951   2.305
 1889TIP3    H2 5632   0.315   2.991   2.393
 1890TIP3   OH2 5633   5.459   2.757   3.892
 1890TIP3    H1 5634   5.396   2.697   3.853
 1890TIP3    H2 5635   5.412   2.799   3.964
 1891TIP3   OH2 5636   4.321   0.761   1.026
 1891TIP3    H1 5637   4.270   0.765   0.945
 1891TIP3    H2 5638   4.291   0.681   1.070
 1892TIP3   OH2 5639   2.166   0.971   2.694
 1892TIP3    H1 5640   2.102   0.992   2.626
 1892TIP3    H2 5641   2.138   0.886   2.727
 1893TIP3   OH2 5642   5.659   4.599   3.226
 1893TIP3    H1 5643   5.638   4.579   3.317
 1893TIP3    H2 5644   5.727   4.536   3.203
 1894TIP3   OH2 5645   0.468   1.721   5.352
 1894TIP3    H1 5646   0.442   1.813   5.342
 1894TIP3    H2 5647   0.466   1.685   5.264
 1895TIP3   OH2 5648   1.603   2.741   0.752
 1895TIP3    H1 5649   1.524   2.764   0.703
 1895TIP3    H2 5650   1.584   2.768   0.842
 1896TIP3   OH2 5651   0.813   4.127   1.944
 1896TIP3    H1 5652   0.752   4.189   1.985
 1896TIP3    H2 5653   0.780   4.041   1.971
 1897TIP3   OH2 5654   4.856   5.136   4.163
 1897TIP3    H1 5655   4.849   5.211   4.103
 1897TIP3    H2 5656   4.949   5.114   4.162
 1898TIP3   OH2 5657   5.946   1.315   3.153
 1898TIP3    H1 5658   5.888   1.262   3.097
 1898TIP3    H2 5659   5.968   1.391   3.099
 1899TIP3   OH2 5660   4.812   1.346   1.680
 1899TIP3    H1 5661   4.740   1.408   1.691
 1899TIP3    H2 5662   4.891   1.400   1.685
 1900TIP3   OH2 5663   1.788   2.463   3.489
 1900TIP3    H1 5664   1.843   2.539   3.509
 1900TIP3    H2 5665   1.772   2.423   3.574
 1901TIP3   OH2 5666   4.814   1.936   2.696
 1901TIP3    H1 5667   4.749   1.992   2.653
 1901TIP3    H2 5668   4.794   1.942   2.789
 1902TIP3   OH2 5669   5.661   1.236   0.598
 1902TIP3    H1 5670   5.756   1.239   0.593
 1902TIP3    H2 5671   5.639   1.292   0.673
 1903TIP3   OH2 5672   0.199   5.835   3.490
 1903TIP3    H1 5673   0.134   5.799   3.551
 1903TIP3    H2 5674   0.156   5.911   3.450
 1904TIP3   OH2 5675   2.622   1.578   2.308
 1904TIP3    H1 5676   2.703   1.541   2.274
 1904TIP3    H2 5677   2.589   1.513   2.370
 1905TIP3   OH2 5678   1.557   2.845   3.436
 1905TIP3    H1 5679   1.641   2.827   3.393
 1905TIP3    H2 5680   1.493   2.796   3.384
 1906TIP3   OH2 5681   4.674   3.708   0.942
 1906TIP3    H1 5682   4.676   3.766   1.018
 1906TIP3    H2 5683   4.654   3.621   0.979
 1907TIP3   OH2 5684   3.377   1.506   2.122
 1907TIP3    H1 5685   3.321   1.575   2.157
 1907TIP3    H2 5686   3.374   1.437   2.188
 1908TIP3   OH2 5687   6.149   4.732   5.087
 1908TIP3    H1 5688   6.104   4.711   5.006
 1908TIP3    H2 5689   6.098   4.805   5.124
 1909TIP3   OH2 5690   2.956   2.772   1.272
 1909TIP3    H1 5691   2.924   2.682   1.282
 1909TIP3    H2 5692   3.004   2.789   1.353
 1910TIP3   OH2 5693   5.250   4.120   3.245
 1910TIP3    H1 5694   5.341   4.096   3.262
 1910TIP3    H2 5695   5.199   4.066   3.306
 1911TIP3   OH2 5696   6.619   1.716   5.159
 1911TIP3    H1 5697   6.567   1.643   5.127
 1911TIP3    H2 5698   6.700   1.677   5.190
 1912TIP3   OH2 5699   1.846   6.514   3.689
 1912TIP3    H1 5700   1.819   6.576   3.621
 1912TIP3    H2 5701   1.813   6.552   3.770
 1913TIP3   OH2 5702   0.511   6.656   5.657
 1913TIP3    H1 5703   0.597   6.615   5.670
 1913TIP3    H2 5704   0.451   6.582   5.644
 1914TIP3   OH2 5705   2.721   3.661   5.130
 1914TIP3    H1 5706   2.644   3.711   5.104
 1914TIP3    H2 5707   2.743   3.694   5.217
 1915TIP3   OH2 5708   4.514   2.673   0.708
 1915TIP3    H1 5709   4.489   2.625   0.787
 1915TIP3    H2 5710   4.469   2.757   0.715
 1916TIP3   OH2 5711   1.078   1.276   0.583
 1916TIP3    H1 5712   0.998   1.260   0.533
 1916TIP3    H2 5713   1.062   1.234   0.668
 1917TIP3   OH2 5714   3.842   6.468   1.416
 1917TIP3    H1 5715   3.935   6.446   1.428
 1917TIP3    H2 5716   3.834   6.557   1.451
 1918TIP3   OH2 5717   0.620   2.296   1.639
 1918TIP3    H1 5718   0.575   2.261   1.562
 1918TIP3    H2 5719   0.590   2.242   1.712
 1919TIP3   OH2 5720   5.318   5.873   3.904
 1919TIP3    H1 5721   5.403   5.894   3.866
 1919TIP3    H2 5722   5.276   5.959   3.917
 1920TIP3   OH2 5723   1.356   2.717   0.596
 1920TIP3    H1 5724   1.349   2.721   0.501
 1920TIP3    H2 5725   1.278   2.668   0.624
 1921TIP3   OH2 5726   1.321   3.529   5.557
 1921TIP3    H1 5727   1.399   3.484   5.525
 1921TIP3    H2 5728   1.285   3.470   5.624
 1922TIP3   OH2 5729   0.273   1.394   4.782
 1922TIP3    H1 5730   0.238   1.458   4.720
 1922TIP3    H2 5731   0.202   1.379   4.844
 1923TIP3   OH2 5732   6.720   5.274   2.139
 1923TIP3    H1 5733   6.627   5.252   2.143
 1923TIP3    H2 5734   6.744   5.289   2.231
 1924TIP3   OH2 5735   2.534   2.790   4.888
 1924TIP3    H1 5736   2.581   2.864   4.851
 1924TIP3    H2 5737   2.584   2.713   4.860
 1925TIP3   OH2 5738   1.895   3.312   5.444
 1925TIP3    H1 5739   1.988   3.292   5.436
 1925TIP3    H2 5740   1.872   3.286   5.533
 1926TIP3   OH2 5741   4.543   3.623   2.198
 1926TIP3    H1 5742   4.458   3.612   2.240
 1926TIP3    H2 5743   4.536   3.705   2.150
 1927TIP3   OH2 5744   2.874   2.401   5.543
 1927TIP3    H1 5745   2.912   2.328   5.592
 1927TIP3    H2 5746   2.783   2.376   5.530
 1928TIP3   OH2 5747   2.160   3.425   5.144
 1928TIP3    H1 5748   2.140   3.392   5.057
 1928TIP3    H2 5749   2.215   3.358   5.184
 1929TIP3   OH2 5750   5.256   5.855   3.136
 1929TIP3    H1 5751   5.246   5.829   3.227
 1929TIP3    H2 5752   5.310   5.933   3.138
 1930TIP3   OH2 5753   3.186   4.597   5.334
 1930TIP3    H1 5754   3.117   4.660   5.353
 1930TIP3    H2 5755   3.229   4.583   5.418
 1931TIP3   OH2 5756   2.572   2.626   3.068
 1931TIP3    H1 5757   2.533   2.571   3.136
 1931TIP3    H2 5758   2.512   2.700   3.059
 1932TIP3   OH2 5759   4.771   3.969   5.758
 1932TIP3    H1 5760   4.811   3.887   5.788
 1932TIP3    H2 5761   4.694   3.980   5.814
 1933TIP3   OH2 5762   6.507   0.504   2.724
 1933TIP3    H1 5763   6.476   0.447   2.653
 1933TIP3    H2 5764   6.516   0.446   2.799
 1934TIP3   OH2 5765   0.288   6.824   3.605
 1934TIP3    H1 5766   0.327   6.755   3.659
 1934TIP3    H2 5767   0.196   6.798   3.597
 1935TIP3   OH2 5768   5.441   1.909   5.253
 1935TIP3    H1 5769   5.474   1.821   5.238
 1935TIP3    H2 5770   5.395   1.931   5.172
 1936TIP3   OH2 5771   5.493   3.581   4.800
 1936TIP3    H1 5772   5.534   3.500   4.831
 1936TIP3    H2 5773   5.538   3.650   4.850
 1937TIP3   OH2 5774   4.019   4.566   4.509
 1937TIP3    H1 5775   4.093   4.624   4.530
 1937TIP3    H2 5776   4.049   4.514   4.435
 1938TIP3   OH2 5777   2.885   3.707   0.957
 1938TIP3    H1 5778   2.902   3.703   1.051
 1938TIP3    H2 5779   2.900   3.798   0.933
 1939TIP3   OH2 5780   2.982   4.823   5.438
 1939TIP3    H1 5781   3.004   4.878   5.363
 1939TIP3    H2 5782   2.981   4.883   5.512
 1940TIP3   OH2 5783  -0.012   3.918   4.955
 1940TIP3    H1 5784   0.005   3.954   5.042
 1940TIP3    H2 5785  -0.012   3.823   4.968
 1941TIP3   OH2 5786   0.846   0.228   1.886
 1941TIP3    H1 5787   0.927   0.262   1.848
 1941TIP3    H2 5788   0.837   0.140   1.849
 1942TIP3   OH2 5789   3.898   3.996   0.256
 1942TIP3    H1 5790   3.976   4.044   0.284
 1942TIP3    H2 5791   3.930   3.909   0.235
 1943TIP3   OH2 5792   4.440   6.455   0.552
 1943TIP3    H1 5793   4.366   6.501   0.511
 1943TIP3    H2 5794   4.438   6.483   0.643
 1944TIP3   OH2 5795   1.628   0.857   3.031
 1944TIP3    H1 5796   1.663   0.909   2.959
 1944TIP3    H2 5797   1.657   0.903   3.110
 1945TIP3   OH2 5798   4.014   1.635   5.451
 1945TIP3    H1 5799   3.935   1.589   5.483
 1945TIP3    H2 5800   3.992   1.727   5.461
 1946TIP3   OH2 5801   3.440   3.151   0.352
 1946TIP3    H1 5802   3.391   3.163   0.434
 1946TIP3    H2 5803   3.416   3.227   0.299
 1947TIP3   OH2 5804   5.540   4.142   5.426
 1947TIP3    H1 5805   5.614   4.194   5.396
 1947TIP3    H2 5806   5.463   4.192   5.399
 1948TIP3   OH2 5807   1.722   5.483   5.651
 1948TIP3    H1 5808   1.731   5.400   5.603
 1948TIP3    H2 5809   1.690   5.545   5.586
 1949TIP3   OH2 5810   2.673   3.912   5.867
 1949TIP3    H1 5811   2.661   3.819   5.850
 1949TIP3    H2 5812   2.586   3.945   5.889
 1950TIP3   OH2 5813   0.891   3.117   4.318
 1950TIP3    H1 5814   0.906   3.047   4.254
 1950TIP3    H2 5815   0.922   3.082   4.401
 1951TIP3   OH2 5816   0.012   1.388   1.662
 1951TIP3    H1 5817  -0.027   1.368   1.747
 1951TIP3    H2 5818   0.069   1.314   1.643
 1952TIP3   OH2 5819   5.990   3.087   2.388
 1952TIP3    H1 5820   5.965   3.117   2.475
 1952TIP3    H2 5821   5.952   3.151   2.328
 1953TIP3   OH2 5822   3.583   4.989   5.160
 1953TIP3    H1 5823   3.679   4.992   5.167
 1953TIP3    H2 5824   3.554   5.071   5.200
 1954TIP3   OH2 5825   2.400   0.786   2.538
 1954TIP3    H1 5826   2.378   0.722   2.471
 1954TIP3    H2 5827   2.345   0.761   2.613
 1955TIP3   OH2 5828   2.505   3.098   2.975
 1955TIP3    H1 5829   2.438   3.108   2.907
 1955TIP3    H2 5830   2.587   3.086   2.926
 1956TIP3   OH2 5831   0.129   3.728   3.251
 1956TIP3    H1 5832   0.217   3.754   3.222
 1956TIP3    H2 5833   0.131   3.738   3.347
 1957TIP3   OH2 5834   4.535   0.052   4.567
 1957TIP3    H1 5835   4.534   0.053   4.663
 1957TIP3    H2 5836   4.444   0.032   4.543
 1958TIP3   OH2 5837   5.331   2.317   5.628
 1958TIP3    H1 5838   5.344   2.405   5.593
 1958TIP3    H2 5839   5.250   2.286   5.587
 1959TIP3   OH2 5840   0.392   6.347   2.062
 1959TIP3    H1 5841   0.470   6.375   2.013
 1959TIP3    H2 5842   0.359   6.272   2.014
 1960TIP3   OH2 5843   6.800   3.047   2.102
 1960TIP3    H1 5844   6.740   2.975   2.085
 1960TIP3    H2 5845   6.836   3.069   2.016
 1961TIP3   OH2 5846   2.467   5.003   2.428
 1961TIP3    H1 5847   2.535   5.069   2.439
 1961TIP3    H2 5848   2.409   5.039   2.361
 1962TIP3   OH2 5849   0.408   1.627   4.338
 1962TIP3    H1 5850   0.321   1.662   4.319
 1962TIP3    H2 5851   0.405   1.606   4.431
 1963TIP3   OH2 5852   2.931   3.142   2.327
 1963TIP3    H1 5853   3.005   3.160   2.384
 1963TIP3    H2 5854   2.864   3.206   2.352
 1964TIP3   OH2 5855   0.222   4.899   2.584
 1964TIP3    H1 5856   0.314   4.915   2.604
 1964TIP3    H2 5857   0.207   4.808   2.609
 1965TIP3   OH2 5858   4.259   0.913   2.478
 1965TIP3    H1 5859   4.204   0.845   2.440
 1965TIP3    H2 5860   4.346   0.873   2.481
 1966TIP3   OH2 5861   1.310   5.645   5.607
 1966TIP3    H1 5862   1.249   5.617   5.539
 1966TIP3    H2 5863   1.397   5.623   5.572
 1967TIP3   OH2 5864   3.695   1.207   1.647
 1967TIP3    H1 5865   3.656   1.284   1.689
 1967TIP3    H2 5866   3.632   1.183   1.579
 1968TIP3   OH2 5867   5.551   0.768   0.182
 1968TIP3    H1 5868   5.496   0.846   0.178
 1968TIP3    H2 5869   5.500   0.705   0.232
 1969TIP3   OH2 5870   2.318   6.710   3.776
 1969TIP3    H1 5871   2.320   6.694   3.870
 1969TIP3    H2 5872   2.240   6.664   3.745
 1970TIP3   OH2 5873   0.169   0.135   2.426
 1970TIP3    H1 5874   0.151   0.049   2.463
 1970TIP3    H2 5875   0.189   0.190   2.501
 1971TIP3   OH2 5876   1.199   6.804   2.494
 1971TIP3    H1 5877   1.113   6.825   2.460
 1971TIP3    H2 5878   1.182   6.754   2.574
 1972TIP3   OH2 5879   2.124   3.188   1.494
 1972TIP3    H1 5880   2.204   3.206   1.444
 1972TIP3    H2 5881   2.053   3.209   1.433
 1973TIP3   OH2 5882   7.250   6.429   1.876
 1973TIP3    H1 5883   7.295   6.377   1.809
 1973TIP3    H2 5884   7.157   6.423   1.853
 1974TIP3   OH2 5885   3.678   4.787   4.804
 1974TIP3    H1 5886   3.728   4.851   4.855
 1974TIP3    H2 5887   3.656   4.833   4.723
 1975TIP3   OH2 5888   3.469   3.939   1.981
 1975TIP3    H1 5889   3.494   4.005   2.045
 1975TIP3    H2 5890   3.378   3.917   2.002
 1976TIP3   OH2 5891   2.934   1.170   2.975
 1976TIP3    H1 5892   2.857   1.159   3.031
 1976TIP3    H2 5893   2.995   1.103   3.006
 1977TIP3   OH2 5894   0.716   1.578   5.360
 1977TIP3    H1 5895   0.761   1.646   5.310
 1977TIP3    H2 5896   0.657   1.626   5.418
 1978TIP3   OH2 5897   4.364   5.295   2.916
 1978TIP3    H1 5898   4.332   5.214   2.955
 1978TIP3    H2 5899   4.333   5.364   2.975
 1979TIP3   OH2 5900   2.649   5.373   3.264
 1979TIP3    H1 5901   2.742   5.364   3.245
 1979TIP3    H2 5902   2.645   5.406   3.354
 1980TIP3   OH2 5903   6.554   0.982   3.131
 1980TIP3    H1 5904   6.477   0.954   3.181
 1980TIP3    H2 5905   6.528   1.066   3.093
 1981TIP3   OH2 5906   3.088   2.370   2.777
 1981TIP3    H1 5907   3.173   2.384   2.735
 1981TIP3    H2 5908   3.053   2.293   2.733
 1982TIP3   OH2 5909   3.126   1.621   1.359
 1982TIP3    H1 5910   3.200   1.598   1.415
 1982TIP3    H2 5911   3.064   1.549   1.370
 1983TIP3   OH2 5912   0.770   6.593   5.301
 1983TIP3    H1 5913   0.865   6.600   5.293
 1983TIP3    H2 5914   0.744   6.674   5.346
 1984TIP3   OH2 5915   6.002   4.294   2.048
 1984TIP3    H1 5916   5.908   4.309   2.058
 1984TIP3    H2 5917   6.033   4.367   1.995
 1985TIP3   OH2 5918   0.188   3.287   4.098
 1985TIP3    H1 5919   0.102   3.258   4.067
 1985TIP3    H2 5920   0.171   3.370   4.141
 1986TIP3   OH2 5921   1.761   0.385   5.410
 1986TIP3    H1 5922   1.745   0.440   5.333
 1986TIP3    H2 5923   1.693   0.412   5.473
 1987TIP3   OH2 5924   0.143   0.133   3.275
 1987TIP3    H1 5925   0.109   0.206   3.223
 1987TIP3    H2 5926   0.235   0.155   3.290
 1988TIP3   OH2 5927   5.286   5.287   1.851
 1988TIP3    H1 5928   5.330   5.216   1.899
 1988TIP3    H2 5929   5.203   5.299   1.898
 1989TIP3   OH2 5930   4.499   5.589   3.416
 1989TIP3    H1 5931   4.516   5.530   3.342
 1989TIP3    H2 5932   4.417   5.559   3.453
 1990TIP3   OH2 5933   3.620   3.625   2.039
 1990TIP3    H1 5934   3.655   3.547   2.080
 1990TIP3    H2 5935   3.525   3.616   2.048
 1991TIP3   OH2 5936   5.446   3.153   0.363
 1991TIP3    H1 5937   5.369   3.126   0.313
 1991TIP3    H2 5938   5.509   3.181   0.297
 1992TIP3   OH2 5939   2.487   1.174   1.023
 1992TIP3    H1 5940   2.399   1.149   0.994
 1992TIP3    H2 5941   2.497   1.132   1.109
 1993TIP3   OH2 5942   4.087   3.113   3.165
 1993TIP3    H1 5943   4.078   3.124   3.260
 1993TIP3    H2 5944   4.096   3.018   3.153
 1994TIP3   OH2 5945   5.238   6.737   3.197
 1994TIP3    H1 5946   5.184   6.664   3.228
 1994TIP3    H2 5947   5.221   6.808   3.260
 1995TIP3   OH2 5948   5.472   4.782   3.702
 1995TIP3    H1 5949   5.481   4.876   3.684
 1995TIP3    H2 5950   5.396   4.755   3.650
 1996TIP3   OH2 5951   1.855   5.656   5.249
 1996TIP3    H1 5952   1.760   5.657   5.259
 1996TIP3    H2 5953   1.870   5.611   5.165
 1997TIP3   OH2 5954   0.539   1.417   1.719
 1997TIP3    H1 5955   0.480   1.441   1.648
 1997TIP3    H2 5956   0.483   1.371   1.782
 1998TIP3   OH2 5957   0.810   6.651   3.849
 1998TIP3    H1 5958   0.851   6.625   3.767
 1998TIP3    H2 5959   0.717   6.632   3.836
 1999TIP3   OH2 5960   6.639   5.311   5.855
 1999TIP3    H1 5961   6.570   5.357   5.902
 1999TIP3    H2 5962   6.637   5.222   5.891
 2000TIP3   OH2 5963   0.411   5.100   1.417
 2000TIP3    H1 5964   0.476   5.139   1.359
 2000TIP3    H2 5965   0.457   5.086   1.500
 2001TIP3   OH2 5966   3.509   2.516   3.288
 2001TIP3    H1 5967   3.574   2.576   3.251
 2001TIP3    H2 5968   3.539   2.429   3.262
 2002TIP3   OH2 5969   4.623   1.175   1.189
 2002TIP3    H1 5970   4.598   1.197   1.099
 2002TIP3    H2 5971   4.621   1.080   1.192
 2003TIP3   OH2 5972   4.258   0.962   4.360
 2003TIP3    H1 5973   4.227   0.877   4.330
 2003TIP3    H2 5974   4.347   0.945   4.393
 2004TIP3   OH2 5975   3.429   1.976   1.941
 2004TIP3    H1 5976   3.414   2.019   1.857
 2004TIP3    H2 5977   3.435   2.048   2.004
 2005TIP3   OH2 5978   2.013   1.581   3.139
 2005TIP3    H1 5979   1.922   1.598   3.114
 2005TIP3    H2 5980   2.041   1.509   3.083
 2006TIP3   OH2 5981   7.176   6.271   2.795
 2006TIP3    H1 5982   7.143   6.347   2.747
 2006TIP3    H2 5983   7.152   6.288   2.886
 2007TIP3   OH2 5984   0.246   2.896   4.741
 2007TIP3    H1 5985   0.287   2.982   4.744
 2007TIP3    H2 5986   0.204   2.892   4.655
 2008TIP3   OH2 5987   6.359   4.529   3.720
 2008TIP3    H1 5988   6.426   4.539   3.653
 2008TIP3    H2 5989   6.323   4.617   3.732
 2009TIP3   OH2 5990   4.952   6.109   3.563
 2009TIP3    H1 5991   4.920   6.029   3.522
 2009TIP3    H2 5992   4.929   6.101   3.655
 2010TIP3   OH2 5993   3.817   0.127   5.744
 2010TIP3    H1 5994   3.880   0.158   5.809
 2010TIP3    H2 5995   3.870   0.087   5.676
 2011TIP3   OH2 5996   3.891   5.553   3.765
 2011TIP3    H1 5997   3.799   5.539   3.787
 2011TIP3    H2 5998   3.902   5.648   3.767
 2012TIP3   OH2 5999   5.886   6.554   4.794
 2012TIP3    H1 6000   5.894   6.478   4.736
 2012TIP3    H2 6001   5.819   6.528   4.858
 2013TIP3   OH2 6002   2.010   3.673   0.554
 2013TIP3    H1 6003   1.992   3.687   0.462
 2013TIP3    H2 6004   2.013   3.577   0.564
 2014TIP3   OH2 6005   3.351   0.594   1.147
 2014TIP3    H1 6006   3.417   0.589   1.077
 2014TIP3    H2 6007   3.290   0.662   1.118
 2015TIP3   OH2 6008   1.968   0.184   1.193
 2015TIP3    H1 6009   2.024   0.111   1.218
 2015TIP3    H2 6010   1.935   0.161   1.106
 2016TIP3   OH2 6011   3.856   1.603   1.936
 2016TIP3    H1 6012   3.774   1.600   1.985
 2016TIP3    H2 6013   3.917   1.550   1.987
 2017TIP3   OH2 6014   5.030   1.548   2.082
 2017TIP3    H1 6015   5.004   1.622   2.026
 2017TIP3    H2 6016   5.120   1.529   2.055
 2018TIP3   OH2 6017   0.738   3.834   1.448
 2018TIP3    H1 6018   0.814   3.827   1.506
 2018TIP3    H2 6019   0.665   3.852   1.507
 2019TIP3   OH2 6020   6.936   2.006   5.456
 2019TIP3    H1 6021   6.855   1.957   5.473
 2019TIP3    H2 6022   6.908   2.078   5.400
 2020TIP3   OH2 6023   1.611   3.927   2.336
 2020TIP3    H1 6024   1.593   4.021   2.337
 2020TIP3    H2 6025   1.584   3.896   2.423
 2021TIP3   OH2 6026   6.676   3.194   1.878
 2021TIP3    H1 6027   6.598   3.236   1.914
 2021TIP3    H2 6028   6.668   3.208   1.783
 2022TIP3   OH2 6029   3.055   2.223   1.869
 2022TIP3    H1 6030   2.994   2.276   1.920
 2022TIP3    H2 6031   3.043   2.134   1.903
 2023TIP3   OH2 6032   5.968   0.161   0.881
 2023TIP3    H1 6033   5.974   0.256   0.870
 2023TIP3    H2 6034   6.034   0.140   0.947
 2024TIP3   OH2 6035   2.925   4.638   1.368
 2024TIP3    H1 6036   3.001   4.579   1.366
 2024TIP3    H2 6037   2.897   4.643   1.277
 2025TIP3   OH2 6038   2.692   5.591   0.308
 2025TIP3    H1 6039   2.766   5.576   0.249
 2025TIP3    H2 6040   2.620   5.617   0.250
 2026TIP3   OH2 6041   5.258   6.048   3.534
 2026TIP3    H1 6042   5.314   6.099   3.593
 2026TIP3    H2 6043   5.170   6.059   3.569
 2027TIP3   OH2 6044   2.603   3.464   1.492
 2027TIP3    H1 6045   2.517   3.442   1.455
 2027TIP3    H2 6046   2.586   3.475   1.586
 2028TIP3   OH2 6047   6.132   6.179   4.250
 2028TIP3    H1 6048   6.060   6.146   4.304
 2028TIP3    H2 6049   6.207   6.126   4.276
 2029TIP3   OH2 6050   1.889   1.675   5.091
 2029TIP3    H1 6051   1.805   1.704   5.055
 2029TIP3    H2 6052   1.954   1.730   5.046
 2030TIP3   OH2 6053   5.890   4.596   5.300
 2030TIP3    H1 6054   5.829   4.654   5.255
 2030TIP3    H2 6055   5.916   4.645   5.379
 2031TIP3   OH2 6056   6.969   1.058   2.671
 2031TIP3    H1 6057   7.000   1.148   2.664
 2031TIP3    H2 6058   7.001   1.029   2.757
 2032TIP3   OH2 6059   5.284   3.800   1.955
 2032TIP3    H1 6060   5.322   3.857   1.889
 2032TIP3    H2 6061   5.303   3.711   1.926
 2033TIP3   OH2 6062   0.546   3.338   3.605
 2033TIP3    H1 6063   0.500   3.376   3.680
 2033TIP3    H2 6064   0.637   3.334   3.633
 2034TIP3   OH2 6065   2.045   3.591   4.598
 2034TIP3    H1 6066   2.115   3.567   4.658
 2034TIP3    H2 6067   2.047   3.687   4.596
 2035TIP3   OH2 6068   0.086   1.756   5.592
 2035TIP3    H1 6069   0.174   1.785   5.566
 2035TIP3    H2 6070   0.087   1.662   5.579
 2036TIP3   OH2 6071   6.474   6.788   3.637
 2036TIP3    H1 6072   6.463   6.701   3.598
 2036TIP3    H2 6073   6.437   6.779   3.725
 2037TIP3   OH2 6074   1.214   2.631   5.621
 2037TIP3    H1 6075   1.197   2.708   5.676
 2037TIP3    H2 6076   1.220   2.558   5.683
 2038TIP3   OH2 6077   5.086   1.174   5.001
 2038TIP3    H1 6078   5.097   1.138   5.089
 2038TIP3    H2 6079   5.093   1.098   4.943
 2039TIP3   OH2 6080   2.312   4.101   0.408
 2039TIP3    H1 6081   2.342   4.048   0.334
 2039TIP3    H2 6082   2.348   4.188   0.391
 2040TIP3   OH2 6083   6.939   1.534   1.847
 2040TIP3    H1 6084   7.032   1.548   1.868
 2040TIP3    H2 6085   6.893   1.599   1.900
 2041TIP3   OH2 6086   4.857  -0.005   0.514
 2041TIP3    H1 6087   4.789   0.053   0.479
 2041TIP3    H2 6088   4.908  -0.031   0.437
 2042TIP3   OH2 6089   4.030   0.469   1.413
 2042TIP3    H1 6090   4.022   0.458   1.507
 2042TIP3    H2 6091   4.124   0.462   1.395
 2043TIP3   OH2 6092   0.661   2.823   4.212
 2043TIP3    H1 6093   0.577   2.831   4.167
 2043TIP3    H2 6094   0.642   2.851   4.302
 2044TIP3   OH2 6095   2.771   0.653   1.570
 2044TIP3    H1 6096   2.777   0.591   1.642
 2044TIP3    H2 6097   2.862   0.671   1.546
 2045TIP3   OH2 6098   0.443   3.685   1.505
 2045TIP3    H1 6099   0.403   3.755   1.557
 2045TIP3    H2 6100   0.466   3.727   1.422
 2046TIP3   OH2 6101   2.741   2.685   5.455
 2046TIP3    H1 6102   2.724   2.735   5.375
 2046TIP3    H2 6103   2.829   2.649   5.442
 2047TIP3   OH2 6104   7.188   5.741   4.225
 2047TIP3    H1 6105   7.131   5.698   4.289
 2047TIP3    H2 6106   7.142   5.822   4.202
 2048TIP3   OH2 6107   1.885   1.618   3.962
 2048TIP3    H1 6108   1.978   1.627   3.942
 2048TIP3    H2 6109   1.841   1.633   3.879
 2049TIP3   OH2 6110   1.346   5.000   5.092
 2049TIP3    H1 6111   1.308   5.086   5.105
 2049TIP3    H2 6112   1.322   4.951   5.171
 2050TIP3   OH2 6113   5.062   0.744   0.715
 2050TIP3    H1 6114   5.127   0.806   0.682
 2050TIP3    H2 6115   5.052   0.679   0.646
 2051TIP3   OH2 6116   1.408   0.674   3.406
 2051TIP3    H1 6117   1.466   0.611   3.449
 2051TIP3    H2 6118   1.466   0.747   3.383
 2052TIP3   OH2 6119   4.769   6.151   4.623
 2052TIP3    H1 6120   4.776   6.156   4.718
 2052TIP3    H2 6121   4.857   6.130   4.593
 2053TIP3   OH2 6122   1.720   0.054   2.710
 2053TIP3    H1 6123   1.760   0.112   2.775
 2053TIP3    H2 6124   1.768   0.071   2.629
 2054TIP3   OH2 6125   4.737   0.067   3.112
 2054TIP3    H1 6126   4.710   0.135   3.174
 2054TIP3    H2 6127   4.703   0.098   3.028
 2055TIP3   OH2 6128   0.125   2.214   2.695
 2055TIP3    H1 6129   0.213   2.233   2.729
 2055TIP3    H2 6130   0.093   2.298   2.663
 2056TIP3   OH2 6131   1.647   5.266   3.564
 2056TIP3    H1 6132   1.608   5.192   3.518
 2056TIP3    H2 6133   1.591   5.278   3.641
 2057TIP3   OH2 6134   5.639   6.412   1.346
 2057TIP3    H1 6135   5.544   6.425   1.344
 2057TIP3    H2 6136   5.653   6.351   1.418
 2058TIP3   OH2 6137   5.421   6.741   5.418
 2058TIP3    H1 6138   5.362   6.668   5.434
 2058TIP3    H2 6139   5.481   6.740   5.493
 2059TIP3   OH2 6140   2.500   1.669   4.387
 2059TIP3    H1 6141   2.442   1.676   4.311
 2059TIP3    H2 6142   2.470   1.591   4.434
 2060TIP3   OH2 6143   3.076   3.941   3.498
 2060TIP3    H1 6144   3.021   3.987   3.434
 2060TIP3    H2 6145   3.163   3.980   3.488
 2061TIP3   OH2 6146   1.749   6.562   0.519
 2061TIP3    H1 6147   1.666   6.588   0.559
 2061TIP3    H2 6148   1.815   6.590   0.582
 2062TIP3   OH2 6149   2.892   5.442   1.073
 2062TIP3    H1 6150   2.797   5.455   1.066
 2062TIP3    H2 6151   2.930   5.512   1.019
 2063TIP3   OH2 6152   6.890   4.470   4.937
 2063TIP3    H1 6153   6.879   4.517   5.019
 2063TIP3    H2 6154   6.932   4.533   4.878
 2064TIP3   OH2 6155   5.583   3.431   3.109
 2064TIP3    H1 6156   5.622   3.430   3.021
 2064TIP3    H2 6157   5.501   3.384   3.100
 2065TIP3   OH2 6158   6.471   1.252   4.917
 2065TIP3    H1 6159   6.539   1.194   4.952
 2065TIP3    H2 6160   6.437   1.206   4.840
 2066TIP3   OH2 6161   4.112   3.984   4.562
 2066TIP3    H1 6162   4.021   3.958   4.574
 2066TIP3    H2 6163   4.148   3.988   4.651
 2067TIP3   OH2 6164   6.539   0.888   2.809
 2067TIP3    H1 6165   6.556   0.949   2.737
 2067TIP3    H2 6166   6.618   0.893   2.863
 2068TIP3   OH2 6167   1.321   4.314   1.697
 2068TIP3    H1 6168   1.341   4.260   1.774
 2068TIP3    H2 6169   1.356   4.264   1.623
 2069TIP3   OH2 6170   1.134   2.264   2.613
 2069TIP3    H1 6171   1.055   2.260   2.558
 2069TIP3    H2 6172   1.173   2.349   2.593
 2070TIP3   OH2 6173   2.562   2.281   0.365
 2070TIP3    H1 6174   2.498   2.350   0.382
 2070TIP3    H2 6175   2.549   2.258   0.273
 2071TIP3   OH2 6176   6.257   3.665   1.922
 2071TIP3    H1 6177   6.251   3.741   1.979
 2071TIP3    H2 6178   6.200   3.599   1.962
 2072TIP3   OH2 6179   6.167   5.176   0.851
 2072TIP3    H1 6180   6.125   5.224   0.779
 2072TIP3    H2 6181   6.257   5.162   0.820
 2073TIP3   OH2 6182   5.689   1.635   3.811
 2073TIP3    H1 6183   5.658   1.707   3.757
 2073TIP3    H2 6184   5.719   1.569   3.749
 2074TIP3   OH2 6185   2.191   0.723   3.755
 2074TIP3    H1 6186   2.241   0.762   3.683
 2074TIP3    H2 6187   2.171   0.635   3.725
 2075TIP3   OH2 6188   1.627   3.692   1.458
 2075TIP3    H1 6189   1.699   3.667   1.399
 2075TIP3    H2 6190   1.610   3.783   1.437
 2076TIP3   OH2 6191   0.831   2.540   5.488
 2076TIP3    H1 6192   0.737   2.551   5.503
 2076TIP3    H2 6193   0.862   2.627   5.464
 2077TIP3   OH2 6194   4.991   4.972   3.008
 2077TIP3    H1 6195   4.945   4.961   2.925
 2077TIP3    H2 6196   5.042   4.891   3.017
 2078TIP3   OH2 6197   5.831   3.938   4.583
 2078TIP3    H1 6198   5.771   3.972   4.517
 2078TIP3    H2 6199   5.915   3.979   4.562
 2079TIP3   OH2 6200   3.982   2.264   1.418
 2079TIP3    H1 6201   4.055   2.272   1.480
 2079TIP3    H2 6202   3.917   2.327   1.450
 2080TIP3   OH2 6203   4.682   4.095   0.957
 2080TIP3    H1 6204   4.620   4.164   0.934
 2080TIP3    H2 6205   4.705   4.112   1.048
 2081TIP3   OH2 6206   4.479   1.367   0.139
 2081TIP3    H1 6207   4.554   1.425   0.155
 2081TIP3    H2 6208   4.518   1.281   0.123
 2082TIP3   OH2 6209   1.205   0.179   4.611
 2082TIP3    H1 6210   1.205   0.272   4.589
 2082TIP3    H2 6211   1.298   0.156   4.617
 2083TIP3   OH2 6212   3.905   0.928   5.010
 2083TIP3    H1 6213   3.902   0.914   4.915
 2083TIP3    H2 6214   3.881   0.843   5.048
 2084TIP3   OH2 6215   3.678   3.311   2.105
 2084TIP3    H1 6216   3.658   3.355   2.188
 2084TIP3    H2 6217   3.690   3.219   2.130
 2085TIP3   OH2 6218   4.329   2.936   0.270
 2085TIP3    H1 6219   4.421   2.964   0.268
 2085TIP3    H2 6220   4.333   2.843   0.246
 2086TIP3   OH2 6221   5.269   2.567   0.887
 2086TIP3    H1 6222   5.247   2.657   0.863
 2086TIP3    H2 6223   5.364   2.567   0.897
 2087TIP3   OH2 6224   0.459  -0.001   2.733
 2087TIP3    H1 6225   0.415   0.000   2.818
 2087TIP3    H2 6226   0.501  -0.087   2.730
 2088TIP3   OH2 6227   4.325   4.970   1.005
 2088TIP3    H1 6228   4.402   5.021   0.981
 2088TIP3    H2 6229   4.256   5.000   0.946
 2089TIP3   OH2 6230   1.892   2.185   5.552
 2089TIP3    H1 6231   1.828   2.141   5.496
 2089TIP3    H2 6232   1.931   2.252   5.497
 2090TIP3   OH2 6233   2.525   3.539   0.188
 2090TIP3    H1 6234   2.593   3.594   0.150
 2090TIP3    H2 6235   2.477   3.597   0.247
 2091TIP3   OH2 6236   6.221   4.366   1.240
 2091TIP3    H1 6237   6.221   4.322   1.325
 2091TIP3    H2 6238   6.297   4.332   1.194
 2092TIP3   OH2 6239   5.380   1.147   2.370
 2092TIP3    H1 6240   5.289   1.122   2.356
 2092TIP3    H2 6241   5.429   1.094   2.307
 2093TIP3   OH2 6242   0.003   4.765   4.154
 2093TIP3    H1 6243   0.059   4.815   4.094
 2093TIP3    H2 6244  -0.080   4.813   4.154
 2094TIP3   OH2 6245   5.131   3.826   1.527
 2094TIP3    H1 6246   5.090   3.913   1.525
 2094TIP3    H2 6247   5.187   3.824   1.450
 2095TIP3   OH2 6248   1.631   0.297   5.638
 2095TIP3    H1 6249   1.571   0.298   5.713
 2095TIP3    H2 6250   1.575   0.271   5.564
 2096TIP3   OH2 6251   3.268   5.321   3.068
 2096TIP3    H1 6252   3.181   5.358   3.081
 2096TIP3    H2 6253   3.327   5.397   3.073
 2097TIP3   OH2 6254   3.717   5.127   3.868
 2097TIP3    H1 6255   3.725   5.040   3.830
 2097TIP3    H2 6256   3.677   5.180   3.799
 2098TIP3   OH2 6257   7.028   6.618   4.844
 2098TIP3    H1 6258   7.067   6.638   4.759
 2098TIP3    H2 6259   7.079   6.670   4.907
 2099TIP3   OH2 6260   3.719   2.384   2.726
 2099TIP3    H1 6261   3.686   2.419   2.809
 2099TIP3    H2 6262   3.644   2.340   2.687
 2100TIP3   OH2 6263   3.545   5.986   5.342
 2100TIP3    H1 6264   3.607   5.961   5.273
 2100TIP3    H2 6265   3.466   5.936   5.322
 2101TIP3   OH2 6266   4.998   3.536   0.662
 2101TIP3    H1 6267   5.077   3.535   0.609
 2101TIP3    H2 6268   4.998   3.622   0.704
 2102TIP3   OH2 6269   5.350   3.366   4.483
 2102TIP3    H1 6270   5.408   3.398   4.414
 2102TIP3    H2 6271   5.405   3.306   4.534
 2103TIP3   OH2 6272   4.799   4.366   0.086
 2103TIP3    H1 6273   4.799   4.378   0.181
 2103TIP3    H2 6274   4.855   4.437   0.053
 2104TIP3   OH2 6275   4.696   5.588   0.839
 2104TIP3    H1 6276   4.615   5.543   0.863
 2104TIP3    H2 6277   4.712   5.650   0.910
 2105TIP3   OH2 6278   5.164   3.669   4.501
 2105TIP3    H1 6279   5.162   3.598   4.566
 2105TIP3    H2 6280   5.252   3.706   4.508
 2106TIP3   OH2 6281   3.105   6.653   0.361
 2106TIP3    H1 6282   3.099   6.568   0.405
 2106TIP3    H2 6283   3.102   6.632   0.267
 2107TIP3   OH2 6284   5.730   0.601   1.249
 2107TIP3    H1 6285   5.800   0.648   1.294
 2107TIP3    H2 6286   5.713   0.524   1.304
 2108TIP3   OH2 6287   1.629   2.254   1.512
 2108TIP3    H1 6288   1.701   2.283   1.568
 2108TIP3    H2 6289   1.656   2.169   1.478
 2109TIP3   OH2 6290   2.191   0.088   5.484
 2109TIP3    H1 6291   2.242   0.160   5.521
 2109TIP3    H2 6292   2.105   0.126   5.467
 2110TIP3   OH2 6293   1.569   5.826   4.132
 2110TIP3    H1 6294   1.623   5.794   4.060
 2110TIP3    H2 6295   1.501   5.759   4.143
 2111TIP3   OH2 6296   3.601   0.659   0.676
 2111TIP3    H1 6297   3.537   0.590   0.659
 2111TIP3    H2 6298   3.552   0.740   0.665
 2112TIP3   OH2 6299   0.575   5.096   4.451
 2112TIP3    H1 6300   0.645   5.097   4.386
 2112TIP3    H2 6301   0.531   5.180   4.441
 2113TIP3   OH2 6302   1.864   2.331   0.577
 2113TIP3    H1 6303   1.862   2.320   0.482
 2113TIP3    H2 6304   1.863   2.425   0.591
 2114TIP3   OH2 6305   5.352   1.731   2.255
 2114TIP3    H1 6306   5.259   1.751   2.251
 2114TIP3    H2 6307   5.377   1.749   2.346
 2115TIP3   OH2 6308   7.037   5.193   5.065
 2115TIP3    H1 6309   7.113   5.182   5.008
 2115TIP3    H2 6310   6.975   5.126   5.035
 2116TIP3   OH2 6311   1.282   4.643   2.567
 2116TIP3    H1 6312   1.313   4.727   2.535
 2116TIP3    H2 6313   1.361   4.588   2.570
 2117TIP3   OH2 6314   6.415   0.114   1.116
 2117TIP3    H1 6315   6.331   0.124   1.071
 2117TIP3    H2 6316   6.400   0.147   1.204
 2118TIP3   OH2 6317   2.544   0.489   4.904
 2118TIP3    H1 6318   2.461   0.535   4.889
 2118TIP3    H2 6319   2.582   0.533   4.980
 2119TIP3   OH2 6320   2.831   1.613   0.802
 2119TIP3    H1 6321   2.881   1.665   0.866
 2119TIP3    H2 6322   2.860   1.523   0.816
 2120TIP3   OH2 6323   0.700   6.103   3.027
 2120TIP3    H1 6324   0.774   6.137   3.077
 2120TIP3    H2 6325   0.710   6.008   3.031
 2121TIP3   OH2 6326   0.851   4.981   1.960
 2121TIP3    H1 6327   0.769   5.030   1.969
 2121TIP3    H2 6328   0.887   4.977   2.049
 2122TIP3   OH2 6329   4.785   4.274   2.384
 2122TIP3    H1 6330   4.815   4.337   2.319
 2122TIP3    H2 6331   4.773   4.192   2.335
 2123TIP3   OH2 6332   2.824   6.415   5.031
 2123TIP3    H1 6333   2.910   6.429   5.071
 2123TIP3    H2 6334   2.809   6.321   5.040
 2124TIP3   OH2 6335   1.982   5.363   5.357
 2124TIP3    H1 6336   2.056   5.343   5.301
 2124TIP3    H2 6337   2.016   5.426   5.421
 2125TIP3   OH2 6338   3.994   2.038   2.392
 2125TIP3    H1 6339   3.944   2.005   2.317
 2125TIP3    H2 6340   3.928   2.072   2.452
 2126TIP3   OH2 6341   4.187   5.680   4.680
 2126TIP3    H1 6342   4.188   5.762   4.728
 2126TIP3    H2 6343   4.242   5.621   4.732
 2127TIP3   OH2 6344   2.771   6.056   0.443
 2127TIP3    H1 6345   2.820   6.037   0.524
 2127TIP3    H2 6346   2.803   5.991   0.381
 2128TIP3   OH2 6347   2.853   0.716   3.042
 2128TIP3    H1 6348   2.804   0.647   2.996
 2128TIP3    H2 6349   2.791   0.750   3.106
 2129TIP3   OH2 6350   5.315   3.987   0.253
 2129TIP3    H1 6351   5.241   4.026   0.299
 2129TIP3    H2 6352   5.324   4.039   0.173
 2130TIP3   OH2 6353   0.422   2.700   5.597
 2130TIP3    H1 6354   0.328   2.681   5.593
 2130TIP3    H2 6355   0.462   2.636   5.539
 2131TIP3   OH2 6356   5.737   0.392   1.925
 2131TIP3    H1 6357   5.680   0.439   1.987
 2131TIP3    H2 6358   5.681   0.376   1.849
 2132TIP3   OH2 6359   3.291   6.667   2.580
 2132TIP3    H1 6360   3.305   6.735   2.515
 2132TIP3    H2 6361   3.367   6.675   2.639
 2133TIP3   OH2 6362   3.853   2.219   5.025
 2133TIP3    H1 6363   3.898   2.298   5.055
 2133TIP3    H2 6364   3.909   2.185   4.955
 2134TIP3   OH2 6365   5.640   6.478   5.267
 2134TIP3    H1 6366   5.548   6.496   5.249
 2134TIP3    H2 6367   5.657   6.394   5.225
 2135TIP3   OH2 6368   0.168   6.848   2.361
 2135TIP3    H1 6369   0.262   6.861   2.362
 2135TIP3    H2 6370   0.150   6.790   2.435
 2136TIP3   OH2 6371   4.682   1.534   3.030
 2136TIP3    H1 6372   4.636   1.617   3.019
 2136TIP3    H2 6373   4.764   1.557   3.073
 2137TIP3   OH2 6374   3.775   3.765   3.156
 2137TIP3    H1 6375   3.838   3.836   3.171
 2137TIP3    H2 6376   3.821   3.686   3.182
 2138TIP3   OH2 6377   4.896   2.930   1.739
 2138TIP3    H1 6378   4.954   2.959   1.669
 2138TIP3    H2 6379   4.927   2.843   1.762
 2139TIP3   OH2 6380   4.616   4.553   2.118
 2139TIP3    H1 6381   4.612   4.633   2.066
 2139TIP3    H2 6382   4.709   4.542   2.137
 2140TIP3   OH2 6383   4.111   6.464   2.019
 2140TIP3    H1 6384   4.110   6.401   1.946
 2140TIP3    H2 6385   4.061   6.539   1.986
 2141TIP3   OH2 6386   4.277   4.336   1.691
 2141TIP3    H1 6387   4.215   4.369   1.626
 2141TIP3    H2 6388   4.229   4.336   1.773
 2142TIP3   OH2 6389   2.652   3.504   0.785
 2142TIP3    H1 6390   2.563   3.475   0.764
 2142TIP3    H2 6391   2.650   3.599   0.772
 2143TIP3   OH2 6392   5.019   4.652   3.405
 2143TIP3    H1 6393   4.985   4.607   3.483
 2143TIP3    H2 6394   4.941   4.685   3.360
 2144TIP3   OH2 6395   0.544   4.348   2.392
 2144TIP3    H1 6396   0.523   4.390   2.308
 2144TIP3    H2 6397   0.479   4.381   2.453
 2145TIP3   OH2 6398   7.146   5.763   2.714
 2145TIP3    H1 6399   7.206   5.696   2.681
 2145TIP3    H2 6400   7.103   5.798   2.635
 2146TIP3   OH2 6401   3.470   1.867   0.646
 2146TIP3    H1 6402   3.387   1.915   0.644
 2146TIP3    H2 6403   3.495   1.866   0.739
 2147TIP3   OH2 6404   5.952   4.746   5.804
 2147TIP3    H1 6405   5.973   4.653   5.811
 2147TIP3    H2 6406   5.925   4.758   5.713
 2148TIP3   OH2 6407   5.816   6.649   4.077
 2148TIP3    H1 6408   5.788   6.598   4.153
 2148TIP3    H2 6409   5.831   6.737   4.111
 2149TIP3   OH2 6410   6.499   2.411   3.982
 2149TIP3    H1 6411   6.572   2.472   3.989
 2149TIP3    H2 6412   6.422   2.467   3.975
 2150TIP3   OH2 6413   1.442   3.797   5.520
 2150TIP3    H1 6414   1.529   3.778   5.555
 2150TIP3    H2 6415   1.400   3.711   5.511
 2151TIP3   OH2 6416   3.511   4.369   3.132
 2151TIP3    H1 6417   3.480   4.455   3.105
 2151TIP3    H2 6418   3.435   4.328   3.174
 2152TIP3   OH2 6419   3.420   0.749   0.146
 2152TIP3    H1 6420   3.486   0.816   0.161
 2152TIP3    H2 6421   3.422   0.695   0.225
 2153TIP3   OH2 6422   1.939   1.585   0.856
 2153TIP3    H1 6423   1.972   1.505   0.817
 2153TIP3    H2 6424   2.016   1.630   0.890
 2154TIP3   OH2 6425   4.700   3.607   3.283
 2154TIP3    H1 6426   4.741   3.693   3.297
 2154TIP3    H2 6427   4.711   3.561   3.366
 2155TIP3   OH2 6428   5.205   5.085   3.493
 2155TIP3    H1 6429   5.279   5.040   3.452
 2155TIP3    H2 6430   5.130   5.064   3.437
 2156TIP3   OH2 6431   5.492   0.455   4.957
 2156TIP3    H1 6432   5.438   0.480   4.882
 2156TIP3    H2 6433   5.568   0.413   4.918
 2157TIP3   OH2 6434   2.214   0.364   0.085
 2157TIP3    H1 6435   2.209   0.269   0.095
 2157TIP3    H2 6436   2.166   0.382   0.004
 2158TIP3   OH2 6437   1.369   0.945   3.537
 2158TIP3    H1 6438   1.295   0.891   3.508
 2158TIP3    H2 6439   1.329   1.022   3.577
 2159TIP3   OH2 6440   4.019   0.555   3.486
 2159TIP3    H1 6441   3.989   0.646   3.490
 2159TIP3    H2 6442   4.065   0.542   3.569
 2160TIP3   OH2 6443   1.691   1.549   5.344
 2160TIP3    H1 6444   1.637   1.470   5.340
 2160TIP3    H2 6445   1.770   1.526   5.296
 2161TIP3   OH2 6446   2.264   1.277   1.466
 2161TIP3    H1 6447   2.217   1.246   1.544
 2161TIP3    H2 6448   2.249   1.209   1.400
 2162TIP3   OH2 6449   3.669   3.075   4.998
 2162TIP3    H1 6450   3.575   3.064   5.010
 2162TIP3    H2 6451   3.680   3.086   4.903
 2163TIP3   OH2 6452   4.521   5.605   0.541
 2163TIP3    H1 6453   4.433   5.615   0.578
 2163TIP3    H2 6454   4.535   5.685   0.490
 2164TIP3   OH2 6455   5.296   6.158   0.247
 2164TIP3    H1 6456   5.391   6.156   0.239
 2164TIP3    H2 6457   5.264   6.122   0.164
 2165TIP3   OH2 6458   4.696   3.565   2.860
 2165TIP3    H1 6459   4.645   3.645   2.846
 2165TIP3    H2 6460   4.757   3.588   2.930
 2166TIP3   OH2 6461   2.086   2.200   1.896
 2166TIP3    H1 6462   2.120   2.226   1.982
 2166TIP3    H2 6463   2.142   2.127   1.869
 2167TIP3   OH2 6464   6.379   3.914   0.396
 2167TIP3    H1 6465   6.298   3.871   0.372
 2167TIP3    H2 6466   6.378   3.916   0.492
 2168TIP3   OH2 6467   5.511   1.349   1.146
 2168TIP3    H1 6468   5.488   1.441   1.135
 2168TIP3    H2 6469   5.606   1.346   1.134
 2169TIP3   OH2 6470   2.874   3.517   1.454
 2169TIP3    H1 6471   2.797   3.466   1.480
 2169TIP3    H2 6472   2.892   3.573   1.530
 2170TIP3   OH2 6473   0.610   2.902   1.787
 2170TIP3    H1 6474   0.688   2.901   1.843
 2170TIP3    H2 6475   0.550   2.962   1.830
 2171TIP3   OH2 6476   2.114   1.982   4.420
 2171TIP3    H1 6477   2.130   1.907   4.477
 2171TIP3    H2 6478   2.018   1.987   4.414
 2172TIP3   OH2 6479   3.942   1.809   3.200
 2172TIP3    H1 6480   3.909   1.853   3.121
 2172TIP3    H2 6481   3.941   1.716   3.178
 2173TIP3   OH2 6482   1.100   6.285   5.152
 2173TIP3    H1 6483   1.045   6.228   5.206
 2173TIP3    H2 6484   1.120   6.233   5.074
 2174TIP3   OH2 6485   1.749   4.527   1.045
 2174TIP3    H1 6486   1.691   4.502   1.118
 2174TIP3    H2 6487   1.762   4.621   1.056
 2175TIP3   OH2 6488   0.210   2.665   4.306
 2175TIP3    H1 6489   0.295   2.644   4.345
 2175TIP3    H2 6490   0.147   2.618   4.360
 2176TIP3   OH2 6491   7.045   6.660   5.343
 2176TIP3    H1 6492   7.051   6.742   5.392
 2176TIP3    H2 6493   7.096   6.598   5.394
 2177TIP3   OH2 6494   6.667   2.212   1.363
 2177TIP3    H1 6495   6.672   2.121   1.333
 2177TIP3    H2 6496   6.649   2.206   1.457
 2178TIP3   OH2 6497   2.436   6.118   3.809
 2178TIP3    H1 6498   2.461   6.086   3.896
 2178TIP3    H2 6499   2.359   6.173   3.824
 2179TIP3   OH2 6500   4.624   2.371   5.525
 2179TIP3    H1 6501   4.645   2.353   5.616
 2179TIP3    H2 6502   4.528   2.372   5.522
 2180TIP3   OH2 6503   2.674   0.956   3.882
 2180TIP3    H1 6504   2.603   0.892   3.894
 2180TIP3    H2 6505   2.645   1.010   3.809
 2181TIP3   OH2 6506   3.469   6.314   2.549
 2181TIP3    H1 6507   3.536   6.271   2.602
 2181TIP3    H2 6508   3.514   6.386   2.506
 2182TIP3   OH2 6509   4.714   1.257   4.120
 2182TIP3    H1 6510   4.746   1.201   4.049
 2182TIP3    H2 6511   4.679   1.196   4.185
 2183TIP3   OH2 6512   3.012   0.681   3.487
 2183TIP3    H1 6513   3.032   0.651   3.399
 2183TIP3    H2 6514   3.022   0.603   3.542
 2184TIP3   OH2 6515   1.881   2.851   3.048
 2184TIP3    H1 6516   1.900   2.898   3.130
 2184TIP3    H2 6517   1.947   2.884   2.986
 2185TIP3   OH2 6518   0.649   2.055   4.923
 2185TIP3    H1 6519   0.711   2.115   4.965
 2185TIP3    H2 6520   0.682   2.046   4.833
 2186TIP3   OH2 6521   5.459   3.839   3.470
 2186TIP3    H1 6522   5.382   3.826   3.526
 2186TIP3    H2 6523   5.507   3.756   3.476
 2187TIP3   OH2 6524   3.034   1.537   2.097
 2187TIP3    H1 6525   3.086   1.464   2.130
 2187TIP3    H2 6526   3.080   1.615   2.127
 2188TIP3   OH2 6527   2.677   5.964   4.662
 2188TIP3    H1 6528   2.606   6.028   4.656
 2188TIP3    H2 6529   2.753   6.015   4.691
 2189TIP3   OH2 6530   0.900   1.497   5.811
 2189TIP3    H1 6531   0.851   1.512   5.892
 2189TIP3    H2 6532   0.970   1.563   5.813
 2190TIP3   OH2 6533   7.179   3.967   3.174
 2190TIP3    H1 6534   7.155   4.059   3.166
 2190TIP3    H2 6535   7.254   3.957   3.115
 2191TIP3   OH2 6536   3.452   0.332   4.376
 2191TIP3    H1 6537   3.417   0.322   4.464
 2191TIP3    H2 6538   3.546   0.313   4.385
 2192TIP3   OH2 6539   4.819   5.189   3.591
 2192TIP3    H1 6540   4.741   5.173   3.643
 2192TIP3    H2 6541   4.892   5.169   3.649
 2193TIP3   OH2 6542   6.079   2.129   1.201
 2193TIP3    H1 6543   6.073   2.126   1.106
 2193TIP3    H2 6544   6.075   2.038   1.229
 2194TIP3   OH2 6545   4.629   0.392   5.364
 2194TIP3    H1 6546   4.680   0.311   5.365
 2194TIP3    H2 6547   4.597   0.401   5.454
 2195TIP3   OH2 6548   0.074   4.859   0.087
 2195TIP3    H1 6549   0.161   4.894   0.105
 2195TIP3    H2 6550   0.076   4.832  -0.004
 2196TIP3   OH2 6551   1.343   2.926   3.127
 2196TIP3    H1 6552   1.317   2.869   3.199
 2196TIP3    H2 6553   1.439   2.922   3.126
 2197TIP3   OH2 6554   3.920   2.293   3.152
 2197TIP3    H1 6555   3.830   2.273   3.177
 2197TIP3    H2 6556   3.931   2.253   3.066
 2198TIP3   OH2 6557   6.054   4.035   1.192
 2198TIP3    H1 6558   6.042   4.005   1.102
 2198TIP3    H2 6559   6.146   4.061   1.198
 2199TIP3   OH2 6560   1.102   0.712   3.172
 2199TIP3    H1 6561   1.100   0.795   3.219
 2199TIP3    H2 6562   1.161   0.727   3.099
 2200TIP3   OH2 6563   0.878   4.026   5.813
 2200TIP3    H1 6564   0.856   4.112   5.778
 2200TIP3    H2 6565   0.963   4.039   5.856
 2201TIP3   OH2 6566   6.917   4.362   2.103
 2201TIP3    H1 6567   6.941   4.446   2.143
 2201TIP3    H2 6568   6.947   4.296   2.166
 2202TIP3   OH2 6569   2.740   1.084   4.449
 2202TIP3    H1 6570   2.768   1.129   4.529
 2202TIP3    H2 6571   2.789   1.002   4.450
 2203TIP3   OH2 6572   4.076   5.543   3.222
 2203TIP3    H1 6573   4.088   5.449   3.211
 2203TIP3    H2 6574   4.039   5.553   3.310
 2204TIP3   OH2 6575   5.438   1.169   2.934
 2204TIP3    H1 6576   5.430   1.117   2.854
 2204TIP3    H2 6577   5.368   1.234   2.926
 2205TIP3   OH2 6578   3.666   2.569   0.265
 2205TIP3    H1 6579   3.650   2.478   0.290
 2205TIP3    H2 6580   3.579   2.606   0.252
 2206TIP3   OH2 6581   5.433   1.861   1.221
 2206TIP3    H1 6582   5.486   1.917   1.164
 2206TIP3    H2 6583   5.463   1.882   1.310
 2207TIP3   OH2 6584   0.885   0.679   3.348
 2207TIP3    H1 6585   0.906   0.646   3.436
 2207TIP3    H2 6586   0.969   0.683   3.303
 2208TIP3   OH2 6587   4.301   5.428   2.678
 2208TIP3    H1 6588   4.304   5.410   2.772
 2208TIP3    H2 6589   4.314   5.342   2.637
 2209TIP3   OH2 6590   4.779   2.990   4.362
 2209TIP3    H1 6591   4.787   3.026   4.273
 2209TIP3    H2 6592   4.782   3.067   4.419
 2210TIP3   OH2 6593   7.090   3.754   4.053
 2210TIP3    H1 6594   7.073   3.821   3.987
 2210TIP3    H2 6595   7.181   3.769   4.079
 2211TIP3   OH2 6596   5.476   5.814   4.799
 2211TIP3    H1 6597   5.392   5.802   4.754
 2211TIP3    H2 6598   5.455   5.800   4.891
 2212TIP3   OH2 6599   1.676   3.835   5.318
 2212TIP3    H1 6600   1.666   3.884   5.400
 2212TIP3    H2 6601   1.586   3.813   5.292
 2213TIP3   OH2 6602   5.522   1.078   3.817
 2213TIP3    H1 6603   5.451   1.031   3.862
 2213TIP3    H2 6604   5.530   1.032   3.733
 2214TIP3   OH2 6605   1.789   0.346   2.874
 2214TIP3    H1 6606   1.697   0.361   2.898
 2214TIP3    H2 6607   1.798   0.387   2.788
 2215TIP3   OH2 6608   6.787   2.354   4.570
 2215TIP3    H1 6609   6.823   2.326   4.485
 2215TIP3    H2 6610   6.745   2.275   4.604
 2216TIP3   OH2 6611   7.198   1.941   3.738
 2216TIP3    H1 6612   7.136   1.876   3.704
 2216TIP3    H2 6613   7.257   1.891   3.794
 2217TIP3   OH2 6614   0.653   6.125   0.495
 2217TIP3    H1 6615   0.606   6.075   0.429
 2217TIP3    H2 6616   0.733   6.154   0.452
 2218TIP3   OH2 6617   4.570   3.302   3.915
 2218TIP3    H1 6618   4.478   3.326   3.907
 2218TIP3    H2 6619   4.569   3.206   3.912
 2219TIP3   OH2 6620   2.103   1.807   3.555
 2219TIP3    H1 6621   2.123   1.728   3.504
 2219TIP3    H2 6622   2.092   1.776   3.645
 2220TIP3   OH2 6623   6.881   4.948   5.505
 2220TIP3    H1 6624   6.896   4.883   5.573
 2220TIP3    H2 6625   6.806   4.915   5.456
 2221TIP3   OH2 6626   4.185   3.913   2.474
 2221TIP3    H1 6627   4.108   3.856   2.479
 2221TIP3    H2 6628   4.208   3.914   2.381
 2222TIP3   OH2 6629   1.227   6.154   4.329
 2222TIP3    H1 6630   1.238   6.093   4.256
 2222TIP3    H2 6631   1.161   6.216   4.299
 2223TIP3   OH2 6632   4.493   4.057   3.492
 2223TIP3    H1 6633   4.530   4.033   3.407
 2223TIP3    H2 6634   4.399   4.048   3.481
 2224TIP3   OH2 6635   3.484   0.915   0.592
 2224TIP3    H1 6636   3.561   0.936   0.539
 2224TIP3    H2 6637   3.410   0.921   0.531
 2225TIP3   OH2 6638   0.457   3.734   3.506
 2225TIP3    H1 6639   0.384   3.756   3.564
 2225TIP3    H2 6640   0.458   3.804   3.441
 2226TIP3   OH2 6641   5.904   5.690   1.414
 2226TIP3    H1 6642   5.944   5.705   1.328
 2226TIP3    H2 6643   5.897   5.595   1.420
 2227TIP3   OH2 6644   3.883   5.820   3.760
 2227TIP3    H1 6645   3.875   5.875   3.683
 2227TIP3    H2 6646   3.809   5.845   3.816
 2228TIP3   OH2 6647   5.458   6.093   3.357
 2228TIP3    H1 6648   5.388   6.053   3.409
 2228TIP3    H2 6649   5.532   6.034   3.366
 2229TIP3   OH2 6650   4.056   5.430   2.260
 2229TIP3    H1 6651   4.146   5.415   2.228
 2229TIP3    H2 6652   4.010   5.348   2.241
 2230TIP3   OH2 6653   1.484   6.089   2.599
 2230TIP3    H1 6654   1.409   6.044   2.640
 2230TIP3    H2 6655   1.449   6.122   2.517
 2231TIP3   OH2 6656   5.414   4.464   2.623
 2231TIP3    H1 6657   5.462   4.523   2.681
 2231TIP3    H2 6658   5.450   4.378   2.642
 2232TIP3   OH2 6659   7.277   0.087   3.636
 2232TIP3    H1 6660   7.193   0.041   3.641
 2232TIP3    H2 6661   7.334   0.028   3.588
 2233TIP3   OH2 6662   1.434   1.931   0.187
 2233TIP3    H1 6663   1.490   2.006   0.208
 2233TIP3    H2 6664   1.355   1.946   0.239
 2234TIP3   OH2 6665   5.108   2.941   0.524
 2234TIP3    H1 6666   5.074   2.970   0.440
 2234TIP3    H2 6667   5.169   3.011   0.550
 2235TIP3   OH2 6668   1.941   3.787   1.750
 2235TIP3    H1 6669   1.943   3.750   1.662
 2235TIP3    H2 6670   2.031   3.780   1.782
 2236TIP3   OH2 6671   5.794   1.467   3.615
 2236TIP3    H1 6672   5.877   1.510   3.634
 2236TIP3    H2 6673   5.818   1.377   3.594
 2237TIP3   OH2 6674   2.389   0.977   2.868
 2237TIP3    H1 6675   2.334   1.025   2.930
 2237TIP3    H2 6676   2.333   0.963   2.792
 2238TIP3   OH2 6677   6.036   0.687   0.515
 2238TIP3    H1 6678   5.953   0.659   0.553
 2238TIP3    H2 6679   6.085   0.606   0.501
 2239TIP3   OH2 6680   1.919   6.413   0.152
 2239TIP3    H1 6681   2.009   6.395   0.125
 2239TIP3    H2 6682   1.866   6.346   0.107
 2240TIP3   OH2 6683   6.614   5.497   4.436
 2240TIP3    H1 6684   6.638   5.579   4.393
 2240TIP3    H2 6685   6.650   5.429   4.379
 2241TIP3   OH2 6686   6.981   5.514   1.010
 2241TIP3    H1 6687   6.915   5.510   1.079
 2241TIP3    H2 6688   7.063   5.496   1.055
 2242TIP3   OH2 6689   2.116   3.246   1.029
 2242TIP3    H1 6690   2.202   3.208   1.042
 2242TIP3    H2 6691   2.132   3.327   0.981
 2243TIP3   OH2 6692   6.536   5.245   4.551
 2243TIP3    H1 6693   6.496   5.250   4.464
 2243TIP3    H2 6694   6.580   5.329   4.562
 2244TIP3   OH2 6695   5.823   2.724   2.674
 2244TIP3    H1 6696   5.876   2.779   2.733
 2244TIP3    H2 6697   5.808   2.643   2.723
 2245TIP3   OH2 6698   4.815   4.916   0.437
 2245TIP3    H1 6699   4.871   4.906   0.513
 2245TIP3    H2 6700   4.764   4.995   0.454
 2246TIP3   OH2 6701   2.265   6.304   1.983
 2246TIP3    H1 6702   2.187   6.359   1.976
 2246TIP3    H2 6703   2.335   6.358   1.949
 2247TIP3   OH2 6704   2.309   3.942   5.000
 2247TIP3    H1 6705   2.239   3.898   4.952
 2247TIP3    H2 6706   2.264   4.008   5.053
 2248TIP3   OH2 6707   4.619   2.177   4.951
 2248TIP3    H1 6708   4.586   2.111   5.013
 2248TIP3    H2 6709   4.568   2.255   4.971
 2249TIP3   OH2 6710   1.671   0.952   5.493
 2249TIP3    H1 6711   1.601   0.965   5.429
 2249TIP3    H2 6712   1.741   1.011   5.465
 2250TIP3   OH2 6713   4.010   2.864   2.544
 2250TIP3    H1 6714   3.956   2.928   2.590
 2250TIP3    H2 6715   4.023   2.794   2.607
 2251TIP3   OH2 6716   1.772   0.594   3.022
 2251TIP3    H1 6717   1.709   0.666   3.031
 2251TIP3    H2 6718   1.777   0.577   2.928
 2252TIP3   OH2 6719   6.296   1.278   5.221
 2252TIP3    H1 6720   6.240   1.348   5.255
 2252TIP3    H2 6721   6.336   1.239   5.298
 2253TIP3   OH2 6722   2.860   2.629   2.247
 2253TIP3    H1 6723   2.799   2.644   2.175
 2253TIP3    H2 6724   2.857   2.709   2.299
 2254TIP3   OH2 6725   3.382   1.464   3.284
 2254TIP3    H1 6726   3.385   1.369   3.277
 2254TIP3    H2 6727   3.394   1.482   3.378
 2255TIP3   OH2 6728   6.293   1.708   4.060
 2255TIP3    H1 6729   6.247   1.785   4.026
 2255TIP3    H2 6730   6.385   1.726   4.042
 2256TIP3   OH2 6731   3.860   3.867   3.525
 2256TIP3    H1 6732   3.927   3.819   3.574
 2256TIP3    H2 6733   3.827   3.932   3.587
 2257TIP3   OH2 6734   2.486   4.599   1.578
 2257TIP3    H1 6735   2.425   4.525   1.573
 2257TIP3    H2 6736   2.465   4.653   1.502
 2258TIP3   OH2 6737   6.565   2.372   1.924
 2258TIP3    H1 6738   6.610   2.288   1.914
 2258TIP3    H2 6739   6.479   2.349   1.960
 2259TIP3   OH2 6740   3.070   4.202   2.536
 2259TIP3    H1 6741   3.150   4.150   2.540
 2259TIP3    H2 6742   3.094   4.280   2.487
 2260TIP3   OH2 6743   3.622   2.262   4.431
 2260TIP3    H1 6744   3.556   2.240   4.366
 2260TIP3    H2 6745   3.700   2.284   4.380
 2261TIP3   OH2 6746   1.066   4.922   2.590
 2261TIP3    H1 6747   1.086   4.979   2.664
 2261TIP3    H2 6748   1.151   4.884   2.566
 2262TIP3   OH2 6749   3.966   1.335   0.270
 2262TIP3    H1 6750   4.058   1.309   0.272
 2262TIP3    H2 6751   3.957   1.387   0.190
 2263TIP3   OH2 6752   1.018   3.374   1.264
 2263TIP3    H1 6753   1.101   3.327   1.252
 2263TIP3    H2 6754   0.967   3.317   1.322
 2264TIP3   OH2 6755   1.691   2.208   0.012
 2264TIP3    H1 6756   1.634   2.203   0.089
 2264TIP3    H2 6757   1.687   2.120  -0.025
 2265TIP3   OH2 6758   4.644   1.915   4.107
 2265TIP3    H1 6759   4.664   1.840   4.163
 2265TIP3    H2 6760   4.599   1.976   4.164
 2266TIP3   OH2 6761   2.401   3.850   1.555
 2266TIP3    H1 6762   2.463   3.803   1.499
 2266TIP3    H2 6763   2.421   3.943   1.540
 2267TIP3   OH2 6764   2.899   0.711   5.911
 2267TIP3    H1 6765   2.957   0.768   5.862
 2267TIP3    H2 6766   2.827   0.692   5.851
 2268TIP3   OH2 6767   2.867   0.569   2.185
 2268TIP3    H1 6768   2.891   0.637   2.121
 2268TIP3    H2 6769   2.935   0.574   2.252
 2269TIP3   OH2 6770   1.591   0.836   4.971
 2269TIP3    H1 6771   1.649   0.905   4.936
 2269TIP3    H2 6772   1.585   0.773   4.899
 2270TIP3   OH2 6773   3.376   3.397   4.883
 2270TIP3    H1 6774   3.435   3.329   4.852
 2270TIP3    H2 6775   3.337   3.361   4.963
 2271TIP3   OH2 6776   6.282   5.015   5.637
 2271TIP3    H1 6777   6.239   5.037   5.720
 2271TIP3    H2 6778   6.278   5.096   5.586
 2272TIP3   OH2 6779   2.528   1.970   0.174
 2272TIP3    H1 6780   2.584   1.992   0.248
 2272TIP3    H2 6781   2.504   2.054   0.136
 2273TIP3   OH2 6782   5.134   6.368   0.315
 2273TIP3    H1 6783   5.156   6.279   0.288
 2273TIP3    H2 6784   5.069   6.397   0.250
 2274TIP3   OH2 6785   0.518   2.186   1.102
 2274TIP3    H1 6786   0.597   2.137   1.080
 2274TIP3    H2 6787   0.517   2.188   1.198
 2275TIP3   OH2 6788   1.120   0.038   0.200
 2275TIP3    H1 6789   1.174   0.083   0.265
 2275TIP3    H2 6790   1.097  -0.045   0.240
 2276TIP3   OH2 6791   4.118   4.894   4.564
 2276TIP3    H1 6792   4.156   4.975   4.597
 2276TIP3    H2 6793   4.192   4.833   4.560
 2277TIP3   OH2 6794   3.649   6.338   5.314
 2277TIP3    H1 6795   3.677   6.252   5.346
 2277TIP3    H2 6796   3.682   6.400   5.380
 2278TIP3   OH2 6797   5.160   6.685   4.173
 2278TIP3    H1 6798   5.093   6.653   4.113
 2278TIP3    H2 6799   5.228   6.723   4.117
 2279TIP3   OH2 6800   1.851   5.540   3.993
 2279TIP3    H1 6801   1.848   5.634   4.008
 2279TIP3    H2 6802   1.800   5.502   4.065
 2280TIP3   OH2 6803   0.013   0.638   0.053
 2280TIP3    H1 6804  -0.050   0.702   0.087
 2280TIP3    H2 6805   0.089   0.647   0.109
 2281TIP3   OH2 6806   2.012   1.173   1.565
 2281TIP3    H1 6807   1.959   1.168   1.644
 2281TIP3    H2 6808   1.981   1.252   1.520
 2282TIP3   OH2 6809   0.888   0.682   2.960
 2282TIP3    H1 6810   0.926   0.747   2.900
 2282TIP3    H2 6811   0.960   0.660   3.020
 2283TIP3   OH2 6812   5.091   5.395   5.748
 2283TIP3    H1 6813   5.117   5.305   5.769
 2283TIP3    H2 6814   5.012   5.385   5.694
 2284TIP3   OH2 6815   2.979   6.693   0.637
 2284TIP3    H1 6816   2.888   6.696   0.668
 2284TIP3    H2 6817   2.972   6.653   0.550
 2285TIP3   OH2 6818   0.366   3.490   5.262
 2285TIP3    H1 6819   0.300   3.434   5.221
 2285TIP3    H2 6820   0.320   3.532   5.335
 2286TIP3   OH2 6821   0.048   3.061   1.588
 2286TIP3    H1 6822   0.081   2.997   1.652
 2286TIP3    H2 6823  -0.026   3.017   1.546
 2287TIP3   OH2 6824   4.455   4.889   2.108
 2287TIP3    H1 6825   4.366   4.908   2.079
 2287TIP3    H2 6826   4.482   4.816   2.053
 2288TIP3   OH2 6827   4.023   0.232   4.500
 2288TIP3    H1 6828   4.000   0.266   4.413
 2288TIP3    H2 6829   4.117   0.217   4.496
 2289TIP3   OH2 6830   7.157   4.042   2.491
 2289TIP3    H1 6831   7.067   4.062   2.514
 2289TIP3    H2 6832   7.209   4.112   2.531
 2290TIP3   OH2 6833   1.796   0.296   1.441
 2290TIP3    H1 6834   1.773   0.208   1.470
 2290TIP3    H2 6835   1.846   0.282   1.360
 2291TIP3   OH2 6836   3.107   2.766   2.987
 2291TIP3    H1 6837   3.057   2.708   2.930
 2291TIP3    H2 6838   3.150   2.827   2.928
 2292TIP3   OH2 6839   2.762   1.559   2.997
 2292TIP3    H1 6840   2.791   1.511   3.075
 2292TIP3    H2 6841   2.676   1.593   3.021
 2293TIP3   OH2 6842   6.862   5.390   0.010
 2293TIP3    H1 6843   6.811   5.319  -0.028
 2293TIP3    H2 6844   6.843   5.466  -0.045
 2294TIP3   OH2 6845   6.750   5.325   4.272
 2294TIP3    H1 6846   6.674   5.292   4.224
 2294TIP3    H2 6847   6.825   5.304   4.216
 2295TIP3   OH2 6848   2.478   0.099  -0.001
 2295TIP3    H1 6849   2.421   0.062  -0.069
 2295TIP3    H2 6850   2.530   0.025   0.029
 2296TIP3   OH2 6851   7.114   6.023   1.557
 2296TIP3    H1 6852   7.182   5.960   1.578
 2296TIP3    H2 6853   7.034   5.987   1.597
 2297TIP3   OH2 6854   6.524   0.543   1.403
 2297TIP3    H1 6855   6.441   0.579   1.434
 2297TIP3    H2 6856   6.544   0.593   1.324
 2298TIP3   OH2 6857   5.867   0.776   3.979
 2298TIP3    H1 6858   5.774   0.757   3.974
 2298TIP3    H2 6859   5.910   0.693   3.955
 2299TIP3   OH2 6860   5.556   5.235   2.381
 2299TIP3    H1 6861   5.494   5.293   2.336
 2299TIP3    H2 6862   5.501   5.177   2.433
 2300TIP3   OH2 6863   4.265   5.921   0.666
 2300TIP3    H1 6864   4.359   5.937   0.668
 2300TIP3    H2 6865   4.256   5.828   0.646
 2301TIP3   OH2 6866   0.662   2.513   4.030
 2301TIP3    H1 6867   0.686   2.601   4.001
 2301TIP3    H2 6868   0.579   2.495   3.986
 2302TIP3   OH2 6869   2.362   0.236   3.730
 2302TIP3    H1 6870   2.268   0.245   3.716
 2302TIP3    H2 6871   2.388   0.316   3.776
 2303TIP3   OH2 6872   6.535   3.423   2.912
 2303TIP3    H1 6873   6.558   3.331   2.902
 2303TIP3    H2 6874   6.440   3.425   2.903
 2304TIP3   OH2 6875   4.953   3.003   4.674
 2304TIP3    H1 6876   4.932   3.040   4.588
 2304TIP3    H2 6877   4.868   2.989   4.716
 2305TIP3   OH2 6878   4.114   5.497   3.905
 2305TIP3    H1 6879   4.036   5.528   3.859
 2305TIP3    H2 6880   4.080   5.448   3.980
 2306TIP3   OH2 6881   7.101   3.394   3.222
 2306TIP3    H1 6882   7.030   3.370   3.162
 2306TIP3    H2 6883   7.074   3.477   3.261
 2307TIP3   OH2 6884   1.500   4.616   5.489
 2307TIP3    H1 6885   1.485   4.527   5.456
 2307TIP3    H2 6886   1.568   4.652   5.432
 2308TIP3   OH2 6887   0.869   6.364   4.947
 2308TIP3    H1 6888   0.830   6.276   4.942
 2308TIP3    H2 6889   0.911   6.366   5.033
 2309TIP3   OH2 6890   5.520   4.287   4.415
 2309TIP3    H1 6891   5.569   4.367   4.400
 2309TIP3    H2 6892   5.488   4.295   4.505
 2310TIP3   OH2 6893   1.769   1.697   3.716
 2310TIP3    H1 6894   1.737   1.777   3.757
 2310TIP3    H2 6895   1.705   1.678   3.648
 2311TIP3   OH2 6896   3.419   6.287   2.080
 2311TIP3    H1 6897   3.358   6.354   2.108
 2311TIP3    H2 6898   3.417   6.289   1.984
 2312TIP3   OH2 6899   1.654   6.718   1.632
 2312TIP3    H1 6900   1.714   6.651   1.664
 2312TIP3    H2 6901   1.705   6.799   1.632
 2313TIP3   OH2 6902   6.999   1.865   0.566
 2313TIP3    H1 6903   7.010   1.822   0.481
 2313TIP3    H2 6904   6.942   1.940   0.548
 2314TIP3   OH2 6905   3.432   6.538   3.870
 2314TIP3    H1 6906   3.441   6.514   3.778
 2314TIP3    H2 6907   3.338   6.552   3.882
 2315TIP3   OH2 6908   5.148   1.871   3.563
 2315TIP3    H1 6909   5.066   1.918   3.547
 2315TIP3    H2 6910   5.155   1.810   3.489
 2316TIP3   OH2 6911   1.845   4.982   1.851
 2316TIP3    H1 6912   1.830   4.896   1.891
 2316TIP3    H2 6913   1.847   5.043   1.924
 2317TIP3   OH2 6914   5.089   6.274   5.826
 2317TIP3    H1 6915   5.055   6.209   5.887
 2317TIP3    H2 6916   5.176   6.242   5.803
 2318TIP3   OH2 6917   3.827   3.797   2.207
 2318TIP3    H1 6918   3.872   3.871   2.167
 2318TIP3    H2 6919   3.738   3.803   2.174
 2319TIP3   OH2 6920   3.992   0.715   1.186
 2319TIP3    H1 6921   3.978   0.718   1.281
 2319TIP3    H2 6922   4.011   0.805   1.162
 2320TIP3   OH2 6923   2.019   5.049   3.522
 2320TIP3    H1 6924   2.067   5.042   3.605
 2320TIP3    H2 6925   1.973   5.132   3.527
 2321TIP3   OH2 6926   1.828   4.214   2.114
 2321TIP3    H1 6927   1.868   4.279   2.056
 2321TIP3    H2 6928   1.902   4.159   2.142
 2322TIP3   OH2 6929   2.597   6.243   4.487
 2322TIP3    H1 6930   2.638   6.321   4.523
 2322TIP3    H2 6931   2.509   6.242   4.525
 2323TIP3   OH2 6932   1.321   4.937   5.370
 2323TIP3    H1 6933   1.314   4.974   5.458
 2323TIP3    H2 6934   1.406   4.892   5.370
 2324TIP3   OH2 6935   3.627   3.066   0.874
 2324TIP3    H1 6936   3.661   3.146   0.834
 2324TIP3    H2 6937   3.572   3.027   0.806
 2325TIP3   OH2 6938   2.968   2.953   1.064
 2325TIP3    H1 6939   2.886   2.961   1.114
 2325TIP3    H2 6940   3.020   2.889   1.113
 2326TIP3   OH2 6941   1.243   2.883   3.731
 2326TIP3    H1 6942   1.191   2.893   3.810
 2326TIP3    H2 6943   1.311   2.951   3.737
 2327TIP3   OH2 6944   2.534   0.012   5.412
 2327TIP3    H1 6945   2.618  -0.032   5.406
 2327TIP3    H2 6946   2.523   0.030   5.506
 2328TIP3   OH2 6947   7.068   0.918   1.655
 2328TIP3    H1 6948   7.026   0.972   1.588
 2328TIP3    H2 6949   7.059   0.829   1.622
 2329TIP3   OH2 6950   7.021   1.210   3.905
 2329TIP3    H1 6951   7.058   1.145   3.845
 2329TIP3    H2 6952   6.929   1.186   3.913
 2330TIP3   OH2 6953   6.475   3.243   4.369
 2330TIP3    H1 6954   6.448   3.332   4.394
 2330TIP3    H2 6955   6.394   3.197   4.350
 2331TIP3   OH2 6956   5.227   2.749   5.719
 2331TIP3    H1 6957   5.150   2.803   5.698
 2331TIP3    H2 6958   5.287   2.809   5.764
 2332TIP3   OH2 6959   0.902   6.618   1.747
 2332TIP3    H1 6960   0.921   6.690   1.687
 2332TIP3    H2 6961   0.967   6.551   1.726
 2333TIP3   OH2 6962   4.759   0.308   0.984
 2333TIP3    H1 6963   4.676   0.281   0.947
 2333TIP3    H2 6964   4.757   0.404   0.982
 2334TIP3   OH2 6965   5.533   5.213   1.351
 2334TIP3    H1 6966   5.575   5.139   1.307
 2334TIP3    H2 6967   5.533   5.190   1.444
 2335TIP3   OH2 6968   4.858   4.922   1.982
 2335TIP3    H1 6969   4.935   4.972   1.957
 2335TIP3    H2 6970   4.807   4.915   1.901
 2336TIP3   OH2 6971   0.664   1.846   2.229
 2336TIP3    H1 6972   0.630   1.875   2.313
 2336TIP3    H2 6973   0.587   1.829   2.176
 2337TIP3   OH2 6974   2.537   1.086   1.321
 2337TIP3    H1 6975   2.558   1.009   1.373
 2337TIP3    H2 6976   2.545   1.159   1.381
 2338TIP3   OH2 6977   6.921   4.372   5.667
 2338TIP3    H1 6978   6.868   4.295   5.686
 2338TIP3    H2 6979   6.896   4.398   5.579
 2339TIP3   OH2 6980   0.709   5.753   5.681
 2339TIP3    H1 6981   0.672   5.826   5.729
 2339TIP3    H2 6982   0.766   5.793   5.615
 2340TIP3   OH2 6983   1.464   5.943   2.156
 2340TIP3    H1 6984   1.501   6.030   2.172
 2340TIP3    H2 6985   1.495   5.919   2.069
 2341TIP3   OH2 6986   6.554   6.780   5.298
 2341TIP3    H1 6987   6.472   6.767   5.344
 2341TIP3    H2 6988   6.538   6.854   5.239
 2342TIP3   OH2 6989   2.763   4.614   1.837
 2342TIP3    H1 6990   2.723   4.613   1.924
 2342TIP3    H2 6991   2.726   4.538   1.793
 2343TIP3   OH2 6992   5.121   4.511   1.493
 2343TIP3    H1 6993   5.140   4.490   1.584
 2343TIP3    H2 6994   5.165   4.442   1.443
 2344TIP3   OH2 6995   4.404   5.749   5.213
 2344TIP3    H1 6996   4.341   5.811   5.250
 2344TIP3    H2 6997   4.367   5.663   5.232
 2345TIP3   OH2 6998   6.686   6.281   5.833
 2345TIP3    H1 6999   6.656   6.193   5.856
 2345TIP3    H2 7000   6.777   6.284   5.864
 2346TIP3   OH2 7001   0.077   3.658   5.900
 2346TIP3    H1 7002   0.113   3.636   5.986
 2346TIP3    H2 7003   0.148   3.639   5.839
 2347TIP3   OH2 7004   2.364   2.462   4.453
 2347TIP3    H1 7005   2.445   2.512   4.455
 2347TIP3    H2 7006   2.375   2.402   4.378
 2348TIP3   OH2 7007   4.514   5.798   3.749
 2348TIP3    H1 7008   4.579   5.762   3.688
 2348TIP3    H2 7009   4.554   5.878   3.782
 2349TIP3   OH2 7010   2.325   0.246   4.550
 2349TIP3    H1 7011   2.403   0.193   4.561
 2349TIP3    H2 7012   2.259   0.185   4.518
 2350TIP3   OH2 7013   4.689   2.259   5.862
 2350TIP3    H1 7014   4.773   2.292   5.830
 2350TIP3    H2 7015   4.678   2.300   5.948
 2351TIP3   OH2 7016   2.891   2.322   4.377
 2351TIP3    H1 7017   2.976   2.281   4.361
 2351TIP3    H2 7018   2.827   2.255   4.355
 2352TIP3   OH2 7019   6.195   6.654   2.894
 2352TIP3    H1 7020   6.163   6.619   2.810
 2352TIP3    H2 7021   6.244   6.582   2.933
 2353TIP3   OH2 7022   1.047   4.048   2.750
 2353TIP3    H1 7023   1.093   4.068   2.668
 2353TIP3    H2 7024   1.116   4.017   2.809
 2354TIP3   OH2 7025   5.739   3.339   3.405
 2354TIP3    H1 7026   5.760   3.411   3.346
 2354TIP3    H2 7027   5.643   3.333   3.402
 2355TIP3   OH2 7028   3.809   2.344   3.445
 2355TIP3    H1 7029   3.752   2.364   3.519
 2355TIP3    H2 7030   3.750   2.314   3.376
 2356TIP3   OH2 7031   5.365   1.194   2.623
 2356TIP3    H1 7032   5.304   1.265   2.602
 2356TIP3    H2 7033   5.364   1.138   2.545
 2357TIP3   OH2 7034   4.024   4.242   0.573
 2357TIP3    H1 7035   4.026   4.333   0.542
 2357TIP3    H2 7036   4.106   4.205   0.542
 2358TIP3   OH2 7037   2.424   0.500   5.867
 2358TIP3    H1 7038   2.394   0.502   5.776
 2358TIP3    H2 7039   2.420   0.592   5.895
 2359TIP3   OH2 7040   1.111   6.658   4.734
 2359TIP3    H1 7041   1.039   6.613   4.689
 2359TIP3    H2 7042   1.189   6.635   4.683
 2360TIP3   OH2 7043   6.839   4.394   0.788
 2360TIP3    H1 7044   6.933   4.385   0.773
 2360TIP3    H2 7045   6.826   4.486   0.810
 2361TIP3   OH2 7046   4.978   1.446   1.396
 2361TIP3    H1 7047   5.015   1.466   1.482
 2361TIP3    H2 7048   5.053   1.418   1.343
 2362TIP3   OH2 7049   1.268   3.136   0.404
 2362TIP3    H1 7050   1.309   3.097   0.326
 2362TIP3    H2 7051   1.177   3.109   0.399
 2363TIP3   OH2 7052   6.543   2.345   2.904
 2363TIP3    H1 7053   6.458   2.384   2.924
 2363TIP3    H2 7054   6.597   2.418   2.875
 2364TIP3   OH2 7055   0.541   3.513   0.186
 2364TIP3    H1 7056   0.464   3.539   0.135
 2364TIP3    H2 7057   0.512   3.439   0.238
 2365TIP3   OH2 7058   3.571   3.554   1.090
 2365TIP3    H1 7059   3.606   3.539   1.178
 2365TIP3    H2 7060   3.646   3.543   1.031
 2366TIP3   OH2 7061   4.306   3.647   3.553
 2366TIP3    H1 7062   4.336   3.623   3.465
 2366TIP3    H2 7063   4.379   3.697   3.590
 2367TIP3   OH2 7064   3.399   3.857   5.367
 2367TIP3    H1 7065   3.490   3.843   5.392
 2367TIP3    H2 7066   3.391   3.952   5.357
 2368TIP3   OH2 7067   3.357   4.100   2.749
 2368TIP3    H1 7068   3.401   4.061   2.825
 2368TIP3    H2 7069   3.279   4.046   2.737
 2369TIP3   OH2 7070   6.497   5.644   2.371
 2369TIP3    H1 7071   6.585   5.681   2.370
 2369TIP3    H2 7072   6.454   5.679   2.293
 2370TIP3   OH2 7073   1.228   2.511   0.410
 2370TIP3    H1 7074   1.248   2.604   0.400
 2370TIP3    H2 7075   1.285   2.468   0.347
 2371TIP3   OH2 7076   3.353   3.924   2.410
 2371TIP3    H1 7077   3.363   4.019   2.404
 2371TIP3    H2 7078   3.417   3.889   2.348
 2372TIP3   OH2 7079   7.116   2.594   2.815
 2372TIP3    H1 7080   7.084   2.639   2.893
 2372TIP3    H2 7081   7.050   2.610   2.748
 2373TIP3   OH2 7082   6.323   1.091   5.426
 2373TIP3    H1 7083   6.333   1.066   5.517
 2373TIP3    H2 7084   6.382   1.033   5.378
 2374TIP3   OH2 7085   6.822   3.747   1.107
 2374TIP3    H1 7086   6.763   3.751   1.183
 2374TIP3    H2 7087   6.834   3.839   1.082
 2375TIP3   OH2 7088   1.135   3.222   1.497
 2375TIP3    H1 7089   1.136   3.162   1.572
 2375TIP3    H2 7090   1.042   3.242   1.484
 2376TIP3   OH2 7091   4.101   3.495   3.970
 2376TIP3    H1 7092   4.084   3.579   4.012
 2376TIP3    H2 7093   4.196   3.492   3.957
 2377TIP3   OH2 7094   5.493   0.703   2.977
 2377TIP3    H1 7095   5.463   0.783   2.935
 2377TIP3    H2 7096   5.460   0.708   3.066
 2378TIP3   OH2 7097   6.543   0.179   3.856
 2378TIP3    H1 7098   6.564   0.185   3.763
 2378TIP3    H2 7099   6.520   0.268   3.881
 2379TIP3   OH2 7100   1.850   4.342   2.666
 2379TIP3    H1 7101   1.935   4.326   2.708
 2379TIP3    H2 7102   1.865   4.419   2.612
 2380TIP3   OH2 7103   4.608   3.005   0.255
 2380TIP3    H1 7104   4.634   3.012   0.347
 2380TIP3    H2 7105   4.660   3.071   0.209
 2381TIP3   OH2 7106   3.723   0.452   2.701
 2381TIP3    H1 7107   3.656   0.389   2.676
 2381TIP3    H2 7108   3.805   0.413   2.670
 2382TIP3   OH2 7109   5.851   0.185   4.570
 2382TIP3    H1 7110   5.917   0.249   4.595
 2382TIP3    H2 7111   5.879   0.153   4.484
 2383TIP3   OH2 7112   5.963   0.095   4.336
 2383TIP3    H1 7113   5.914   0.058   4.262
 2383TIP3    H2 7114   6.015   0.166   4.297
 2384TIP3   OH2 7115   1.101   1.591   3.030
 2384TIP3    H1 7116   1.037   1.519   3.023
 2384TIP3    H2 7117   1.122   1.595   3.123
 2385TIP3   OH2 7118   5.810   3.505   4.901
 2385TIP3    H1 7119   5.833   3.473   4.814
 2385TIP3    H2 7120   5.732   3.455   4.926
 2386TIP3   OH2 7121   6.137   1.469   5.413
 2386TIP3    H1 7122   6.196   1.481   5.488
 2386TIP3    H2 7123   6.079   1.397   5.440
 2387TIP3   OH2 7124   1.301   4.130   0.228
 2387TIP3    H1 7125   1.349   4.061   0.183
 2387TIP3    H2 7126   1.326   4.120   0.320
 2388TIP3   OH2 7127   3.655   2.018   0.494
 2388TIP3    H1 7128   3.611   1.995   0.575
 2388TIP3    H2 7129   3.593   1.994   0.425
 2389TIP3   OH2 7130   1.890   2.334   2.952
 2389TIP3    H1 7131   1.886   2.302   3.042
 2389TIP3    H2 7132   1.923   2.259   2.902
 2390TIP3   OH2 7133   5.111   2.705   2.067
 2390TIP3    H1 7134   5.020   2.702   2.040
 2390TIP3    H2 7135   5.111   2.765   2.142
 2391TIP3   OH2 7136   4.048  -0.003   4.980
 2391TIP3    H1 7137   4.106   0.040   4.917
 2391TIP3    H2 7138   4.056   0.049   5.060
 2392TIP3   OH2 7139   5.773   3.756   5.468
 2392TIP3    H1 7140   5.828   3.693   5.421
 2392TIP3    H2 7141   5.692   3.758   5.418
 2393TIP3   OH2 7142   3.127   1.798   2.878
 2393TIP3    H1 7143   3.069   1.772   2.950
 2393TIP3    H2 7144   3.214   1.772   2.907
 2394TIP3   OH2 7145   6.591   1.163   2.378
 2394TIP3    H1 7146   6.593   1.257   2.361
 2394TIP3    H2 7147   6.527   1.128   2.315
 2395TIP3   OH2 7148   1.734   1.259   4.405
 2395TIP3    H1 7149   1.747   1.313   4.326
 2395TIP3    H2 7150   1.716   1.172   4.371
 2396TIP3   OH2 7151   2.102   1.051   4.676
 2396TIP3    H1 7152   2.194   1.050   4.703
 2396TIP3    H2 7153   2.063   0.978   4.724
 2397TIP3   OH2 7154   4.399   2.300   5.258
 2397TIP3    H1 7155   4.306   2.281   5.260
 2397TIP3    H2 7156   4.440   2.223   5.298
 2398TIP3   OH2 7157   1.131   0.347   1.528
 2398TIP3    H1 7158   1.150   0.379   1.440
 2398TIP3    H2 7159   1.196   0.279   1.544
 2399TIP3   OH2 7160   1.143   3.047   1.022
 2399TIP3    H1 7161   1.118   2.965   1.063
 2399TIP3    H2 7162   1.068   3.105   1.035
 2400TIP3   OH2 7163   3.166   3.800   0.429
 2400TIP3    H1 7164   3.184   3.857   0.504
 2400TIP3    H2 7165   3.071   3.785   0.432
 2401TIP3   OH2 7166   1.990   1.105   4.449
 2401TIP3    H1 7167   1.894   1.108   4.453
 2401TIP3    H2 7168   2.018   1.094   4.540
 2402TIP3   OH2 7169   3.059   6.286   2.228
 2402TIP3    H1 7170   3.137   6.324   2.269
 2402TIP3    H2 7171   3.007   6.361   2.200
 2403TIP3   OH2 7172   3.750   2.345   5.468
 2403TIP3    H1 7173   3.712   2.423   5.508
 2403TIP3    H2 7174   3.825   2.324   5.524
 2404TIP3   OH2 7175   4.523   1.679   3.295
 2404TIP3    H1 7176   4.495   1.756   3.344
 2404TIP3    H2 7177   4.519   1.707   3.203
 2405TIP3   OH2 7178   5.333   3.435   1.185
 2405TIP3    H1 7179   5.382   3.425   1.267
 2405TIP3    H2 7180   5.364   3.363   1.130
 2406TIP3   OH2 7181   1.927   6.464   3.382
 2406TIP3    H1 7182   2.017   6.448   3.411
 2406TIP3    H2 7183   1.927   6.440   3.289
 2407TIP3   OH2 7184   2.162   2.610   1.003
 2407TIP3    H1 7185   2.140   2.518   1.022
 2407TIP3    H2 7186   2.194   2.608   0.912
 2408TIP3   OH2 7187   7.115   6.343   1.159
 2408TIP3    H1 7188   7.054   6.351   1.086
 2408TIP3    H2 7189   7.059   6.330   1.236
 2409TIP3   OH2 7190   3.345   2.112   5.075
 2409TIP3    H1 7191   3.342   2.143   4.984
 2409TIP3    H2 7192   3.323   2.019   5.069
 2410TIP3   OH2 7193   0.959   0.351   5.837
 2410TIP3    H1 7194   1.025   0.383   5.776
 2410TIP3    H2 7195   0.922   0.430   5.877
 2411TIP3   OH2 7196   5.716   1.838   0.449
 2411TIP3    H1 7197   5.771   1.824   0.372
 2411TIP3    H2 7198   5.645   1.895   0.419
 2412TIP3   OH2 7199   6.356   5.824   5.086
 2412TIP3    H1 7200   6.289   5.783   5.033
 2412TIP3    H2 7201   6.309   5.890   5.138
 2413TIP3   OH2 7202   0.065   4.627   2.909
 2413TIP3    H1 7203   0.088   4.656   2.997
 2413TIP3    H2 7204   0.138   4.572   2.882
 2414TIP3   OH2 7205   3.657   3.308   5.472
 2414TIP3    H1 7206   3.694   3.235   5.522
 2414TIP3    H2 7207   3.701   3.304   5.387
 2415TIP3   OH2 7208   6.086   1.559   2.738
 2415TIP3    H1 7209   6.142   1.584   2.664
 2415TIP3    H2 7210   5.997   1.570   2.705
 2416TIP3   OH2 7211   2.426   5.442   1.790
 2416TIP3    H1 7212   2.412   5.469   1.699
 2416TIP3    H2 7213   2.516   5.410   1.792
 2417TIP3   OH2 7214   1.888   4.780   2.343
 2417TIP3    H1 7215   1.980   4.766   2.366
 2417TIP3    H2 7216   1.887   4.865   2.299
 2418TIP3   OH2 7217   6.680   1.347   5.194
 2418TIP3    H1 7218   6.731   1.369   5.271
 2418TIP3    H2 7219   6.589   1.359   5.221
 2419TIP3   OH2 7220   2.566   5.440   2.137
 2419TIP3    H1 7221   2.649   5.465   2.097
 2419TIP3    H2 7222   2.590   5.396   2.218
 2420TIP3   OH2 7223   5.588   3.183   0.118
 2420TIP3    H1 7224   5.578   3.277   0.130
 2420TIP3    H2 7225   5.683   3.170   0.111
 2421TIP3   OH2 7226   2.938   3.293   3.683
 2421TIP3    H1 7227   2.959   3.228   3.750
 2421TIP3    H2 7228   3.020   3.342   3.671
 2422TIP3   OH2 7229   2.017   5.414   4.602
 2422TIP3    H1 7230   2.059   5.413   4.687
 2422TIP3    H2 7231   2.089   5.411   4.539
 2423TIP3   OH2 7232   3.628   0.160   1.511
 2423TIP3    H1 7233   3.618   0.233   1.450
 2423TIP3    H2 7234   3.689   0.192   1.578
 2424TIP3   OH2 7235   1.595   4.186   2.318
 2424TIP3    H1 7236   1.514   4.225   2.284
 2424TIP3    H2 7237   1.664   4.228   2.267
 2425TIP3   OH2 7238   3.641   1.734   5.439
 2425TIP3    H1 7239   3.613   1.693   5.357
 2425TIP3    H2 7240   3.566   1.788   5.466
 2426TIP3   OH2 7241   1.645   5.225   0.464
 2426TIP3    H1 7242   1.731   5.241   0.426
 2426TIP3    H2 7243   1.612   5.148   0.417
 2427TIP3   OH2 7244   4.325   6.374   2.401
 2427TIP3    H1 7245   4.299   6.291   2.441
 2427TIP3    H2 7246   4.247   6.404   2.354
 2428TIP3   OH2 7247   2.302   2.128   5.600
 2428TIP3    H1 7248   2.271   2.063   5.538
 2428TIP3    H2 7249   2.395   2.138   5.579
 2429TIP3   OH2 7250   0.210   1.013   4.090
 2429TIP3    H1 7251   0.165   0.986   4.170
 2429TIP3    H2 7252   0.151   1.076   4.049
 2430TIP3   OH2 7253   3.681   1.813   3.774
 2430TIP3    H1 7254   3.631   1.894   3.762
 2430TIP3    H2 7255   3.766   1.832   3.735
 2431TIP3   OH2 7256   2.150   5.414   5.600
 2431TIP3    H1 7257   2.125   5.466   5.677
 2431TIP3    H2 7258   2.133   5.473   5.526
 2432TIP3   OH2 7259   1.626   6.189   2.814
 2432TIP3    H1 7260   1.566   6.264   2.813
 2432TIP3    H2 7261   1.605   6.141   2.734
 2433TIP3   OH2 7262   6.713   3.875   2.125
 2433TIP3    H1 7263   6.654   3.934   2.078
 2433TIP3    H2 7264   6.704   3.900   2.217
 2434TIP3   OH2 7265   3.555   2.097   3.762
 2434TIP3    H1 7266   3.640   2.140   3.767
 2434TIP3    H2 7267   3.507   2.146   3.696
 2435TIP3   OH2 7268   0.309   0.605   4.423
 2435TIP3    H1 7269   0.377   0.540   4.436
 2435TIP3    H2 7270   0.334   0.651   4.343
 2436TIP3   OH2 7271   7.204   1.551   0.490
 2436TIP3    H1 7272   7.258   1.628   0.508
 2436TIP3    H2 7273   7.147   1.544   0.567
 2437TIP3   OH2 7274   3.319   4.466   1.930
 2437TIP3    H1 7275   3.270   4.485   1.850
 2437TIP3    H2 7276   3.384   4.536   1.936
 2438TIP3   OH2 7277   5.578   1.670   5.264
 2438TIP3    H1 7278   5.491   1.634   5.282
 2438TIP3    H2 7279   5.636   1.594   5.267
 2439TIP3   OH2 7280   1.028   5.440   1.710
 2439TIP3    H1 7281   0.966   5.492   1.659
 2439TIP3    H2 7282   1.092   5.409   1.645
 2440TIP3   OH2 7283   2.846   4.571   5.397
 2440TIP3    H1 7284   2.879   4.660   5.410
 2440TIP3    H2 7285   2.871   4.550   5.307
 2441TIP3   OH2 7286   2.953   6.336   4.508
 2441TIP3    H1 7287   3.045   6.318   4.489
 2441TIP3    H2 7288   2.949   6.344   4.603
 2442TIP3   OH2 7289   1.301   2.329   5.443
 2442TIP3    H1 7290   1.345   2.389   5.504
 2442TIP3    H2 7291   1.235   2.382   5.400
 2443TIP3   OH2 7292   4.174   5.724   4.064
 2443TIP3    H1 7293   4.165   5.662   3.993
 2443TIP3    H2 7294   4.234   5.791   4.031
 2444TIP3   OH2 7295   5.305   4.759   1.148
 2444TIP3    H1 7296   5.278   4.802   1.230
 2444TIP3    H2 7297   5.242   4.688   1.137
 2445TIP3   OH2 7298   2.525   4.308   4.253
 2445TIP3    H1 7299   2.551   4.220   4.227
 2445TIP3    H2 7300   2.445   4.325   4.202
 2446TIP3   OH2 7301   4.363   1.268   5.876
 2446TIP3    H1 7302   4.375   1.307   5.790
 2446TIP3    H2 7303   4.382   1.175   5.864
 2447TIP3   OH2 7304   6.085   5.952   0.880
 2447TIP3    H1 7305   6.077   5.974   0.788
 2447TIP3    H2 7306   5.997   5.925   0.907
 2448TIP3   OH2 7307   5.303   3.444   2.547
 2448TIP3    H1 7308   5.262   3.430   2.462
 2448TIP3    H2 7309   5.264   3.525   2.579
 2449TIP3   OH2 7310   4.516   0.841   3.607
 2449TIP3    H1 7311   4.456   0.886   3.667
 2449TIP3    H2 7312   4.462   0.773   3.567
 2450TIP3   OH2 7313   5.638   6.520   3.573
 2450TIP3    H1 7314   5.553   6.546   3.609
 2450TIP3    H2 7315   5.617   6.457   3.504
 2451TIP3   OH2 7316   3.478   5.271   2.415
 2451TIP3    H1 7317   3.534   5.291   2.490
 2451TIP3    H2 7318   3.507   5.331   2.346
 2452TIP3   OH2 7319   2.119   5.689   2.882
 2452TIP3    H1 7320   2.060   5.749   2.836
 2452TIP3    H2 7321   2.203   5.701   2.837
 2453TIP3   OH2 7322   5.892   3.171   2.999
 2453TIP3    H1 7323   5.929   3.212   3.078
 2453TIP3    H2 7324   5.872   3.244   2.941
 2454TIP3   OH2 7325   2.039   4.026   2.220
 2454TIP3    H1 7326   2.107   4.056   2.159
 2454TIP3    H2 7327   2.064   3.936   2.241
 2455TIP3   OH2 7328   6.259   5.899   5.800
 2455TIP3    H1 7329   6.299   5.934   5.720
 2455TIP3    H2 7330   6.192   5.964   5.823
 2456TIP3   OH2 7331   1.148   0.762   5.058
 2456TIP3    H1 7332   1.056   0.786   5.047
 2456TIP3    H2 7333   1.163   0.770   5.152
 2457TIP3   OH2 7334   0.552   6.423   0.853
 2457TIP3    H1 7335   0.579   6.333   0.835
 2457TIP3    H2 7336   0.470   6.414   0.903
 2458TIP3   OH2 7337   1.004   3.384   5.331
 2458TIP3    H1 7338   0.935   3.447   5.309
 2458TIP3    H2 7339   0.977   3.347   5.415
 2459TIP3   OH2 7340   1.030   3.051   2.167
 2459TIP3    H1 7341   1.045   3.106   2.090
 2459TIP3    H2 7342   1.078   3.095   2.237
 2460TIP3   OH2 7343   6.647   4.128   0.400
 2460TIP3    H1 7344   6.647   4.043   0.445
 2460TIP3    H2 7345   6.657   4.192   0.471
 2461TIP3   OH2 7346   2.388   0.457   1.366
 2461TIP3    H1 7347   2.410   0.365   1.353
 2461TIP3    H2 7348   2.472   0.503   1.355
 2462TIP3   OH2 7349   0.281   0.249   3.608
 2462TIP3    H1 7350   0.272   0.344   3.601
 2462TIP3    H2 7351   0.195   0.215   3.583
 2463TIP3   OH2 7352   4.923   4.865   0.186
 2463TIP3    H1 7353   4.987   4.888   0.253
 2463TIP3    H2 7354   4.847   4.920   0.206
 2464TIP3   OH2 7355   1.730   4.468   5.634
 2464TIP3    H1 7356   1.727   4.439   5.543
 2464TIP3    H2 7357   1.742   4.387   5.684
 2465TIP3   OH2 7358   5.470   3.662   3.205
 2465TIP3    H1 7359   5.542   3.602   3.185
 2465TIP3    H2 7360   5.409   3.609   3.256
 2466TIP3   OH2 7361   3.533   0.877   4.185
 2466TIP3    H1 7362   3.470   0.890   4.257
 2466TIP3    H2 7363   3.479   0.854   4.110
 2467TIP3   OH2 7364   4.820   4.439   4.056
 2467TIP3    H1 7365   4.789   4.416   3.968
 2467TIP3    H2 7366   4.879   4.513   4.042
 2468TIP3   OH2 7367   7.208   4.008   3.723
 2468TIP3    H1 7368   7.185   3.951   3.649
 2468TIP3    H2 7369   7.217   3.948   3.797
 2469TIP3   OH2 7370   0.917   6.538   4.537
 2469TIP3    H1 7371   0.888   6.468   4.596
 2469TIP3    H2 7372   0.850   6.541   4.469
 2470TIP3   OH2 7373   3.657   4.523   5.258
 2470TIP3    H1 7374   3.747   4.556   5.261
 2470TIP3    H2 7375   3.604   4.598   5.231
 2471TIP3   OH2 7376   7.198   5.668   5.019
 2471TIP3    H1 7377   7.184   5.585   5.065
 2471TIP3    H2 7378   7.190   5.735   5.087
 2472TIP3   OH2 7379   7.034   0.217   2.099
 2472TIP3    H1 7380   7.126   0.193   2.092
 2472TIP3    H2 7381   7.026   0.297   2.047
 2473TIP3   OH2 7382   5.693   3.433   2.846
 2473TIP3    H1 7383   5.675   3.504   2.785
 2473TIP3    H2 7384   5.652   3.356   2.806
 2474TIP3   OH2 7385   4.178   6.393   1.120
 2474TIP3    H1 7386   4.204   6.334   1.191
 2474TIP3    H2 7387   4.166   6.335   1.044
 2475TIP3   OH2 7388   1.257   6.557   0.335
 2475TIP3    H1 7389   1.200   6.626   0.302
 2475TIP3    H2 7390   1.239   6.555   0.429
 2476TIP3   OH2 7391   0.463   4.739   2.383
 2476TIP3    H1 7392   0.473   4.743   2.478
 2476TIP3    H2 7393   0.534   4.681   2.353
 2477TIP3   OH2 7394   2.126   0.032   0.594
 2477TIP3    H1 7395   2.143   0.080   0.675
 2477TIP3    H2 7396   2.056  -0.030   0.617
 2478TIP3   OH2 7397   2.153   0.440   4.707
 2478TIP3    H1 7398   2.069   0.435   4.662
 2478TIP3    H2 7399   2.217   0.455   4.638
 2479TIP3   OH2 7400   7.151   1.144   4.482
 2479TIP3    H1 7401   7.213   1.086   4.526
 2479TIP3    H2 7402   7.083   1.085   4.449
 2480TIP3   OH2 7403   6.335   4.174   2.069
 2480TIP3    H1 7404   6.304   4.264   2.062
 2480TIP3    H2 7405   6.404   4.177   2.135
 2481TIP3   OH2 7406   0.558   0.356   2.976
 2481TIP3    H1 7407   0.546   0.423   3.043
 2481TIP3    H2 7408   0.469   0.331   2.952
 2482TIP3   OH2 7409   0.462   2.025   0.176
 2482TIP3    H1 7410   0.493   2.033   0.266
 2482TIP3    H2 7411   0.367   2.014   0.185
 2483TIP3   OH2 7412   0.915   5.346   5.311
 2483TIP3    H1 7413   0.845   5.347   5.247
 2483TIP3    H2 7414   0.877   5.303   5.388
 2484TIP3   OH2 7415   1.313   1.357   2.535
 2484TIP3    H1 7416   1.395   1.334   2.490
 2484TIP3    H2 7417   1.314   1.305   2.615
 2485TIP3   OH2 7418   5.699   5.695   0.568
 2485TIP3    H1 7419   5.642   5.632   0.611
 2485TIP3    H2 7420   5.714   5.659   0.481
 2486TIP3   OH2 7421   5.125   3.465   5.126
 2486TIP3    H1 7422   5.153   3.537   5.069
 2486TIP3    H2 7423   5.204   3.438   5.171
 2487TIP3   OH2 7424   4.681   2.526   2.365
 2487TIP3    H1 7425   4.590   2.547   2.347
 2487TIP3    H2 7426   4.723   2.526   2.279
 2488TIP3   OH2 7427   0.869   0.176   4.860
 2488TIP3    H1 7428   0.961   0.168   4.884
 2488TIP3    H2 7429   0.850   0.097   4.809
 2489TIP3   OH2 7430   3.981   4.285   2.546
 2489TIP3    H1 7431   3.937   4.273   2.630
 2489TIP3    H2 7432   4.066   4.241   2.557
 2490TIP3   OH2 7433   6.714   2.618   4.685
 2490TIP3    H1 7434   6.809   2.630   4.689
 2490TIP3    H2 7435   6.703   2.534   4.640
 2491TIP3   OH2 7436   2.300   6.352   2.806
 2491TIP3    H1 7437   2.287   6.430   2.751
 2491TIP3    H2 7438   2.391   6.326   2.789
 2492TIP3   OH2 7439   4.174   6.197   4.746
 2492TIP3    H1 7440   4.225   6.241   4.678
 2492TIP3    H2 7441   4.171   6.260   4.818
 2493TIP3   OH2 7442   2.076   3.227   0.015
 2493TIP3    H1 7443   2.096   3.279  -0.063
 2493TIP3    H2 7444   2.133   3.150   0.007
 2494TIP3   OH2 7445   5.856   3.549   0.999
 2494TIP3    H1 7446   5.861   3.643   0.981
 2494TIP3    H2 7447   5.931   3.532   1.056
 2495TIP3   OH2 7448   2.495   0.432   4.159
 2495TIP3    H1 7449   2.495   0.493   4.233
 2495TIP3    H2 7450   2.413   0.452   4.113
 2496TIP3   OH2 7451   2.902   4.621   2.794
 2496TIP3    H1 7452   2.812   4.591   2.782
 2496TIP3    H2 7453   2.954   4.570   2.731
 2497TIP3   OH2 7454   4.697   6.412   4.173
 2497TIP3    H1 7455   4.640   6.385   4.101
 2497TIP3    H2 7456   4.773   6.354   4.168
 2498TIP3   OH2 7457   3.913   3.808   1.716
 2498TIP3    H1 7458   3.941   3.718   1.699
 2498TIP3    H2 7459   3.836   3.799   1.771
 2499TIP3   OH2 7460   6.448   3.642   2.210
 2499TIP3    H1 7461   6.527   3.610   2.254
 2499TIP3    H2 7462   6.465   3.735   2.195
 2500TIP3   OH2 7463   0.293   6.710   5.846
 2500TIP3    H1 7464   0.347   6.719   5.768
 2500TIP3    H2 7465   0.312   6.789   5.897
 2501TIP3   OH2 7466   5.703   4.669   0.218
 2501TIP3    H1 7467   5.791   4.636   0.203
 2501TIP3    H2 7468   5.645   4.598   0.191
 2502TIP3   OH2 7469   6.347   0.033   3.093
 2502TIP3    H1 7470   6.307   0.120   3.083
 2502TIP3    H2 7471   6.424   0.049   3.149
 2503TIP3   OH2 7472   5.896   1.906   3.556
 2503TIP3    H1 7473   5.890   1.899   3.461
 2503TIP3    H2 7474   5.989   1.909   3.575
 2504TIP3   OH2 7475   4.826   6.822   0.418
 2504TIP3    H1 7476   4.733   6.841   0.431
 2504TIP3    H2 7477   4.838   6.734   0.453
 2505TIP3   OH2 7478   6.090   2.246   3.677
 2505TIP3    H1 7479   6.108   2.191   3.600
 2505TIP3    H2 7480   6.079   2.334   3.641
 2506TIP3   OH2 7481   5.961   4.690   1.228
 2506TIP3    H1 7482   5.950   4.782   1.203
 2506TIP3    H2 7483   6.046   4.666   1.192
 2507TIP3   OH2 7484   3.380   4.929   3.464
 2507TIP3    H1 7485   3.312   4.873   3.429
 2507TIP3    H2 7486   3.362   4.933   3.558
 2508TIP3   OH2 7487   3.083   3.481   3.219
 2508TIP3    H1 7488   3.035   3.559   3.191
 2508TIP3    H2 7489   3.022   3.434   3.276
 2509TIP3   OH2 7490   1.624   6.623   2.893
 2509TIP3    H1 7491   1.592   6.546   2.940
 2509TIP3    H2 7492   1.593   6.697   2.945
 2510TIP3   OH2 7493   0.504   4.402   0.314
 2510TIP3    H1 7494   0.505   4.348   0.235
 2510TIP3    H2 7495   0.427   4.372   0.363
 2511TIP3   OH2 7496   2.736   0.254   1.419
 2511TIP3    H1 7497   2.714   0.224   1.507
 2511TIP3    H2 7498   2.701   0.187   1.361
 2512TIP3   OH2 7499   4.205   6.324   3.925
 2512TIP3    H1 7500   4.197   6.229   3.936
 2512TIP3    H2 7501   4.118   6.358   3.948
 2513TIP3   OH2 7502   4.147   3.039   4.794
 2513TIP3    H1 7503   4.104   2.954   4.792
 2513TIP3    H2 7504   4.123   3.075   4.880
 2514TIP3   OH2 7505   0.720   1.564   3.218
 2514TIP3    H1 7506   0.630   1.595   3.207
 2514TIP3    H2 7507   0.716   1.504   3.292
 2515TIP3   OH2 7508   2.949   0.700   4.966
 2515TIP3    H1 7509   2.913   0.621   4.925
 2515TIP3    H2 7510   3.016   0.730   4.905
 2516TIP3   OH2 7511   5.766   2.185   2.647
 2516TIP3    H1 7512   5.769   2.264   2.592
 2516TIP3    H2 7513   5.764   2.112   2.584
 2517TIP3   OH2 7514   5.241   6.170   2.303
 2517TIP3    H1 7515   5.219   6.096   2.360
 2517TIP3    H2 7516   5.335   6.181   2.315
 2518TIP3   OH2 7517   3.774   5.513   1.895
 2518TIP3    H1 7518   3.830   5.587   1.871
 2518TIP3    H2 7519   3.750   5.531   1.986
 2519TIP3   OH2 7520   4.472   3.378   3.139
 2519TIP3    H1 7521   4.513   3.306   3.092
 2519TIP3    H2 7522   4.542   3.415   3.193
 2520TIP3   OH2 7523   1.881   3.794   2.401
 2520TIP3    H1 7524   1.813   3.859   2.383
 2520TIP3    H2 7525   1.903   3.808   2.493
 2521TIP3   OH2 7526   6.954   4.963   0.071
 2521TIP3    H1 7527   6.907   5.034   0.027
 2521TIP3    H2 7528   7.017   4.931   0.006
 2522TIP3   OH2 7529   4.387   4.902   4.801
 2522TIP3    H1 7530   4.350   4.937   4.883
 2522TIP3    H2 7531   4.372   4.972   4.738
 2523TIP3   OH2 7532   6.248   0.508   0.445
 2523TIP3    H1 7533   6.270   0.482   0.356
 2523TIP3    H2 7534   6.298   0.448   0.501
 2524TIP3   OH2 7535   5.461   5.387   4.191
 2524TIP3    H1 7536   5.438   5.479   4.202
 2524TIP3    H2 7537   5.424   5.363   4.106
 2525TIP3   OH2 7538   4.350   2.359   3.982
 2525TIP3    H1 7539   4.439   2.368   4.016
 2525TIP3    H2 7540   4.361   2.350   3.887
 2526TIP3   OH2 7541   4.786   0.422   0.664
 2526TIP3    H1 7542   4.853   0.356   0.683
 2526TIP3    H2 7543   4.762   0.456   0.751
 2527TIP3   OH2 7544   3.434   5.445   0.349
 2527TIP3    H1 7545   3.471   5.400   0.273
 2527TIP3    H2 7546   3.351   5.399   0.365
 2528TIP3   OH2 7547   1.530   4.668   0.362
 2528TIP3    H1 7548   1.527   4.744   0.421
 2528TIP3    H2 7549   1.465   4.608   0.397
 2529TIP3   OH2 7550   6.234   3.562   1.405
 2529TIP3    H1 7551   6.243   3.652   1.373
 2529TIP3    H2 7552   6.318   3.543   1.446
 2530TIP3   OH2 7553   6.332   4.794   3.361
 2530TIP3    H1 7554   6.354   4.781   3.453
 2530TIP3    H2 7555   6.405   4.846   3.326
 2531TIP3   OH2 7556   2.154   3.774   4.291
 2531TIP3    H1 7557   2.105   3.824   4.356
 2531TIP3    H2 7558   2.245   3.781   4.318
 2532TIP3   OH2 7559   3.963   3.758   2.508
 2532TIP3    H1 7560   3.937   3.676   2.549
 2532TIP3    H2 7561   3.910   3.763   2.428
 2533TIP3   OH2 7562   2.515   1.538   0.328
 2533TIP3    H1 7563   2.490   1.624   0.361
 2533TIP3    H2 7564   2.532   1.552   0.235
 2534TIP3   OH2 7565   7.112   2.125   2.498
 2534TIP3    H1 7566   7.167   2.059   2.539
 2534TIP3    H2 7567   7.072   2.079   2.424
 2535TIP3   OH2 7568   5.524   4.101   5.100
 2535TIP3    H1 7569   5.445   4.066   5.142
 2535TIP3    H2 7570   5.493   4.173   5.046
 2536TIP3   OH2 7571   3.691   0.155   0.457
 2536TIP3    H1 7572   3.685   0.228   0.395
 2536TIP3    H2 7573   3.601   0.122   0.463
 2537TIP3   OH2 7574   6.652   4.627   2.781
 2537TIP3    H1 7575   6.589   4.696   2.801
 2537TIP3    H2 7576   6.605   4.569   2.721
 2538TIP3   OH2 7577   4.782   4.138   1.700
 2538TIP3    H1 7578   4.691   4.117   1.719
 2538TIP3    H2 7579   4.830   4.058   1.721
 2539TIP3   OH2 7580   3.586   5.253   5.253
 2539TIP3    H1 7581   3.572   5.345   5.276
 2539TIP3    H2 7582   3.652   5.223   5.316
 2540TIP3   OH2 7583   5.270   6.684   4.650
 2540TIP3    H1 7584   5.208   6.671   4.722
 2540TIP3    H2 7585   5.356   6.680   4.691
 2541TIP3   OH2 7586   5.144   2.243   4.710
 2541TIP3    H1 7587   5.093   2.281   4.638
 2541TIP3    H2 7588   5.079   2.197   4.764
 2542TIP3   OH2 7589   2.394   2.468   3.218
 2542TIP3    H1 7590   2.312   2.518   3.229
 2542TIP3    H2 7591   2.366   2.383   3.185
 2543TIP3   OH2 7592   1.565   1.168   3.398
 2543TIP3    H1 7593   1.500   1.234   3.423
 2543TIP3    H2 7594   1.536   1.089   3.445
 2544TIP3   OH2 7595   5.349   4.279   5.659
 2544TIP3    H1 7596   5.401   4.199   5.653
 2544TIP3    H2 7597   5.414   4.349   5.667
 2545TIP3   OH2 7598   6.810   2.778   5.038
 2545TIP3    H1 7599   6.894   2.796   4.995
 2545TIP3    H2 7600   6.825   2.801   5.130
 2546TIP3   OH2 7601   0.505   1.893   2.737
 2546TIP3    H1 7602   0.550   1.962   2.786
 2546TIP3    H2 7603   0.554   1.814   2.756
 2547TIP3   OH2 7604   0.802   6.627   4.904
 2547TIP3    H1 7605   0.791   6.532   4.905
 2547TIP3    H2 7606   0.882   6.642   4.954
 2548TIP3   OH2 7607   4.315   3.888   0.094
 2548TIP3    H1 7608   4.306   3.895  -0.001
 2548TIP3    H2 7609   4.300   3.978   0.126
 2549TIP3   OH2 7610   3.863   2.665   0.454
 2549TIP3    H1 7611   3.820   2.725   0.516
 2549TIP3    H2 7612   3.791   2.631   0.400
 2550TIP3   OH2 7613   5.512   2.729   3.359
 2550TIP3    H1 7614   5.512   2.634   3.374
 2550TIP3    H2 7615   5.575   2.763   3.422
 2551TIP3   OH2 7616   3.261   4.909   5.607
 2551TIP3    H1 7617   3.170   4.920   5.637
 2551TIP3    H2 7618   3.290   4.828   5.649
 2552TIP3   OH2 7619   1.616   4.903   2.748
 2552TIP3    H1 7620   1.681   4.846   2.707
 2552TIP3    H2 7621   1.665   4.981   2.774
 2553TIP3   OH2 7622   5.189   4.512   1.016
 2553TIP3    H1 7623   5.232   4.562   0.946
 2553TIP3    H2 7624   5.176   4.425   0.979
 2554TIP3   OH2 7625   4.011   6.711   3.457
 2554TIP3    H1 7626   3.975   6.652   3.524
 2554TIP3    H2 7627   4.033   6.654   3.384
 2555TIP3   OH2 7628   5.231   5.619   1.597
 2555TIP3    H1 7629   5.203   5.548   1.539
 2555TIP3    H2 7630   5.159   5.629   1.659
 2556TIP3   OH2 7631   0.433   2.651   2.072
 2556TIP3    H1 7632   0.515   2.647   2.023
 2556TIP3    H2 7633   0.370   2.604   2.017
 2557TIP3   OH2 7634   6.477   0.424   5.658
 2557TIP3    H1 7635   6.538   0.402   5.728
 2557TIP3    H2 7636   6.396   0.447   5.704
 2558TIP3   OH2 7637   6.875   2.603   3.646
 2558TIP3    H1 7638   6.945   2.540   3.631
 2558TIP3    H2 7639   6.915   2.688   3.629
 2559TIP3   OH2 7640   3.040   4.430   2.057
 2559TIP3    H1 7641   3.013   4.421   1.966
 2559TIP3    H2 7642   3.136   4.428   2.054
 2560TIP3   OH2 7643   3.334   2.268   2.100
 2560TIP3    H1 7644   3.307   2.241   2.012
 2560TIP3    H2 7645   3.389   2.345   2.085
 2561TIP3   OH2 7646   7.061   4.216   5.246
 2561TIP3    H1 7647   6.979   4.171   5.227
 2561TIP3    H2 7648   7.113   4.206   5.166
 2562TIP3   OH2 7649   0.425   4.001   0.113
 2562TIP3    H1 7650   0.503   3.973   0.065
 2562TIP3    H2 7651   0.438   3.966   0.201
 2563TIP3   OH2 7652   0.168   1.042   2.209
 2563TIP3    H1 7653   0.196   1.088   2.287
 2563TIP3    H2 7654   0.243   0.989   2.184
 2564TIP3   OH2 7655   0.500   0.901   2.453
 2564TIP3    H1 7656   0.572   0.838   2.453
 2564TIP3    H2 7657   0.430   0.856   2.405
 2565TIP3   OH2 7658   2.682   0.869   4.965
 2565TIP3    H1 7659   2.763   0.818   4.970
 2565TIP3    H2 7660   2.692   0.925   4.888
 2566TIP3   OH2 7661   1.439   4.491   5.759
 2566TIP3    H1 7662   1.472   4.490   5.669
 2566TIP3    H2 7663   1.346   4.468   5.752
 2567TIP3   OH2 7664   2.104   2.604   0.162
 2567TIP3    H1 7665   2.185   2.586   0.210
 2567TIP3    H2 7666   2.107   2.544   0.087
 2568TIP3   OH2 7667   0.869   4.374   1.175
 2568TIP3    H1 7668   0.829   4.339   1.255
 2568TIP3    H2 7669   0.962   4.381   1.197
 2569TIP3   OH2 7670   0.236   0.109   1.038
 2569TIP3    H1 7671   0.229   0.140   0.947
 2569TIP3    H2 7672   0.166   0.044   1.046
 2570TIP3   OH2 7673   4.536   1.737   5.334
 2570TIP3    H1 7674   4.458   1.791   5.350
 2570TIP3    H2 7675   4.501   1.648   5.324
 2571TIP3   OH2 7676   1.809   0.371   3.197
 2571TIP3    H1 7677   1.790   0.450   3.146
 2571TIP3    H2 7678   1.727   0.321   3.192
 2572TIP3   OH2 7679   4.710   5.633   5.410
 2572TIP3    H1 7680   4.650   5.651   5.482
 2572TIP3    H2 7681   4.661   5.575   5.352
 2573TIP3   OH2 7682   5.836   5.351   2.066
 2573TIP3    H1 7683   5.884   5.331   1.986
 2573TIP3    H2 7684   5.749   5.379   2.035
 2574TIP3   OH2 7685   2.796   2.002   0.371
 2574TIP3    H1 7686   2.812   2.096   0.362
 2574TIP3    H2 7687   2.745   1.994   0.452
 2575TIP3   OH2 7688   3.111   2.859   3.700
 2575TIP3    H1 7689   3.062   2.856   3.617
 2575TIP3    H2 7690   3.044   2.879   3.766
 2576TIP3   OH2 7691   6.912   1.272   3.063
 2576TIP3    H1 7692   6.865   1.307   2.987
 2576TIP3    H2 7693   7.004   1.270   3.035
 2577TIP3   OH2 7694   0.091   3.424   2.357
 2577TIP3    H1 7695   0.149   3.378   2.418
 2577TIP3    H2 7696   0.020   3.362   2.341
 2578TIP3   OH2 7697   5.171   5.632   1.266
 2578TIP3    H1 7698   5.153   5.574   1.340
 2578TIP3    H2 7699   5.225   5.579   1.207
 2579TIP3   OH2 7700   0.972   4.953   4.218
 2579TIP3    H1 7701   1.045   5.014   4.226
 2579TIP3    H2 7702   0.941   4.965   4.128
 2580TIP3   OH2 7703   0.518   4.320   1.843
 2580TIP3    H1 7704   0.446   4.260   1.862
 2580TIP3    H2 7705   0.565   4.329   1.926
 2581TIP3   OH2 7706   5.417   5.064   4.168
 2581TIP3    H1 7707   5.458   4.996   4.114
 2581TIP3    H2 7708   5.445   5.043   4.257
 2582TIP3   OH2 7709   3.979   2.561   5.334
 2582TIP3    H1 7710   3.954   2.600   5.418
 2582TIP3    H2 7711   4.073   2.578   5.326
 2583TIP3   OH2 7712   4.965   2.097   3.543
 2583TIP3    H1 7713   4.936   2.178   3.585
 2583TIP3    H2 7714   5.023   2.126   3.473
 2584TIP3   OH2 7715   5.072   4.188   5.601
 2584TIP3    H1 7716   5.129   4.114   5.622
 2584TIP3    H2 7717   5.128   4.247   5.550
 2585TIP3   OH2 7718   0.431   5.407   0.573
 2585TIP3    H1 7719   0.408   5.500   0.579
 2585TIP3    H2 7720   0.391   5.378   0.491
 2586TIP3   OH2 7721   0.588   0.787   5.061
 2586TIP3    H1 7722   0.576   0.881   5.074
 2586TIP3    H2 7723   0.599   0.777   4.966
 2587TIP3   OH2 7724   0.063   4.610   3.821
 2587TIP3    H1 7725   0.046   4.525   3.863
 2587TIP3    H2 7726   0.107   4.588   3.739
 2588TIP3   OH2 7727   5.920   2.210   5.568
 2588TIP3    H1 7728   5.843   2.228   5.514
 2588TIP3    H2 7729   5.991   2.199   5.505
 2589TIP3   OH2 7730   0.007   0.256   0.272
 2589TIP3    H1 7731   0.100   0.279   0.266
 2589TIP3    H2 7732   0.005   0.181   0.331
 2590TIP3   OH2 7733   7.024   4.621   0.193
 2590TIP3    H1 7734   6.999   4.553   0.255
 2590TIP3    H2 7735   6.943   4.670   0.176
 2591TIP3   OH2 7736   0.783   5.629   2.614
 2591TIP3    H1 7737   0.736   5.597   2.537
 2591TIP3    H2 7738   0.735   5.708   2.640
 2592TIP3   OH2 7739   6.661   0.447   3.423
 2592TIP3    H1 7740   6.602   0.522   3.415
 2592TIP3    H2 7741   6.727   0.461   3.356
 2593TIP3   OH2 7742   2.598   4.744   2.386
 2593TIP3    H1 7743   2.554   4.820   2.424
 2593TIP3    H2 7744   2.540   4.670   2.405
 2594TIP3   OH2 7745   2.874   3.858   2.023
 2594TIP3    H1 7746   2.930   3.835   2.098
 2594TIP3    H2 7747   2.865   3.776   1.974
 2595TIP3   OH2 7748   3.076   3.806   5.824
 2595TIP3    H1 7749   3.107   3.796   5.734
 2595TIP3    H2 7750   3.145   3.855   5.869
 2596TIP3   OH2 7751   6.415   3.641   1.711
 2596TIP3    H1 7752   6.415   3.545   1.718
 2596TIP3    H2 7753   6.343   3.669   1.766
 2597TIP3   OH2 7754   1.027  -0.020   2.099
 2597TIP3    H1 7755   0.936  -0.001   2.076
 2597TIP3    H2 7756   1.079   0.033   2.038
 2598TIP3   OH2 7757   3.993   4.854   5.805
 2598TIP3    H1 7758   3.975   4.778   5.860
 2598TIP3    H2 7759   3.980   4.929   5.863
 2599TIP3   OH2 7760   4.319   4.546   0.771
 2599TIP3    H1 7761   4.399   4.564   0.721
 2599TIP3    H2 7762   4.348   4.490   0.843
 2600TIP3   OH2 7763   3.115   6.142   1.815
 2600TIP3    H1 7764   3.138   6.050   1.806
 2600TIP3    H2 7765   3.046   6.143   1.881
 2601TIP3   OH2 7766   5.415   4.253   0.886
 2601TIP3    H1 7767   5.449   4.218   0.968
 2601TIP3    H2 7768   5.385   4.176   0.838
 2602TIP3   OH2 7769   4.778   1.332   3.327
 2602TIP3    H1 7770   4.800   1.264   3.264
 2602TIP3    H2 7771   4.684   1.346   3.316
 2603TIP3   OH2 7772   6.802   5.992   3.668
 2603TIP3    H1 7773   6.889   5.967   3.635
 2603TIP3    H2 7774   6.747   5.915   3.652
 2604TIP3   OH2 7775   0.683   0.437   1.645
 2604TIP3    H1 7776   0.600   0.471   1.613
 2604TIP3    H2 7777   0.695   0.479   1.730
 2605TIP3   OH2 7778   0.449   1.624   3.357
 2605TIP3    H1 7779   0.400   1.589   3.431
 2605TIP3    H2 7780   0.459   1.717   3.376
 2606TIP3   OH2 7781   3.750   6.015   1.028
 2606TIP3    H1 7782   3.810   6.089   1.031
 2606TIP3    H2 7783   3.691   6.029   1.102
 2607TIP3   OH2 7784   1.640   2.769   1.042
 2607TIP3    H1 7785   1.699   2.723   1.102
 2607TIP3    H2 7786   1.690   2.846   1.014
 2608TIP3   OH2 7787   5.264   3.697   3.659
 2608TIP3    H1 7788   5.259   3.667   3.750
 2608TIP3    H2 7789   5.185   3.662   3.618
 2609TIP3   OH2 7790   0.881   3.526   1.101
 2609TIP3    H1 7791   0.909   3.456   1.158
 2609TIP3    H2 7792   0.787   3.512   1.090
 2610TIP3   OH2 7793   4.805   2.766   3.387
 2610TIP3    H1 7794   4.843   2.848   3.355
 2610TIP3    H2 7795   4.880   2.716   3.419
 2611TIP3   OH2 7796   1.003   4.626   3.280
 2611TIP3    H1 7797   1.070   4.622   3.348
 2611TIP3    H2 7798   1.047   4.591   3.202
 2612TIP3   OH2 7799   1.834   6.029   2.583
 2612TIP3    H1 7800   1.927   6.030   2.559
 2612TIP3    H2 7801   1.807   6.120   2.576
 2613TIP3   OH2 7802   6.406   3.392   3.471
 2613TIP3    H1 7803   6.407   3.481   3.437
 2613TIP3    H2 7804   6.382   3.401   3.564
 2614TIP3   OH2 7805   2.599   6.763   2.046
 2614TIP3    H1 7806   2.578   6.775   1.954
 2614TIP3    H2 7807   2.514   6.752   2.089
 2615TIP3   OH2 7808   4.904   2.576   0.812
 2615TIP3    H1 7809   4.836   2.516   0.784
 2615TIP3    H2 7810   4.895   2.652   0.754
 2616TIP3   OH2 7811   3.031   6.350   1.480
 2616TIP3    H1 7812   2.940   6.350   1.507
 2616TIP3    H2 7813   3.032   6.401   1.399
 2617TIP3   OH2 7814   1.148   6.269   3.992
 2617TIP3    H1 7815   1.200   6.335   3.946
 2617TIP3    H2 7816   1.067   6.314   4.017
 2618TIP3   OH2 7817   3.756   2.475   5.202
 2618TIP3    H1 7818   3.830   2.504   5.256
 2618TIP3    H2 7819   3.736   2.387   5.235
 2619TIP3   OH2 7820   3.173   0.083   0.626
 2619TIP3    H1 7821   3.204   0.172   0.610
 2619TIP3    H2 7822   3.124   0.089   0.708
 2620TIP3   OH2 7823   2.057   2.666   0.672
 2620TIP3    H1 7824   2.114   2.737   0.698
 2620TIP3    H2 7825   2.116   2.595   0.646
 2621TIP3   OH2 7826   2.376   0.512   5.559
 2621TIP3    H1 7827   2.293   0.508   5.511
 2621TIP3    H2 7828   2.443   0.507   5.491
 2622TIP3   OH2 7829   6.442   2.758   3.446
 2622TIP3    H1 7830   6.425   2.688   3.509
 2622TIP3    H2 7831   6.509   2.722   3.389
 2623TIP3   OH2 7832   5.632   4.623   0.905
 2623TIP3    H1 7833   5.707   4.602   0.850
 2623TIP3    H2 7834   5.606   4.710   0.878
 2624TIP3   OH2 7835   4.356   4.789   0.234
 2624TIP3    H1 7836   4.324   4.879   0.225
 2624TIP3    H2 7837   4.437   4.786   0.183
 2625TIP3   OH2 7838  -0.015   2.275   4.703
 2625TIP3    H1 7839  -0.058   2.279   4.789
 2625TIP3    H2 7840   0.078   2.266   4.723
 2626TIP3   OH2 7841   0.399   4.445   4.874
 2626TIP3    H1 7842   0.308   4.433   4.844
 2626TIP3    H2 7843   0.440   4.496   4.805
 2627TIP3   OH2 7844   3.939   0.972   3.232
 2627TIP3    H1 7845   3.999   1.046   3.242
 2627TIP3    H2 7846   3.947   0.946   3.140
 2628TIP3   OH2 7847   2.829   4.015   5.621
 2628TIP3    H1 7848   2.750   3.988   5.668
 2628TIP3    H2 7849   2.899   4.007   5.686
 2629TIP3   OH2 7850   5.289   1.723   0.804
 2629TIP3    H1 7851   5.306   1.628   0.806
 2629TIP3    H2 7852   5.194   1.730   0.800
 2630TIP3   OH2 7853   5.502   1.939   1.464
 2630TIP3    H1 7854   5.592   1.969   1.476
 2630TIP3    H2 7855   5.496   1.859   1.517
 2631TIP3   OH2 7856   0.159   5.209   0.588
 2631TIP3    H1 7857   0.206   5.267   0.528
 2631TIP3    H2 7858   0.068   5.213   0.559
 2632TIP3   OH2 7859   4.958   3.151   0.420
 2632TIP3    H1 7860   5.028   3.198   0.465
 2632TIP3    H2 7861   4.886   3.215   0.415
 2633TIP3   OH2 7862   0.152   3.651   0.766
 2633TIP3    H1 7863   0.239   3.630   0.732
 2633TIP3    H2 7864   0.092   3.611   0.704
 2634TIP3   OH2 7865   5.877   0.784   3.300
 2634TIP3    H1 7866   5.815   0.826   3.241
 2634TIP3    H2 7867   5.874   0.836   3.380
 2635TIP3   OH2 7868   2.024   1.236   3.448
 2635TIP3    H1 7869   2.022   1.184   3.529
 2635TIP3    H2 7870   2.029   1.170   3.378
 2636TIP3   OH2 7871   5.993   5.882   0.141
 2636TIP3    H1 7872   6.073   5.934   0.130
 2636TIP3    H2 7873   5.943   5.928   0.208
 2637TIP3   OH2 7874   3.862   2.656   4.301
 2637TIP3    H1 7875   3.826   2.700   4.378
 2637TIP3    H2 7876   3.885   2.728   4.241
 2638TIP3   OH2 7877   3.794   0.455   5.518
 2638TIP3    H1 7878   3.863   0.507   5.561
 2638TIP3    H2 7879   3.828   0.437   5.431
 2639TIP3   OH2 7880   6.330   2.551   3.773
 2639TIP3    H1 7881   6.407   2.607   3.775
 2639TIP3    H2 7882   6.322   2.523   3.682
 2640TIP3   OH2 7883   3.781   0.088   0.774
 2640TIP3    H1 7884   3.791   0.177   0.740
 2640TIP3    H2 7885   3.688   0.069   0.764
 2641TIP3   OH2 7886   5.395   0.453   2.355
 2641TIP3    H1 7887   5.428   0.539   2.330
 2641TIP3    H2 7888   5.473   0.402   2.374
 2642TIP3   OH2 7889   4.351   6.023   5.213
 2642TIP3    H1 7890   4.405   6.045   5.289
 2642TIP3    H2 7891   4.400   6.058   5.138
 2643TIP3   OH2 7892   6.701   2.065   0.892
 2643TIP3    H1 7893   6.738   2.023   0.969
 2643TIP3    H2 7894   6.775   2.107   0.849
 2644TIP3   OH2 7895   5.458   2.813   2.683
 2644TIP3    H1 7896   5.388   2.812   2.617
 2644TIP3    H2 7897   5.471   2.721   2.706
 2645TIP3   OH2 7898   6.483   2.247   0.153
 2645TIP3    H1 7899   6.508   2.163   0.115
 2645TIP3    H2 7900   6.474   2.306   0.079
 2646TIP3   OH2 7901   3.027   4.419   5.199
 2646TIP3    H1 7902   3.060   4.436   5.111
 2646TIP3    H2 7903   3.084   4.472   5.256
 2647TIP3   OH2 7904   7.125   3.556   0.663
 2647TIP3    H1 7905   7.062   3.498   0.706
 2647TIP3    H2 7906   7.090   3.644   0.676
 2648TIP3   OH2 7907   3.373   1.010   3.769
 2648TIP3    H1 7908   3.373   0.943   3.701
 2648TIP3    H2 7909   3.377   0.962   3.851
 2649TIP3   OH2 7910   3.737   3.307   3.783
 2649TIP3    H1 7911   3.819   3.348   3.757
 2649TIP3    H2 7912   3.755   3.213   3.778
 2650TIP3   OH2 7913   5.171   3.944   5.728
 2650TIP3    H1 7914   5.189   3.920   5.819
 2650TIP3    H2 7915   5.247   3.913   5.680
 2651TIP3   OH2 7916   5.134   0.412   0.578
 2651TIP3    H1 7917   5.218   0.438   0.539
 2651TIP3    H2 7918   5.068   0.453   0.522
 2652TIP3   OH2 7919   3.488   1.731   1.842
 2652TIP3    H1 7920   3.443   1.801   1.890
 2652TIP3    H2 7921   3.503   1.662   1.907
 2653TIP3   OH2 7922   1.805   0.567   2.678
 2653TIP3    H1 7923   1.888   0.596   2.639
 2653TIP3    H2 7924   1.741   0.576   2.608
 2654TIP3   OH2 7925   2.299   2.153   1.250
 2654TIP3    H1 7926   2.324   2.065   1.278
 2654TIP3    H2 7927   2.364   2.211   1.290
 2655TIP3   OH2 7928   7.106   4.240   1.071
 2655TIP3    H1 7929   7.025   4.290   1.063
 2655TIP3    H2 7930   7.167   4.300   1.113
 2656TIP3   OH2 7931   6.674   1.272   4.468
 2656TIP3    H1 7932   6.766   1.288   4.447
 2656TIP3    H2 7933   6.673   1.258   4.563
 2657TIP3   OH2 7934   3.829   0.333   3.497
 2657TIP3    H1 7935   3.782   0.370   3.422
 2657TIP3    H2 7936   3.908   0.387   3.504
 2658TIP3   OH2 7937   3.566   4.597   1.691
 2658TIP3    H1 7938   3.594   4.574   1.780
 2658TIP3    H2 7939   3.601   4.685   1.677
 2659TIP3   OH2 7940   5.837   3.945   5.719
 2659TIP3    H1 7941   5.812   4.002   5.646
 2659TIP3    H2 7942   5.895   3.880   5.680
 2660TIP3   OH2 7943   1.213   1.026   5.347
 2660TIP3    H1 7944   1.134   1.008   5.399
 2660TIP3    H2 7945   1.195   1.110   5.305
 2661TIP3   OH2 7946   3.457   0.139   0.618
 2661TIP3    H1 7947   3.469   0.097   0.703
 2661TIP3    H2 7948   3.395   0.083   0.572
 2662TIP3   OH2 7949   3.378   3.573   2.377
 2662TIP3    H1 7950   3.390   3.567   2.282
 2662TIP3    H2 7951   3.283   3.584   2.388
 2663TIP3   OH2 7952   4.558   4.910   3.362
 2663TIP3    H1 7953   4.621   4.921   3.292
 2663TIP3    H2 7954   4.488   4.856   3.324
 2664TIP3   OH2 7955   1.767   5.541   2.108
 2664TIP3    H1 7956   1.837   5.575   2.054
 2664TIP3    H2 7957   1.776   5.446   2.103
 2665TIP3   OH2 7958   2.914   0.865   5.195
 2665TIP3    H1 7959   2.932   0.795   5.132
 2665TIP3    H2 7960   2.903   0.944   5.142
 2666TIP3   OH2 7961   1.484   5.882   0.277
 2666TIP3    H1 7962   1.525   5.815   0.222
 2666TIP3    H2 7963   1.542   5.889   0.353
 2667TIP3   OH2 7964   4.727   0.153   2.364
 2667TIP3    H1 7965   4.669   0.147   2.288
 2667TIP3    H2 7966   4.752   0.245   2.367
 2668TIP3   OH2 7967   2.029   0.356   2.448
 2668TIP3    H1 7968   2.024   0.382   2.540
 2668TIP3    H2 7969   2.087   0.280   2.447
 2669TIP3   OH2 7970   0.222   3.508   1.588
 2669TIP3    H1 7971   0.276   3.507   1.667
 2669TIP3    H2 7972   0.272   3.558   1.525
 2670TIP3   OH2 7973   0.609   6.370   1.918
 2670TIP3    H1 7974   0.698   6.337   1.934
 2670TIP3    H2 7975   0.613   6.405   1.828
 2671TIP3   OH2 7976   6.925   1.857   3.242
 2671TIP3    H1 7977   6.951   1.765   3.244
 2671TIP3    H2 7978   6.843   1.858   3.194
 2672TIP3   OH2 7979   6.545   2.363   5.806
 2672TIP3    H1 7980   6.473   2.356   5.743
 2672TIP3    H2 7981   6.625   2.357   5.752
 2673TIP3   OH2 7982   1.447   3.909   0.131
 2673TIP3    H1 7983   1.448   3.841   0.199
 2673TIP3    H2 7984   1.434   3.860   0.049
 2674TIP3   OH2 7985   6.353   4.168   0.854
 2674TIP3    H1 7986   6.398   4.087   0.881
 2674TIP3    H2 7987   6.373   4.231   0.923
 2675TIP3   OH2 7988   0.391   2.190   2.955
 2675TIP3    H1 7989   0.369   2.208   2.863
 2675TIP3    H2 7990   0.401   2.277   2.994
 2676TIP3   OH2 7991   7.228   6.146   0.818
 2676TIP3    H1 7992   7.309   6.158   0.866
 2676TIP3    H2 7993   7.211   6.052   0.822
 2677TIP3   OH2 7994   3.422   3.012   5.119
 2677TIP3    H1 7995   3.401   2.921   5.139
 2677TIP3    H2 7996   3.388   3.061   5.194
 2678TIP3   OH2 7997   1.294   0.143   1.554
 2678TIP3    H1 7998   1.358   0.100   1.497
 2678TIP3    H2 7999   1.287   0.086   1.630
 2679TIP3   OH2 8000   2.970   6.392   0.598
 2679TIP3    H1 8001   2.986   6.421   0.688
 2679TIP3    H2 8002   3.057   6.386   0.559
 2680TIP3   OH2 8003   0.127   5.569   0.841
 2680TIP3    H1 8004   0.131   5.482   0.802
 2680TIP3    H2 8005   0.036   5.596   0.833
 2681TIP3   OH2 8006   3.789   2.990   1.107
 2681TIP3    H1 8007   3.734   2.954   1.037
 2681TIP3    H2 8008   3.726   3.022   1.172
 2682TIP3   OH2 8009  -0.049   2.076   0.375
 2682TIP3    H1 8010  -0.096   2.074   0.292
 2682TIP3    H2 8011   0.014   2.004   0.369
 2683TIP3   OH2 8012   3.036   4.269   0.825
 2683TIP3    H1 8013   3.031   4.299   0.735
 2683TIP3    H2 8014   3.106   4.204   0.825
 2684TIP3   OH2 8015   3.131   6.687   3.215
 2684TIP3    H1 8016   3.178   6.666   3.296
 2684TIP3    H2 8017   3.175   6.765   3.182
 2685TIP3   OH2 8018   2.163   3.233   5.903
 2685TIP3    H1 8019   2.257   3.238   5.887
 2685TIP3    H2 8020   2.139   3.319   5.936
 2686TIP3   OH2 8021   0.114   2.658   5.590
 2686TIP3    H1 8022   0.067   2.609   5.523
 2686TIP3    H2 8023   0.139   2.740   5.548
 2687TIP3   OH2 8024   5.710   3.858   2.369
 2687TIP3    H1 8025   5.780   3.793   2.358
 2687TIP3    H2 8026   5.632   3.816   2.333
 2688TIP3   OH2 8027   1.772   0.192   2.200
 2688TIP3    H1 8028   1.821   0.187   2.118
 2688TIP3    H2 8029   1.723   0.274   2.194
 2689TIP3   OH2 8030   5.698   4.511   4.323
 2689TIP3    H1 8031   5.709   4.520   4.417
 2689TIP3    H2 8032   5.787   4.522   4.288
 2690TIP3   OH2 8033   3.359   5.022   2.394
 2690TIP3    H1 8034   3.388   5.113   2.397
 2690TIP3    H2 8035   3.434   4.974   2.358
 2691TIP3   OH2 8036   2.942   1.393   0.232
 2691TIP3    H1 8037   3.015   1.453   0.241
 2691TIP3    H2 8038   2.921   1.367   0.322
 2692TIP3   OH2 8039   5.597   6.567   2.003
 2692TIP3    H1 8040   5.534   6.632   1.971
 2692TIP3    H2 8041   5.543   6.495   2.035
 2693TIP3   OH2 8042   6.920   2.660   1.017
 2693TIP3    H1 8043   6.998   2.657   1.073
 2693TIP3    H2 8044   6.916   2.573   0.978
 2694TIP3   OH2 8045   3.176   3.406   2.049
 2694TIP3    H1 8046   3.227   3.326   2.061
 2694TIP3    H2 8047   3.086   3.376   2.039
 2695TIP3   OH2 8048   0.301   1.552   2.661
 2695TIP3    H1 8049   0.333   1.588   2.578
 2695TIP3    H2 8050   0.217   1.512   2.639
 2696TIP3   OH2 8051   7.031   6.073   5.446
 2696TIP3    H1 8052   6.961   6.135   5.468
 2696TIP3    H2 8053   7.088   6.121   5.387
 2697TIP3   OH2 8054   4.848   0.806   4.300
 2697TIP3    H1 8055   4.850   0.749   4.223
 2697TIP3    H2 8056   4.771   0.861   4.287
 2698TIP3   OH2 8057   3.501   5.533   1.791
 2698TIP3    H1 8058   3.457   5.451   1.770
 2698TIP3    H2 8059   3.586   5.506   1.826
 2699TIP3   OH2 8060   2.507   3.666   1.170
 2699TIP3    H1 8061   2.543   3.722   1.239
 2699TIP3    H2 8062   2.414   3.657   1.192
 2700TIP3   OH2 8063   2.243   2.957   5.664
 2700TIP3    H1 8064   2.248   2.905   5.745
 2700TIP3    H2 8065   2.327   3.002   5.659
 2701TIP3   OH2 8066   5.210   6.744   2.031
 2701TIP3    H1 8067   5.275   6.739   1.962
 2701TIP3    H2 8068   5.214   6.834   2.064
 2702TIP3   OH2 8069   6.658   3.323   4.551
 2702TIP3    H1 8070   6.598   3.284   4.488
 2702TIP3    H2 8071   6.609   3.395   4.590
 2703TIP3   OH2 8072   1.827   5.081   2.560
 2703TIP3    H1 8073   1.847   5.173   2.574
 2703TIP3    H2 8074   1.884   5.035   2.622
 2704TIP3   OH2 8075   0.493   0.607   5.220
 2704TIP3    H1 8076   0.514   0.643   5.307
 2704TIP3    H2 8077   0.549   0.655   5.160
 2705TIP3   OH2 8078   2.944   0.956   3.918
 2705TIP3    H1 8079   2.960   0.863   3.905
 2705TIP3    H2 8080   2.849   0.966   3.911
 2706TIP3   OH2 8081   4.293   5.311   0.438
 2706TIP3    H1 8082   4.306   5.335   0.530
 2706TIP3    H2 8083   4.233   5.377   0.404
 2707TIP3   OH2 8084   6.147   2.871   2.537
 2707TIP3    H1 8085   6.102   2.909   2.461
 2707TIP3    H2 8086   6.133   2.777   2.529
 2708TIP3   OH2 8087   1.533   3.145   4.086
 2708TIP3    H1 8088   1.472   3.085   4.131
 2708TIP3    H2 8089   1.513   3.132   3.993
 2709TIP3   OH2 8090   4.914   6.085   1.585
 2709TIP3    H1 8091   4.878   6.159   1.634
 2709TIP3    H2 8092   4.945   6.124   1.503
 2710TIP3   OH2 8093   6.872   2.331   4.330
 2710TIP3    H1 8094   6.827   2.303   4.251
 2710TIP3    H2 8095   6.965   2.316   4.312
 2711TIP3   OH2 8096   6.395   3.882   0.071
 2711TIP3    H1 8097   6.381   3.918  -0.017
 2711TIP3    H2 8098   6.426   3.956   0.123
 2712TIP3   OH2 8099   4.133   0.398   3.043
 2712TIP3    H1 8100   4.078   0.400   3.121
 2712TIP3    H2 8101   4.223   0.393   3.077
 2713TIP3   OH2 8102   0.187   0.706   0.242
 2713TIP3    H1 8103   0.249   0.775   0.268
 2713TIP3    H2 8104   0.175   0.654   0.322
 2714TIP3   OH2 8105   3.935   4.111   3.782
 2714TIP3    H1 8106   3.869   4.052   3.819
 2714TIP3    H2 8107   3.918   4.110   3.688
 2715TIP3   OH2 8108   4.125   2.584   0.818
 2715TIP3    H1 8109   4.105   2.614   0.907
 2715TIP3    H2 8110   4.088   2.495   0.814
 2716TIP3   OH2 8111   6.620   3.862   5.191
 2716TIP3    H1 8112   6.598   3.769   5.184
 2716TIP3    H2 8113   6.540   3.907   5.164
 2717TIP3   OH2 8114   0.719   4.454   4.428
 2717TIP3    H1 8115   0.735   4.441   4.521
 2717TIP3    H2 8116   0.779   4.524   4.403
 2718TIP3   OH2 8117   5.842   6.625   0.340
 2718TIP3    H1 8118   5.899   6.556   0.305
 2718TIP3    H2 8119   5.767   6.625   0.281
 2719TIP3   OH2 8120   3.310   5.284   2.630
 2719TIP3    H1 8121   3.239   5.347   2.616
 2719TIP3    H2 8122   3.354   5.277   2.545
 2720TIP3   OH2 8123   0.047   0.454   1.405
 2720TIP3    H1 8124   0.043   0.488   1.494
 2720TIP3    H2 8125   0.122   0.394   1.406
 2721TIP3   OH2 8126   3.549   6.661   3.044
 2721TIP3    H1 8127   3.491   6.729   3.011
 2721TIP3    H2 8128   3.568   6.687   3.134
 2722TIP3   OH2 8129   2.398   3.907   4.406
 2722TIP3    H1 8130   2.347   3.979   4.371
 2722TIP3    H2 8131   2.464   3.889   4.339
 2723TIP3   OH2 8132   3.433   6.593   1.547
 2723TIP3    H1 8133   3.510   6.568   1.496
 2723TIP3    H2 8134   3.468   6.624   1.630
 2724TIP3   OH2 8135   1.002   3.574   0.211
 2724TIP3    H1 8136   0.983   3.517   0.136
 2724TIP3    H2 8137   1.076   3.531   0.255
 2725TIP3   OH2 8138   6.145   6.397   4.079
 2725TIP3    H1 8139   6.139   6.316   4.129
 2725TIP3    H2 8140   6.210   6.379   4.011
 2726TIP3   OH2 8141   4.487   5.177   0.026
 2726TIP3    H1 8142   4.493   5.191  -0.069
 2726TIP3    H2 8143   4.463   5.263   0.061
 2727TIP3   OH2 8144   1.404   4.909   1.012
 2727TIP3    H1 8145   1.381   4.984   0.957
 2727TIP3    H2 8146   1.366   4.833   0.968
 2728TIP3   OH2 8147   0.626   5.832   0.388
 2728TIP3    H1 8148   0.592   5.899   0.329
 2728TIP3    H2 8149   0.721   5.843   0.384
 2729TIP3   OH2 8150   1.016   3.012   3.053
 2729TIP3    H1 8151   1.076   2.961   3.108
 2729TIP3    H2 8152   1.023   3.101   3.086
 2730TIP3   OH2 8153   4.118   5.664   3.554
 2730TIP3    H1 8154   4.024   5.648   3.539
 2730TIP3    H2 8155   4.158   5.578   3.545
 2731TIP3   OH2 8156   4.858   4.989   1.631
 2731TIP3    H1 8157   4.938   5.040   1.643
 2731TIP3    H2 8158   4.802   5.043   1.576
 2732TIP3   OH2 8159   6.417   1.432   3.418
 2732TIP3    H1 8160   6.379   1.488   3.351
 2732TIP3    H2 8161   6.465   1.492   3.475
 2733TIP3   OH2 8162   5.199   1.444   1.914
 2733TIP3    H1 8163   5.163   1.495   1.842
 2733TIP3    H2 8164   5.228   1.362   1.874
 2734TIP3   OH2 8165   4.730   1.942   2.979
 2734TIP3    H1 8166   4.786   1.939   3.057
 2734TIP3    H2 8167   4.687   2.027   2.984
 2735TIP3   OH2 8168   0.204   6.355   3.241
 2735TIP3    H1 8169   0.114   6.364   3.210
 2735TIP3    H2 8170   0.256   6.341   3.162
 2736TIP3   OH2 8171   4.098   4.486   1.519
 2736TIP3    H1 8172   4.121   4.577   1.538
 2736TIP3    H2 8173   4.004   4.488   1.503
 2737TIP3   OH2 8174   0.782   5.390   2.958
 2737TIP3    H1 8175   0.836   5.320   2.922
 2737TIP3    H2 8176   0.692   5.355   2.955
 2738TIP3   OH2 8177   3.309   5.429   5.229
 2738TIP3    H1 8178   3.348   5.483   5.160
 2738TIP3    H2 8179   3.364   5.444   5.306
 2739TIP3   OH2 8180   2.383   1.511   1.767
 2739TIP3    H1 8181   2.473   1.540   1.782
 2739TIP3    H2 8182   2.373   1.515   1.672
 2740TIP3   OH2 8183   1.893  -0.004   4.264
 2740TIP3    H1 8184   1.881   0.050   4.343
 2740TIP3    H2 8185   1.975   0.028   4.226
 2741TIP3   OH2 8186   2.843   3.599   1.943
 2741TIP3    H1 8187   2.877   3.517   1.980
 2741TIP3    H2 8188   2.765   3.572   1.895
 2742TIP3   OH2 8189   3.156   3.578   1.323
 2742TIP3    H1 8190   3.120   3.616   1.402
 2742TIP3    H2 8191   3.131   3.485   1.328
 2743TIP3   OH2 8192   0.226   1.997   2.286
 2743TIP3    H1 8193   0.254   2.040   2.367
 2743TIP3    H2 8194   0.145   2.042   2.262
 2744TIP3   OH2 8195   4.788   5.786   1.038
 2744TIP3    H1 8196   4.844   5.811   1.111
 2744TIP3    H2 8197   4.782   5.865   0.984
 2745TIP3   OH2 8198   4.366   1.362   2.962
 2745TIP3    H1 8199   4.328   1.283   2.924
 2745TIP3    H2 8200   4.376   1.342   3.055
 2746TIP3   OH2 8201   5.570   3.935   2.040
 2746TIP3    H1 8202   5.521   3.999   1.989
 2746TIP3    H2 8203   5.659   3.939   2.005
 2747TIP3   OH2 8204   6.029   3.548   3.802
 2747TIP3    H1 8205   5.964   3.537   3.871
 2747TIP3    H2 8206   5.991   3.502   3.726
 2748TIP3   OH2 8207   1.416   2.031   1.192
 2748TIP3    H1 8208   1.420   2.124   1.213
 2748TIP3    H2 8209   1.489   2.016   1.132
 2749TIP3   OH2 8210   0.146   0.908   4.316
 2749TIP3    H1 8211   0.099   0.827   4.338
 2749TIP3    H2 8212   0.230   0.900   4.360
 2750TIP3   OH2 8213   0.287   4.586   1.986
 2750TIP3    H1 8214   0.316   4.658   1.930
 2750TIP3    H2 8215   0.291   4.509   1.930
 2751TIP3   OH2 8216   4.207   0.332   0.603
 2751TIP3    H1 8217   4.200   0.424   0.577
 2751TIP3    H2 8218   4.207   0.334   0.699
 2752TIP3   OH2 8219   5.908   6.136   1.664
 2752TIP3    H1 8220   5.925   6.112   1.755
 2752TIP3    H2 8221   5.979   6.096   1.614
 2753TIP3   OH2 8222   4.060   2.307   0.837
 2753TIP3    H1 8223   4.114   2.267   0.905
 2753TIP3    H2 8224   4.017   2.233   0.795
 2754TIP3   OH2 8225   7.142   0.345   5.840
 2754TIP3    H1 8226   7.220   0.362   5.787
 2754TIP3    H2 8227   7.137   0.419   5.900
 2755TIP3   OH2 8228   3.686   0.973   0.425
 2755TIP3    H1 8229   3.690   0.976   0.329
 2755TIP3    H2 8230   3.739   1.048   0.452
 2756TIP3   OH2 8231   5.483   3.525   4.306
 2756TIP3    H1 8232   5.492   3.572   4.388
 2756TIP3    H2 8233   5.391   3.536   4.282
 2757TIP3   OH2 8234   1.416   6.197   3.633
 2757TIP3    H1 8235   1.504   6.223   3.659
 2757TIP3    H2 8236   1.358   6.258   3.679
 2758TIP3   OH2 8237   1.542   0.752   3.723
 2758TIP3    H1 8238   1.618   0.703   3.690
 2758TIP3    H2 8239   1.538   0.829   3.667
 2759TIP3   OH2 8240   2.922   2.576   2.821
 2759TIP3    H1 8241   2.973   2.495   2.819
 2759TIP3    H2 8242   2.903   2.595   2.729
 2760TIP3   OH2 8243   3.232   2.379   1.184
 2760TIP3    H1 8244   3.309   2.400   1.237
 2760TIP3    H2 8245   3.249   2.290   1.152
 2761TIP3   OH2 8246   3.364   1.755   3.031
 2761TIP3    H1 8247   3.420   1.829   3.010
 2761TIP3    H2 8248   3.391   1.729   3.119
 2762TIP3   OH2 8249   0.072   0.643   0.802
 2762TIP3    H1 8250   0.141   0.580   0.782
 2762TIP3    H2 8251   0.090   0.669   0.893
 2763TIP3   OH2 8252   3.590   5.114   1.599
 2763TIP3    H1 8253   3.646   5.182   1.561
 2763TIP3    H2 8254   3.531   5.090   1.528
 2764TIP3   OH2 8255   2.087   0.856   0.406
 2764TIP3    H1 8256   1.994   0.834   0.410
 2764TIP3    H2 8257   2.122   0.802   0.335
 2765TIP3   OH2 8258   2.650   3.777   0.770
 2765TIP3    H1 8259   2.593   3.815   0.837
 2765TIP3    H2 8260   2.734   3.768   0.814
 2766TIP3   OH2 8261   5.994   0.223   5.627
 2766TIP3    H1 8262   5.945   0.145   5.602
 2766TIP3    H2 8263   6.015   0.210   5.720
 2767TIP3   OH2 8264   4.219   5.941   1.616
 2767TIP3    H1 8265   4.139   5.993   1.605
 2767TIP3    H2 8266   4.228   5.893   1.534
 2768TIP3   OH2 8267   1.209   2.368   1.971
 2768TIP3    H1 8268   1.165   2.376   2.055
 2768TIP3    H2 8269   1.169   2.435   1.916
 2769TIP3   OH2 8270   6.171   5.243   5.016
 2769TIP3    H1 8271   6.224   5.178   4.972
 2769TIP3    H2 8272   6.201   5.327   4.981
 2770TIP3   OH2 8273   2.113   2.875   0.127
 2770TIP3    H1 8274   2.088   2.786   0.149
 2770TIP3    H2 8275   2.045   2.905   0.067
 2771TIP3   OH2 8276   6.377   5.789   0.837
 2771TIP3    H1 8277   6.306   5.803   0.775
 2771TIP3    H2 8278   6.422   5.873   0.842
 2772TIP3   OH2 8279   7.122   2.312   0.196
 2772TIP3    H1 8280   7.117   2.403   0.166
 2772TIP3    H2 8281   7.147   2.262   0.118
 2773TIP3   OH2 8282   2.594   4.256   3.381
 2773TIP3    H1 8283   2.564   4.328   3.327
 2773TIP3    H2 8284   2.542   4.263   3.461
 2774TIP3   OH2 8285   5.231   1.825   1.776
 2774TIP3    H1 8286   5.211   1.916   1.754
 2774TIP3    H2 8287   5.164   1.774   1.730
 2775TIP3   OH2 8288   2.187   1.998   3.186
 2775TIP3    H1 8289   2.104   1.949   3.186
 2775TIP3    H2 8290   2.250   1.936   3.223
 2776TIP3   OH2 8291   5.833   1.196   3.607
 2776TIP3    H1 8292   5.925   1.176   3.586
 2776TIP3    H2 8293   5.824   1.172   3.699
 2777TIP3   OH2 8294   2.687   0.605   5.772
 2777TIP3    H1 8295   2.727   0.543   5.710
 2777TIP3    H2 8296   2.609   0.560   5.804
 2778TIP3   OH2 8297   5.559   0.947   2.778
 2778TIP3    H1 8298   5.613   1.010   2.731
 2778TIP3    H2 8299   5.617   0.909   2.843
 2779TIP3   OH2 8300   1.232   5.956   2.676
 2779TIP3    H1 8301   1.141   5.980   2.656
 2779TIP3    H2 8302   1.226   5.869   2.713
 2780TIP3   OH2 8303   6.633   4.334   2.314
 2780TIP3    H1 8304   6.656   4.421   2.280
 2780TIP3    H2 8305   6.540   4.340   2.335
 2781TIP3   OH2 8306   1.108   5.704   2.425
 2781TIP3    H1 8307   1.104   5.652   2.505
 2781TIP3    H2 8308   1.201   5.715   2.408
 2782TIP3   OH2 8309   3.750   1.602   3.435
 2782TIP3    H1 8310   3.747   1.523   3.380
 2782TIP3    H2 8311   3.666   1.645   3.420
 2783TIP3   OH2 8312   4.495   2.035   5.581
 2783TIP3    H1 8313   4.519   2.080   5.501
 2783TIP3    H2 8314   4.471   2.105   5.642
 2784TIP3   OH2 8315   2.919   2.837   5.055
 2784TIP3    H1 8316   2.926   2.929   5.080
 2784TIP3    H2 8317   2.889   2.839   4.964
 2785TIP3   OH2 8318   4.070   5.378   5.764
 2785TIP3    H1 8319   4.085   5.283   5.763
 2785TIP3    H2 8320   4.028   5.396   5.681
 2786TIP3   OH2 8321   1.359   3.711   1.880
 2786TIP3    H1 8322   1.425   3.652   1.843
 2786TIP3    H2 8323   1.397   3.742   1.962
 2787TIP3   OH2 8324   0.761   1.562   4.076
 2787TIP3    H1 8325   0.692   1.611   4.031
 2787TIP3    H2 8326   0.736   1.563   4.168
 2788TIP3   OH2 8327   1.019   3.294   3.025
 2788TIP3    H1 8328   1.115   3.298   3.027
 2788TIP3    H2 8329   0.993   3.318   3.114
 2789TIP3   OH2 8330   3.610   5.790   1.249
 2789TIP3    H1 8331   3.537   5.791   1.311
 2789TIP3    H2 8332   3.627   5.883   1.231
 2790TIP3   OH2 8333   2.878   5.985   3.210
 2790TIP3    H1 8334   2.913   6.063   3.254
 2790TIP3    H2 8335   2.914   5.989   3.122
 2791TIP3   OH2 8336   2.840   1.892   0.924
 2791TIP3    H1 8337   2.879   1.962   0.870
 2791TIP3    H2 8338   2.747   1.912   0.925
 2792TIP3   OH2 8339   0.121   4.841   4.391
 2792TIP3    H1 8340   0.161   4.920   4.354
 2792TIP3    H2 8341   0.116   4.780   4.317
 2793TIP3   OH2 8342   1.936   6.379   2.731
 2793TIP3    H1 8343   1.885   6.335   2.799
 2793TIP3    H2 8344   2.014   6.411   2.777
 2794TIP3   OH2 8345   6.214   5.517   1.610
 2794TIP3    H1 8346   6.141   5.540   1.668
 2794TIP3    H2 8347   6.199   5.569   1.531
 2795TIP3   OH2 8348   3.207   2.393   5.453
 2795TIP3    H1 8349   3.143   2.423   5.517
 2795TIP3    H2 8350   3.201   2.297   5.457
 2796TIP3   OH2 8351   4.517   4.049   1.682
 2796TIP3    H1 8352   4.461   4.002   1.743
 2796TIP3    H2 8353   4.465   4.125   1.655
 2797TIP3   OH2 8354   6.820   3.676   4.849
 2797TIP3    H1 8355   6.819   3.583   4.873
 2797TIP3    H2 8356   6.818   3.723   4.932
 2798TIP3   OH2 8357   6.679   2.306   5.363
 2798TIP3    H1 8358   6.686   2.401   5.366
 2798TIP3    H2 8359   6.589   2.289   5.334
 2799TIP3   OH2 8360   4.347   1.831   4.819
 2799TIP3    H1 8361   4.285   1.828   4.746
 2799TIP3    H2 8362   4.332   1.916   4.860
 2800TIP3   OH2 8363   3.281   1.498   5.601
 2800TIP3    H1 8364   3.236   1.423   5.638
 2800TIP3    H2 8365   3.352   1.461   5.549
 2801TIP3   OH2 8366   3.202   3.806   5.558
 2801TIP3    H1 8367   3.152   3.807   5.476
 2801TIP3    H2 8368   3.291   3.782   5.533
 2802TIP3   OH2 8369   4.541   0.255   3.177
 2802TIP3    H1 8370   4.507   0.169   3.151
 2802TIP3    H2 8371   4.511   0.315   3.109
 2803TIP3   OH2 8372   3.223   0.895   2.872
 2803TIP3    H1 8373   3.156   0.928   2.932
 2803TIP3    H2 8374   3.184   0.816   2.834
 2804TIP3   OH2 8375   0.466   3.029   4.200
 2804TIP3    H1 8376   0.372   3.014   4.201
 2804TIP3    H2 8377   0.492   3.024   4.292
 2805TIP3   OH2 8378   6.260   1.131   4.535
 2805TIP3    H1 8379   6.241   1.111   4.444
 2805TIP3    H2 8380   6.180   1.107   4.582
 2806TIP3   OH2 8381   1.552   5.697   1.268
 2806TIP3    H1 8382   1.549   5.793   1.271
 2806TIP3    H2 8383   1.637   5.677   1.231
 2807TIP3   OH2 8384   6.898   3.785   3.130
 2807TIP3    H1 8385   6.973   3.842   3.114
 2807TIP3    H2 8386   6.929   3.722   3.194
 2808TIP3   OH2 8387   3.471   1.547   4.314
 2808TIP3    H1 8388   3.456   1.455   4.295
 2808TIP3    H2 8389   3.388   1.590   4.292
 2809TIP3   OH2 8390   5.210   1.766   4.628
 2809TIP3    H1 8391   5.152   1.836   4.661
 2809TIP3    H2 8392   5.193   1.692   4.686
 2810TIP3   OH2 8393   6.682   3.597   3.163
 2810TIP3    H1 8394   6.735   3.677   3.161
 2810TIP3    H2 8395   6.643   3.591   3.076
 2811TIP3   OH2 8396   1.051   3.083   5.140
 2811TIP3    H1 8397   0.998   3.162   5.134
 2811TIP3    H2 8398   1.086   3.071   5.052
 2812TIP3   OH2 8399   2.021   0.202   0.329
 2812TIP3    H1 8400   2.078   0.194   0.406
 2812TIP3    H2 8401   2.043   0.126   0.275
 2813TIP3   OH2 8402   1.467   6.492   1.168
 2813TIP3    H1 8403   1.401   6.558   1.186
 2813TIP3    H2 8404   1.419   6.409   1.170
 2814TIP3   OH2 8405   0.806   0.170   1.232
 2814TIP3    H1 8406   0.718   0.148   1.263
 2814TIP3    H2 8407   0.833   0.243   1.288
 2815TIP3   OH2 8408   2.463   1.903   1.252
 2815TIP3    H1 8409   2.437   1.823   1.299
 2815TIP3    H2 8410   2.509   1.956   1.316
 2816TIP3   OH2 8411   1.972   4.405   3.636
 2816TIP3    H1 8412   1.971   4.500   3.643
 2816TIP3    H2 8413   1.881   4.381   3.621
 2817TIP3   OH2 8414   1.006   2.894   3.361
 2817TIP3    H1 8415   0.959   2.966   3.403
 2817TIP3    H2 8416   0.941   2.854   3.303
 2818TIP3   OH2 8417   5.525   2.823   0.037
 2818TIP3    H1 8418   5.598   2.784   0.085
 2818TIP3    H2 8419   5.516   2.911   0.074
 2819TIP3   OH2 8420   6.688   5.523   3.791
 2819TIP3    H1 8421   6.609   5.474   3.817
 2819TIP3    H2 8422   6.725   5.471   3.720
 2820TIP3   OH2 8423   0.807   6.057   1.859
 2820TIP3    H1 8424   0.725   6.029   1.899
 2820TIP3    H2 8425   0.782   6.090   1.773
 2821TIP3   OH2 8426   1.395   5.676   3.754
 2821TIP3    H1 8427   1.311   5.651   3.718
 2821TIP3    H2 8428   1.380   5.763   3.792
 2822TIP3   OH2 8429   1.863   5.181   3.318
 2822TIP3    H1 8430   1.799   5.126   3.363
 2822TIP3    H2 8431   1.871   5.259   3.372
 2823TIP3   OH2 8432   3.489   0.253   3.826
 2823TIP3    H1 8433   3.430   0.327   3.814
 2823TIP3    H2 8434   3.451   0.204   3.899
 2824TIP3   OH2 8435   1.959   4.471   1.294
 2824TIP3    H1 8436   1.956   4.566   1.286
 2824TIP3    H2 8437   1.997   4.442   1.211
 2825TIP3   OH2 8438   4.434   6.430   0.858
 2825TIP3    H1 8439   4.527   6.412   0.845
 2825TIP3    H2 8440   4.432   6.500   0.923
 2826TIP3   OH2 8441   4.159   1.448   4.672
 2826TIP3    H1 8442   4.172   1.370   4.617
 2826TIP3    H2 8443   4.240   1.456   4.720
 2827TIP3   OH2 8444   2.543   3.168   0.563
 2827TIP3    H1 8445   2.629   3.189   0.527
 2827TIP3    H2 8446   2.506   3.103   0.504
 2828TIP3   OH2 8447   0.616   2.932   3.190
 2828TIP3    H1 8448   0.682   2.866   3.167
 2828TIP3    H2 8449   0.561   2.888   3.254
 2829TIP3   OH2 8450   3.549   4.133   0.105
 2829TIP3    H1 8451   3.525   4.183   0.183
 2829TIP3    H2 8452   3.514   4.045   0.122
 2830TIP3   OH2 8453   3.799   4.298   0.245
 2830TIP3    H1 8454   3.755   4.368   0.197
 2830TIP3    H2 8455   3.730   4.236   0.268
 2831TIP3   OH2 8456   5.160   6.691   4.942
 2831TIP3    H1 8457   5.163   6.772   4.993
 2831TIP3    H2 8458   5.251   6.665   4.933
 2832TIP3   OH2 8459   1.093   2.849   2.746
 2832TIP3    H1 8460   1.012   2.891   2.717
 2832TIP3    H2 8461   1.157   2.872   2.679
 2833TIP3   OH2 8462   5.576   6.504   2.401
 2833TIP3    H1 8463   5.645   6.567   2.380
 2833TIP3    H2 8464   5.494   6.549   2.382
 2834TIP3   OH2 8465   1.542   4.870   1.715
 2834TIP3    H1 8466   1.598   4.936   1.757
 2834TIP3    H2 8467   1.460   4.874   1.765
 2835TIP3   OH2 8468   7.188   1.218   2.390
 2835TIP3    H1 8469   7.228   1.249   2.309
 2835TIP3    H2 8470   7.094   1.216   2.371
 2836TIP3   OH2 8471   7.231   2.023   5.006
 2836TIP3    H1 8472   7.181   1.970   5.068
 2836TIP3    H2 8473   7.172   2.095   4.984
 2837TIP3   OH2 8474   3.864   4.828   1.321
 2837TIP3    H1 8475   3.772   4.854   1.316
 2837TIP3    H2 8476   3.912   4.911   1.331
 2838TIP3   OH2 8477   6.859   3.668   4.440
 2838TIP3    H1 8478   6.846   3.735   4.507
 2838TIP3    H2 8479   6.906   3.713   4.369
 2839TIP3   OH2 8480   3.855   4.925   0.644
 2839TIP3    H1 8481   3.857   5.018   0.665
 2839TIP3    H2 8482   3.807   4.920   0.561
 2840TIP3   OH2 8483   3.455   3.157   2.718
 2840TIP3    H1 8484   3.461   3.133   2.810
 2840TIP3    H2 8485   3.377   3.112   2.687
 2841TIP3   OH2 8486   5.806   1.141   4.208
 2841TIP3    H1 8487   5.885   1.087   4.198
 2841TIP3    H2 8488   5.838   1.230   4.219
 2842TIP3   OH2 8489   4.915   2.342   5.708
 2842TIP3    H1 8490   4.999   2.384   5.723
 2842TIP3    H2 8491   4.925   2.295   5.625
 2843TIP3   OH2 8492   2.121   4.147   0.765
 2843TIP3    H1 8493   2.085   4.168   0.679
 2843TIP3    H2 8494   2.105   4.053   0.775
 2844TIP3   OH2 8495   5.284   1.125   0.467
 2844TIP3    H1 8496   5.349   1.140   0.398
 2844TIP3    H2 8497   5.295   1.033   0.490
 2845TIP3   OH2 8498   3.442   6.182   3.332
 2845TIP3    H1 8499   3.495   6.157   3.257
 2845TIP3    H2 8500   3.364   6.221   3.294
 2846TIP3   OH2 8501   3.399   3.283   3.373
 2846TIP3    H1 8502   3.345   3.208   3.398
 2846TIP3    H2 8503   3.459   3.296   3.447
 2847TIP3   OH2 8504   1.264   0.411   2.981
 2847TIP3    H1 8505   1.238   0.504   2.985
 2847TIP3    H2 8506   1.190   0.367   2.940
 2848TIP3   OH2 8507   6.933   3.322   4.659
 2848TIP3    H1 8508   7.004   3.386   4.649
 2848TIP3    H2 8509   6.853   3.373   4.647
 2849TIP3   OH2 8510   2.015   3.517   4.111
 2849TIP3    H1 8511   2.036   3.439   4.060
 2849TIP3    H2 8512   1.934   3.551   4.072
 2850TIP3   OH2 8513   1.022   4.601   2.745
 2850TIP3    H1 8514   1.026   4.507   2.727
 2850TIP3    H2 8515   1.102   4.636   2.706
 2851TIP3   OH2 8516   0.207   6.016   5.401
 2851TIP3    H1 8517   0.136   6.080   5.395
 2851TIP3    H2 8518   0.287   6.068   5.390
 2852TIP3   OH2 8519   2.521   4.433   0.061
 2852TIP3    H1 8520   2.455   4.491   0.023
 2852TIP3    H2 8521   2.579   4.491   0.110
 2853TIP3   OH2 8522   0.512   0.232   1.612
 2853TIP3    H1 8523   0.507   0.171   1.686
 2853TIP3    H2 8524   0.569   0.303   1.642
 2854TIP3   OH2 8525   5.842   0.810   5.704
 2854TIP3    H1 8526   5.889   0.827   5.785
 2854TIP3    H2 8527   5.777   0.880   5.699
 2855TIP3   OH2 8528   5.072   4.244   3.981
 2855TIP3    H1 8529   4.977   4.257   3.983
 2855TIP3    H2 8530   5.095   4.213   4.068
 2856TIP3   OH2 8531   1.188   2.111   5.637
 2856TIP3    H1 8532   1.223   2.182   5.582
 2856TIP3    H2 8533   1.103   2.091   5.599
 2857TIP3   OH2 8534   1.950   0.492   2.214
 2857TIP3    H1 8535   1.995   0.458   2.291
 2857TIP3    H2 8536   2.002   0.462   2.140
 2858TIP3   OH2 8537   2.472   6.152   4.738
 2858TIP3    H1 8538   2.548   6.209   4.747
 2858TIP3    H2 8539   2.420   6.169   4.817
 2859TIP3   OH2 8540   0.423   2.692   0.816
 2859TIP3    H1 8541   0.410   2.771   0.868
 2859TIP3    H2 8542   0.474   2.721   0.741
 2860TIP3   OH2 8543   6.803   0.800   0.250
 2860TIP3    H1 8544   6.721   0.752   0.233
 2860TIP3    H2 8545   6.826   0.777   0.340
 2861TIP3   OH2 8546   3.204   0.281   2.852
 2861TIP3    H1 8547   3.141   0.263   2.922
 2861TIP3    H2 8548   3.151   0.320   2.782
 2862TIP3   OH2 8549   3.301   3.297   3.111
 2862TIP3    H1 8550   3.309   3.309   3.205
 2862TIP3    H2 8551   3.238   3.364   3.083
 2863TIP3   OH2 8552   0.196   1.294   5.752
 2863TIP3    H1 8553   0.270   1.289   5.813
 2863TIP3    H2 8554   0.146   1.371   5.781
 2864TIP3   OH2 8555   2.535   3.335   4.392
 2864TIP3    H1 8556   2.612   3.278   4.396
 2864TIP3    H2 8557   2.504   3.326   4.302
 2865TIP3   OH2 8558   4.279   5.665   1.844
 2865TIP3    H1 8559   4.290   5.571   1.857
 2865TIP3    H2 8560   4.354   5.705   1.889
 2866TIP3   OH2 8561   0.101   6.323   1.337
 2866TIP3    H1 8562   0.022   6.332   1.284
 2866TIP3    H2 8563   0.110   6.229   1.352
 2867TIP3   OH2 8564   1.397   5.976   3.297
 2867TIP3    H1 8565   1.352   5.904   3.254
 2867TIP3    H2 8566   1.412   6.040   3.227
 2868TIP3   OH2 8567   5.582   5.547   1.123
 2868TIP3    H1 8568   5.651   5.484   1.103
 2868TIP3    H2 8569   5.509   5.494   1.153
 2869TIP3   OH2 8570   5.396   6.144   1.286
 2869TIP3    H1 8571   5.363   6.149   1.375
 2869TIP3    H2 8572   5.473   6.088   1.292
 2870TIP3   OH2 8573   7.075   2.586   1.727
 2870TIP3    H1 8574   7.047   2.600   1.636
 2870TIP3    H2 8575   7.024   2.649   1.778
 2871TIP3   OH2 8576   4.886   2.704   3.739
 2871TIP3    H1 8577   4.866   2.686   3.831
 2871TIP3    H2 8578   4.815   2.760   3.709
 2872TIP3   OH2 8579   6.822   3.255   3.874
 2872TIP3    H1 8580   6.836   3.263   3.968
 2872TIP3    H2 8581   6.909   3.268   3.835
 2873TIP3   OH2 8582   5.386   0.999   3.161
 2873TIP3    H1 8583   5.388   1.068   3.227
 2873TIP3    H2 8584   5.408   1.043   3.079
 2874TIP3   OH2 8585   3.885   1.393   4.418
 2874TIP3    H1 8586   3.823   1.433   4.480
 2874TIP3    H2 8587   3.864   1.434   4.334
 2875TIP3   OH2 8588   6.689   6.081   0.508
 2875TIP3    H1 8589   6.656   6.093   0.419
 2875TIP3    H2 8590   6.683   6.169   0.547
 2876TIP3   OH2 8591   1.717   3.684   5.594
 2876TIP3    H1 8592   1.754   3.701   5.507
 2876TIP3    H2 8593   1.760   3.603   5.622
 2877TIP3   OH2 8594   5.918   5.939   2.790
 2877TIP3    H1 8595   5.829   5.911   2.769
 2877TIP3    H2 8596   5.965   5.858   2.808
 2878TIP3   OH2 8597   4.159   4.824   3.202
 2878TIP3    H1 8598   4.175   4.859   3.290
 2878TIP3    H2 8599   4.067   4.798   3.203
 2879TIP3   OH2 8600   2.050   0.748   4.865
 2879TIP3    H1 8601   2.010   0.791   4.790
 2879TIP3    H2 8602   1.978   0.700   4.906
 2880TIP3   OH2 8603   5.204   3.465   4.661
 2880TIP3    H1 8604   5.253   3.416   4.595
 2880TIP3    H2 8605   5.186   3.400   4.730
 2881TIP3   OH2 8606   4.518   5.649   5.611
 2881TIP3    H1 8607   4.463   5.579   5.645
 2881TIP3    H2 8608   4.461   5.726   5.608
 2882TIP3   OH2 8609   1.509   6.657   0.169
 2882TIP3    H1 8610   1.602   6.644   0.190
 2882TIP3    H2 8611   1.464   6.644   0.253
 2883TIP3   OH2 8612   1.755   4.196   5.706
 2883TIP3    H1 8613   1.666   4.162   5.708
 2883TIP3    H2 8614   1.786   4.188   5.797
 2884TIP3   OH2 8615   4.067   6.359   5.688
 2884TIP3    H1 8616   4.079   6.450   5.661
 2884TIP3    H2 8617   3.981   6.335   5.655
 2885TIP3   OH2 8618   3.448   4.658   0.664
 2885TIP3    H1 8619   3.528   4.624   0.624
 2885TIP3    H2 8620   3.478   4.725   0.726
 2886TIP3   OH2 8621   3.397   6.483   4.315
 2886TIP3    H1 8622   3.363   6.528   4.238
 2886TIP3    H2 8623   3.488   6.510   4.320
 2887TIP3   OH2 8624   7.057   3.638   0.343
 2887TIP3    H1 8625   7.055   3.543   0.360
 2887TIP3    H2 8626   7.146   3.664   0.367
 2888TIP3   OH2 8627   3.391   1.936   4.470
 2888TIP3    H1 8628   3.365   2.021   4.506
 2888TIP3    H2 8629   3.309   1.894   4.446
 2889TIP3   OH2 8630   3.267   6.714   3.497
 2889TIP3    H1 8631   3.272   6.755   3.584
 2889TIP3    H2 8632   3.299   6.782   3.437
 2890TIP3   OH2 8633   0.341   6.009   1.636
 2890TIP3    H1 8634   0.410   5.950   1.605
 2890TIP3    H2 8635   0.374   6.045   1.718
 2891TIP3   OH2 8636   6.141   4.127   3.054
 2891TIP3    H1 8637   6.192   4.202   3.086
 2891TIP3    H2 8638   6.059   4.131   3.103
 2892TIP3   OH2 8639   5.621   1.781   0.692
 2892TIP3    H1 8640   5.556   1.850   0.706
 2892TIP3    H2 8641   5.661   1.802   0.608
 2893TIP3   OH2 8642   4.173   2.325   4.310
 2893TIP3    H1 8643   4.267   2.321   4.297
 2893TIP3    H2 8644   4.154   2.256   4.373
 2894TIP3   OH2 8645   6.837   2.637   2.625
 2894TIP3    H1 8646   6.808   2.670   2.540
 2894TIP3    H2 8647   6.892   2.707   2.660
 2895TIP3   OH2 8648   4.621   0.023   2.095
 2895TIP3    H1 8649   4.578   0.107   2.105
 2895TIP3    H2 8650   4.629   0.010   2.001
 2896TIP3   OH2 8651   3.504   0.320   1.015
 2896TIP3    H1 8652   3.415   0.324   1.051
 2896TIP3    H2 8653   3.493   0.338   0.922
 2897TIP3   OH2 8654   5.395   5.974   5.571
 2897TIP3    H1 8655   5.361   6.012   5.490
 2897TIP3    H2 8656   5.488   5.962   5.554
 2898TIP3   OH2 8657   5.681   2.484   4.363
 2898TIP3    H1 8658   5.655   2.560   4.415
 2898TIP3    H2 8659   5.666   2.510   4.272
 2899TIP3   OH2 8660   2.670   3.455   2.640
 2899TIP3    H1 8661   2.622   3.518   2.694
 2899TIP3    H2 8662   2.624   3.372   2.653
 2900TIP3   OH2 8663   1.687   5.049   4.316
 2900TIP3    H1 8664   1.747   5.109   4.359
 2900TIP3    H2 8665   1.742   4.997   4.257
 2901TIP3   OH2 8666   2.952   6.338   2.570
 2901TIP3    H1 8667   3.019   6.386   2.522
 2901TIP3    H2 8668   3.000   6.275   2.624
 2902TIP3   OH2 8669   5.980   6.323   5.779
 2902TIP3    H1 8670   6.032   6.251   5.813
 2902TIP3    H2 8671   5.917   6.342   5.849
 2903TIP3   OH2 8672   0.106   4.638   2.634
 2903TIP3    H1 8673   0.027   4.659   2.684
 2903TIP3    H2 8674   0.158   4.584   2.693
 2904TIP3   OH2 8675   3.637   1.024   2.712
 2904TIP3    H1 8676   3.548   1.008   2.681
 2904TIP3    H2 8677   3.630   1.022   2.808
 2905TIP3   OH2 8678   3.454   0.570   4.787
 2905TIP3    H1 8679   3.368   0.609   4.777
 2905TIP3    H2 8680   3.452   0.530   4.874
 2906TIP3   OH2 8681   2.842   0.214   2.735
 2906TIP3    H1 8682   2.809   0.236   2.822
 2906TIP3    H2 8683   2.885   0.130   2.746
 2907TIP3   OH2 8684   0.462   3.516   2.063
 2907TIP3    H1 8685   0.541   3.523   2.011
 2907TIP3    H2 8686   0.492   3.524   2.154
 2908TIP3   OH2 8687   0.636   4.771   4.945
 2908TIP3    H1 8688   0.611   4.690   4.989
 2908TIP3    H2 8689   0.611   4.840   5.006
 2909TIP3   OH2 8690   6.186   2.097   5.454
 2909TIP3    H1 8691   6.154   2.029   5.395
 2909TIP3    H2 8692   6.262   2.058   5.498
 2910TIP3   OH2 8693   3.594   1.222   0.592
 2910TIP3    H1 8694   3.672   1.264   0.555
 2910TIP3    H2 8695   3.625   1.180   0.672
 2911TIP3   OH2 8696   1.914   1.861   2.873
 2911TIP3    H1 8697   1.986   1.923   2.883
 2911TIP3    H2 8698   1.836   1.915   2.867
 2912TIP3   OH2 8699   1.177   4.651   4.192
 2912TIP3    H1 8700   1.146   4.733   4.154
 2912TIP3    H2 8701   1.270   4.648   4.171
 2913TIP3   OH2 8702   3.894   5.935   5.665
 2913TIP3    H1 8703   3.858   5.923   5.753
 2913TIP3    H2 8704   3.919   5.846   5.638
 2914TIP3   OH2 8705   3.575   0.148   2.992
 2914TIP3    H1 8706   3.510   0.181   3.054
 2914TIP3    H2 8707   3.553   0.191   2.909
 2915TIP3   OH2 8708   6.514   3.073   5.340
 2915TIP3    H1 8709   6.596   3.078   5.291
 2915TIP3    H2 8710   6.476   3.161   5.332
 2916TIP3   OH2 8711   0.979   1.536   2.159
 2916TIP3    H1 8712   1.049   1.476   2.133
 2916TIP3    H2 8713   1.019   1.622   2.159
 2917TIP3   OH2 8714   4.561   4.661   4.262
 2917TIP3    H1 8715   4.511   4.700   4.189
 2917TIP3    H2 8716   4.620   4.599   4.220
 2918TIP3   OH2 8717   5.812   1.307   0.854
 2918TIP3    H1 8718   5.814   1.304   0.950
 2918TIP3    H2 8719   5.882   1.248   0.827
 2919TIP3   OH2 8720   4.569   4.495   0.625
 2919TIP3    H1 8721   4.535   4.405   0.626
 2919TIP3    H2 8722   4.664   4.485   0.620
 2920TIP3   OH2 8723   2.996   2.121   4.001
 2920TIP3    H1 8724   2.943   2.147   3.926
 2920TIP3    H2 8725   3.077   2.172   3.991
 2921TIP3   OH2 8726   1.556   2.531   4.924
 2921TIP3    H1 8727   1.557   2.622   4.953
 2921TIP3    H2 8728   1.464   2.511   4.910
 2922TIP3   OH2 8729   1.087   6.475   5.417
 2922TIP3    H1 8730   1.151   6.471   5.488
 2922TIP3    H2 8731   1.009   6.433   5.453
 2923TIP3   OH2 8732   1.119   1.560   3.641
 2923TIP3    H1 8733   1.162   1.645   3.640
 2923TIP3    H2 8734   1.088   1.550   3.731
 2924TIP3   OH2 8735   2.000   3.467   1.506
 2924TIP3    H1 8736   2.068   3.440   1.568
 2924TIP3    H2 8737   1.983   3.559   1.528
 2925TIP3   OH2 8738   4.097   2.338   3.402
 2925TIP3    H1 8739   4.037   2.338   3.328
 2925TIP3    H2 8740   4.062   2.271   3.461
 2926TIP3   OH2 8741   6.022   5.723   4.647
 2926TIP3    H1 8742   5.991   5.741   4.559
 2926TIP3    H2 8743   5.946   5.690   4.694
 2927TIP3   OH2 8744   7.182   1.623   1.901
 2927TIP3    H1 8745   7.215   1.694   1.955
 2927TIP3    H2 8746   7.214   1.643   1.813
 2928TIP3   OH2 8747   4.785   0.996   2.819
 2928TIP3    H1 8748   4.740   1.026   2.740
 2928TIP3    H2 8749   4.850   0.932   2.787
 2929TIP3   OH2 8750   7.172   0.508   1.687
 2929TIP3    H1 8751   7.170   0.599   1.717
 2929TIP3    H2 8752   7.082   0.488   1.662
 2930TIP3   OH2 8753   2.418   0.211   0.411
 2930TIP3    H1 8754   2.441   0.225   0.502
 2930TIP3    H2 8755   2.349   0.276   0.393
 2931TIP3   OH2 8756   4.344   2.531   2.921
 2931TIP3    H1 8757   4.331   2.487   3.005
 2931TIP3    H2 8758   4.439   2.537   2.911
 2932TIP3   OH2 8759   3.039   4.128   2.144
 2932TIP3    H1 8760   3.027   4.180   2.224
 2932TIP3    H2 8761   3.127   4.150   2.113
 2933TIP3   OH2 8762   3.195   1.718   2.207
 2933TIP3    H1 8763   3.281   1.723   2.250
 2933TIP3    H2 8764   3.134   1.754   2.272
 2934TIP3   OH2 8765   5.545   3.345   5.735
 2934TIP3    H1 8766   5.607   3.293   5.684
 2934TIP3    H2 8767   5.580   3.434   5.732
 2935TIP3   OH2 8768   5.524   5.154   5.852
 2935TIP3    H1 8769   5.587   5.125   5.918
 2935TIP3    H2 8770   5.538   5.249   5.847
 2936TIP3   OH2 8771   3.667   5.760   4.141
 2936TIP3    H1 8772   3.752   5.728   4.170
 2936TIP3    H2 8773   3.605   5.692   4.167
 2937TIP3   OH2 8774   6.905   2.022   2.315
 2937TIP3    H1 8775   6.953   2.024   2.232
 2937TIP3    H2 8776   6.850   2.100   2.312
 2938TIP3   OH2 8777   5.860   4.564   0.752
 2938TIP3    H1 8778   5.946   4.547   0.790
 2938TIP3    H2 8779   5.877   4.623   0.679
 2939TIP3   OH2 8780   2.559   5.558   0.858
 2939TIP3    H1 8781   2.510   5.479   0.879
 2939TIP3    H2 8782   2.558   5.563   0.762
 2940TIP3   OH2 8783   0.451   6.468   5.332
 2940TIP3    H1 8784   0.530   6.477   5.279
 2940TIP3    H2 8785   0.422   6.558   5.347
 2941TIP3   OH2 8786   1.773   3.240   5.212
 2941TIP3    H1 8787   1.808   3.241   5.301
 2941TIP3    H2 8788   1.849   3.222   5.157
 2942TIP3   OH2 8789   0.630   4.613   4.015
 2942TIP3    H1 8790   0.715   4.645   3.985
 2942TIP3    H2 8791   0.648   4.526   4.049
 2943TIP3   OH2 8792   0.685   2.846   4.668
 2943TIP3    H1 8793   0.694   2.845   4.763
 2943TIP3    H2 8794   0.772   2.823   4.635
 2944TIP3   OH2 8795   2.400   6.456   5.537
 2944TIP3    H1 8796   2.396   6.413   5.622
 2944TIP3    H2 8797   2.328   6.520   5.540
 2945TIP3   OH2 8798   6.695   6.056   2.729
 2945TIP3    H1 8799   6.727   6.124   2.788
 2945TIP3    H2 8800   6.759   5.985   2.737
 2946TIP3   OH2 8801   4.553   3.850   2.056
 2946TIP3    H1 8802   4.642   3.838   2.021
 2946TIP3    H2 8803   4.507   3.898   1.987
 2947TIP3   OH2 8804   3.016   0.383   4.872
 2947TIP3    H1 8805   2.929   0.422   4.881
 2947TIP3    H2 8806   3.000   0.297   4.832
 2948TIP3   OH2 8807   6.592   0.939   1.977
 2948TIP3    H1 8808   6.640   0.946   1.895
 2948TIP3    H2 8809   6.659   0.952   2.045
 2949TIP3   OH2 8810   5.987   1.662   4.295
 2949TIP3    H1 8811   6.000   1.732   4.231
 2949TIP3    H2 8812   5.928   1.700   4.360
 2950TIP3   OH2 8813   3.378   5.990   3.780
 2950TIP3    H1 8814   3.414   6.040   3.706
 2950TIP3    H2 8815   3.344   5.910   3.739
 2951TIP3   OH2 8816   3.926   4.225   1.896
 2951TIP3    H1 8817   3.926   4.227   1.800
 2951TIP3    H2 8818   3.989   4.292   1.921
 2952TIP3   OH2 8819   4.935   1.364   2.600
 2952TIP3    H1 8820   4.923   1.308   2.524
 2952TIP3    H2 8821   4.874   1.437   2.587
 2953TIP3   OH2 8822   6.395   4.239   0.579
 2953TIP3    H1 8823   6.490   4.248   0.586
 2953TIP3    H2 8824   6.365   4.221   0.668
 2954TIP3   OH2 8825   4.856   4.551   1.423
 2954TIP3    H1 8826   4.947   4.523   1.411
 2954TIP3    H2 8827   4.840   4.613   1.352
 2955TIP3   OH2 8828   5.862   6.065   3.853
 2955TIP3    H1 8829   5.809   5.986   3.846
 2955TIP3    H2 8830   5.865   6.084   3.947
 2956TIP3   OH2 8831   5.183   0.106   4.864
 2956TIP3    H1 8832   5.119   0.161   4.909
 2956TIP3    H2 8833   5.158   0.016   4.886
 2957TIP3   OH2 8834   1.079   4.186   1.925
 2957TIP3    H1 8835   1.093   4.095   1.898
 2957TIP3    H2 8836   0.993   4.186   1.966
 2958TIP3   OH2 8837   6.990   3.743   0.847
 2958TIP3    H1 8838   7.042   3.820   0.873
 2958TIP3    H2 8839   7.008   3.679   0.916
 2959TIP3   OH2 8840   5.297   0.729   4.554
 2959TIP3    H1 8841   5.301   0.815   4.597
 2959TIP3    H2 8842   5.256   0.747   4.469
 2960TIP3   OH2 8843   5.311   2.730   2.959
 2960TIP3    H1 8844   5.296   2.781   2.879
 2960TIP3    H2 8845   5.275   2.644   2.939
 2961TIP3   OH2 8846   4.260   3.414   2.152
 2961TIP3    H1 8847   4.327   3.356   2.189
 2961TIP3    H2 8848   4.177   3.376   2.181
 2962TIP3   OH2 8849   0.162   3.887   2.634
 2962TIP3    H1 8850   0.092   3.849   2.581
 2962TIP3    H2 8851   0.129   3.973   2.660
 2963TIP3   OH2 8852   3.779   2.793   3.456
 2963TIP3    H1 8853   3.687   2.797   3.432
 2963TIP3    H2 8854   3.818   2.870   3.414
 2964TIP3   OH2 8855   6.040   3.576   0.080
 2964TIP3    H1 8856   6.093   3.511   0.035
 2964TIP3    H2 8857   5.995   3.623   0.009
 2965TIP3   OH2 8858   5.147   4.589   5.718
 2965TIP3    H1 8859   5.062   4.546   5.728
 2965TIP3    H2 8860   5.126   4.681   5.700
 2966TIP3   OH2 8861   3.635   0.714   3.310
 2966TIP3    H1 8862   3.602   0.632   3.346
 2966TIP3    H2 8863   3.592   0.723   3.226
 2967TIP3   OH2 8864   2.082   6.174   2.615
 2967TIP3    H1 8865   2.032   6.256   2.625
 2967TIP3    H2 8866   2.161   6.188   2.667
 2968TIP3   OH2 8867   5.800   0.946   4.422
 2968TIP3    H1 8868   5.821   1.040   4.421
 2968TIP3    H2 8869   5.714   0.941   4.382
 2969TIP3   OH2 8870   1.206   1.913   3.234
 2969TIP3    H1 8871   1.299   1.900   3.215
 2969TIP3    H2 8872   1.165   1.918   3.148
 2970TIP3   OH2 8873   4.886   5.549   4.289
 2970TIP3    H1 8874   4.934   5.476   4.329
 2970TIP3    H2 8875   4.898   5.536   4.195
 2971TIP3   OH2 8876   2.336   5.750   1.842
 2971TIP3    H1 8877   2.255   5.699   1.841
 2971TIP3    H2 8878   2.347   5.779   1.751
 2972TIP3   OH2 8879   5.390   0.304   5.169
 2972TIP3    H1 8880   5.353   0.238   5.109
 2972TIP3    H2 8881   5.439   0.363   5.111
 2973TIP3   OH2 8882   4.443   3.644   5.602
 2973TIP3    H1 8883   4.349   3.658   5.585
 2973TIP3    H2 8884   4.460   3.556   5.567
 2974TIP3   OH2 8885   6.192   1.132   2.165
 2974TIP3    H1 8886   6.157   1.047   2.189
 2974TIP3    H2 8887   6.138   1.161   2.092
 2975TIP3   OH2 8888   0.327   1.848   1.101
 2975TIP3    H1 8889   0.360   1.776   1.046
 2975TIP3    H2 8890   0.299   1.805   1.182
 2976TIP3   OH2 8891   0.166   2.964   3.880
 2976TIP3    H1 8892   0.109   3.039   3.896
 2976TIP3    H2 8893   0.207   2.947   3.965
 2977TIP3   OH2 8894   0.024   6.750   5.700
 2977TIP3    H1 8895  -0.002   6.691   5.630
 2977TIP3    H2 8896   0.109   6.717   5.729
 2978TIP3   OH2 8897   6.362   0.522   5.258
 2978TIP3    H1 8898   6.426   0.500   5.326
 2978TIP3    H2 8899   6.329   0.609   5.284
 2979TIP3   OH2 8900   6.348   0.529   4.105
 2979TIP3    H1 8901   6.417   0.514   4.041
 2979TIP3    H2 8902   6.307   0.611   4.077
 2980TIP3   OH2 8903   4.832   2.221   4.434
 2980TIP3    H1 8904   4.853   2.143   4.382
 2980TIP3    H2 8905   4.791   2.187   4.513
 2981TIP3   OH2 8906   4.716   3.841   1.191
 2981TIP3    H1 8907   4.640   3.833   1.247
 2981TIP3    H2 8908   4.747   3.930   1.204
 2982TIP3   OH2 8909   4.531   2.225   1.359
 2982TIP3    H1 8910   4.569   2.267   1.436
 2982TIP3    H2 8911   4.447   2.269   1.346
 2983TIP3   OH2 8912   2.151   3.705   2.820
 2983TIP3    H1 8913   2.070   3.748   2.790
 2983TIP3    H2 8914   2.121   3.623   2.858
 2984TIP3   OH2 8915   0.961   5.848   1.036
 2984TIP3    H1 8916   0.872   5.871   1.064
 2984TIP3    H2 8917   1.011   5.842   1.118
 2985TIP3   OH2 8918   4.625   3.009   1.973
 2985TIP3    H1 8919   4.693   3.070   1.943
 2985TIP3    H2 8920   4.544   3.060   1.968
 2986TIP3   OH2 8921   2.213   6.334   0.619
 2986TIP3    H1 8922   2.144   6.354   0.556
 2986TIP3    H2 8923   2.295   6.353   0.573
 2987TIP3   OH2 8924   2.728   4.659   3.065
 2987TIP3    H1 8925   2.739   4.640   2.972
 2987TIP3    H2 8926   2.817   4.668   3.099
 2988TIP3   OH2 8927   0.909   4.028   1.097
 2988TIP3    H1 8928   0.841   4.040   1.163
 2988TIP3    H2 8929   0.918   4.114   1.056
 2989TIP3   OH2 8930   6.423   0.931   2.332
 2989TIP3    H1 8931   6.406   1.012   2.380
 2989TIP3    H2 8932   6.471   0.876   2.394
 2990TIP3   OH2 8933   6.867   2.946   0.248
 2990TIP3    H1 8934   6.957   2.916   0.238
 2990TIP3    H2 8935   6.824   2.922   0.166
 2991TIP3   OH2 8936   1.750   3.781   1.177
 2991TIP3    H1 8937   1.770   3.852   1.115
 2991TIP3    H2 8938   1.836   3.749   1.205
 2992TIP3   OH2 8939   4.399   4.697   1.669
 2992TIP3    H1 8940   4.344   4.697   1.748
 2992TIP3    H2 8941   4.338   4.709   1.597
 2993TIP3   OH2 8942   6.141   0.413   1.507
 2993TIP3    H1 8943   6.166   0.499   1.472
 2993TIP3    H2 8944   6.095   0.370   1.435
 2994TIP3   OH2 8945   0.371   2.823   2.890
 2994TIP3    H1 8946   0.437   2.892   2.889
 2994TIP3    H2 8947   0.334   2.827   2.978
 2995TIP3   OH2 8948   4.017   2.648   3.421
 2995TIP3    H1 8949   4.043   2.566   3.462
 2995TIP3    H2 8950   3.922   2.651   3.430
 2996TIP3   OH2 8951   4.195   6.571   2.849
 2996TIP3    H1 8952   4.164   6.546   2.762
 2996TIP3    H2 8953   4.245   6.652   2.835
 2997TIP3   OH2 8954   1.478   2.344   1.969
 2997TIP3    H1 8955   1.385   2.338   1.944
 2997TIP3    H2 8956   1.514   2.412   1.912
 2998TIP3   OH2 8957   2.470   6.580   1.809
 2998TIP3    H1 8958   2.509   6.523   1.743
 2998TIP3    H2 8959   2.485   6.534   1.892
 2999TIP3   OH2 8960   1.338   4.333   2.711
 2999TIP3    H1 8961   1.416   4.296   2.672
 2999TIP3    H2 8962   1.357   4.335   2.805
 3000TIP3   OH2 8963   4.361   1.484   4.129
 3000TIP3    H1 8964   4.321   1.406   4.168
 3000TIP3    H2 8965   4.438   1.500   4.183
 3001TIP3   OH2 8966   5.012   2.627   3.511
 3001TIP3    H1 8967   5.101   2.658   3.522
 3001TIP3    H2 8968   4.969   2.645   3.594
 3002TIP3   OH2 8969   6.428   1.441   2.708
 3002TIP3    H1 8970   6.424   1.503   2.781
 3002TIP3    H2 8971   6.414   1.495   2.630
 3003TIP3   OH2 8972   7.216   6.042   3.391
 3003TIP3    H1 8973   7.212   6.012   3.300
 3003TIP3    H2 8974   7.209   6.137   3.386
 3004TIP3   OH2 8975   1.690   2.406   0.265
 3004TIP3    H1 8976   1.687   2.476   0.331
 3004TIP3    H2 8977   1.693   2.453   0.182
 3005TIP3   OH2 8978   1.832   0.068   3.860
 3005TIP3    H1 8979   1.759   0.128   3.873
 3005TIP3    H2 8980   1.829   0.048   3.766
 3006TIP3   OH2 8981   7.231   0.805   5.836
 3006TIP3    H1 8982   7.215   0.738   5.902
 3006TIP3    H2 8983   7.272   0.877   5.884
 3007TIP3   OH2 8984   3.230   6.460   4.542
 3007TIP3    H1 8985   3.267   6.400   4.607
 3007TIP3    H2 8986   3.294   6.462   4.471
 3008TIP3   OH2 8987   0.499   1.062   5.025
 3008TIP3    H1 8988   0.534   1.143   5.063
 3008TIP3    H2 8989   0.424   1.041   5.080
 3009TIP3   OH2 8990   2.214   2.372   5.700
 3009TIP3    H1 8991   2.239   2.394   5.790
 3009TIP3    H2 8992   2.254   2.286   5.685
 3010TIP3   OH2 8993   1.225   3.141   4.313
 3010TIP3    H1 8994   1.180   3.223   4.295
 3010TIP3    H2 8995   1.166   3.094   4.372
 3011TIP3   OH2 8996   4.591   5.163   5.506
 3011TIP3    H1 8997   4.684   5.142   5.494
 3011TIP3    H2 8998   4.556   5.168   5.417
 3012TIP3   OH2 8999   0.437   0.794   1.608
 3012TIP3    H1 9000   0.459   0.819   1.698
 3012TIP3    H2 9001   0.474   0.865   1.554
 3013TIP3   OH2 9002   2.705   4.955   2.722
 3013TIP3    H1 9003   2.738   4.939   2.634
 3013TIP3    H2 9004   2.618   4.915   2.722
 3014TIP3   OH2 9005   1.189   5.568   3.556
 3014TIP3    H1 9006   1.219   5.544   3.469
 3014TIP3    H2 9007   1.131   5.497   3.582
 3015TIP3   OH2 9008   1.066   2.318   5.146
 3015TIP3    H1 9009   1.042   2.241   5.199
 3015TIP3    H2 9010   1.155   2.299   5.117
 3016TIP3   OH2 9011   6.052   0.185   3.886
 3016TIP3    H1 9012   6.072   0.099   3.922
 3016TIP3    H2 9013   6.127   0.207   3.831
 3017TIP3   OH2 9014   3.921   0.993   2.197
 3017TIP3    H1 9015   3.944   1.012   2.106
 3017TIP3    H2 9016   3.857   0.922   2.192
 3018TIP3   OH2 9017   6.294   1.006   2.997
 3018TIP3    H1 9018   6.272   0.954   2.920
 3018TIP3    H2 9019   6.282   1.097   2.970
 3019TIP3   OH2 9020   4.896   6.257   5.258
 3019TIP3    H1 9021   4.925   6.296   5.341
 3019TIP3    H2 9022   4.801   6.253   5.265
 3020TIP3   OH2 9023   6.956   0.194   3.163
 3020TIP3    H1 9024   7.052   0.196   3.164
 3020TIP3    H2 9025   6.932   0.110   3.201
 3021TIP3   OH2 9026   3.265   5.319   1.289
 3021TIP3    H1 9027   3.295   5.409   1.289
 3021TIP3    H2 9028   3.284   5.287   1.200
 3022TIP3   OH2 9029   6.133   4.545   0.766
 3022TIP3    H1 9030   6.107   4.637   0.766
 3022TIP3    H2 9031   6.198   4.538   0.695
 3023TIP3   OH2 9032   3.369   4.132   5.420
 3023TIP3    H1 9033   3.286   4.101   5.385
 3023TIP3    H2 9034   3.379   4.220   5.382
 3024TIP3   OH2 9035   6.088  -0.030   1.471
 3024TIP3    H1 9036   6.071  -0.050   1.379
 3024TIP3    H2 9037   6.030   0.044   1.491
 3025TIP3   OH2 9038   6.607   0.202   0.252
 3025TIP3    H1 9039   6.687   0.233   0.296
 3025TIP3    H2 9040   6.548   0.277   0.255
 3026TIP3   OH2 9041   1.993   5.700   0.163
 3026TIP3    H1 9042   1.962   5.781   0.123
 3026TIP3    H2 9043   1.985   5.634   0.094
 3027TIP3   OH2 9044   3.010   2.824   5.758
 3027TIP3    H1 9045   3.039   2.737   5.728
 3027TIP3    H2 9046   2.969   2.863   5.681
 3028TIP3   OH2 9047   4.627   3.615   5.333
 3028TIP3    H1 9048   4.695   3.625   5.266
 3028TIP3    H2 9049   4.604   3.705   5.357
 3029TIP3   OH2 9050   0.502   2.850   5.188
 3029TIP3    H1 9051   0.570   2.799   5.232
 3029TIP3    H2 9052   0.487   2.925   5.245
 3030TIP3   OH2 9053   2.900   2.902   4.394
 3030TIP3    H1 9054   2.812   2.880   4.364
 3030TIP3    H2 9055   2.887   2.942   4.480
 3031TIP3   OH2 9056   4.930   6.495   0.913
 3031TIP3    H1 9057   4.995   6.528   0.974
 3031TIP3    H2 9058   4.915   6.405   0.941
 3032TIP3   OH2 9059   5.478   0.071   0.861
 3032TIP3    H1 9060   5.403   0.124   0.886
 3032TIP3    H2 9061   5.461   0.045   0.770
 3033TIP3   OH2 9062   2.306   3.300   0.669
 3033TIP3    H1 9063   2.347   3.216   0.685
 3033TIP3    H2 9064   2.349   3.335   0.591
 3034TIP3   OH2 9065   0.438   0.864   2.174
 3034TIP3    H1 9066   0.514   0.806   2.174
 3034TIP3    H2 9067   0.473   0.949   2.150
 3035TIP3   OH2 9068   0.530   6.002   1.886
 3035TIP3    H1 9069   0.512   5.912   1.910
 3035TIP3    H2 9070   0.451   6.050   1.911
 3036TIP3   OH2 9071   1.010   0.494   2.052
 3036TIP3    H1 9072   1.041   0.455   1.970
 3036TIP3    H2 9073   1.047   0.583   2.052
 3037TIP3   OH2 9074   1.826   2.874   5.651
 3037TIP3    H1 9075   1.844   2.950   5.705
 3037TIP3    H2 9076   1.852   2.901   5.563
 3038TIP3   OH2 9077   2.093   0.384   1.967
 3038TIP3    H1 9078   2.186   0.390   1.987
 3038TIP3    H2 9079   2.082   0.435   1.886
 3039TIP3   OH2 9080   2.985   2.495   1.279
 3039TIP3    H1 9081   2.959   2.430   1.344
 3039TIP3    H2 9082   3.069   2.463   1.246
 3040TIP3   OH2 9083   1.656   1.181   0.189
 3040TIP3    H1 9084   1.589   1.196   0.122
 3040TIP3    H2 9085   1.670   1.086   0.186
 3041TIP3   OH2 9086   6.912   0.321   0.657
 3041TIP3    H1 9087   6.989   0.263   0.658
 3041TIP3    H2 9088   6.930   0.384   0.588
 3042TIP3   OH2 9089   4.936   0.659   3.493
 3042TIP3    H1 9090   4.885   0.717   3.550
 3042TIP3    H2 9091   4.905   0.680   3.405
 3043TIP3   OH2 9092   1.303   6.402   3.800
 3043TIP3    H1 9093   1.317   6.481   3.853
 3043TIP3    H2 9094   1.256   6.434   3.723
 3044TIP3   OH2 9095   0.956   1.198   5.339
 3044TIP3    H1 9096   0.892   1.247   5.392
 3044TIP3    H2 9097   0.906   1.125   5.304
 3045TIP3   OH2 9098   2.333   2.480   0.463
 3045TIP3    H1 9099   2.258   2.428   0.489
 3045TIP3    H2 9100   2.335   2.553   0.525
 3046TIP3   OH2 9101   7.029   2.565   4.075
 3046TIP3    H1 9102   7.028   2.634   4.008
 3046TIP3    H2 9103   7.012   2.484   4.026
 3047TIP3   OH2 9104   5.800   2.807   0.785
 3047TIP3    H1 9105   5.802   2.825   0.879
 3047TIP3    H2 9106   5.707   2.812   0.762
 3048TIP3   OH2 9107   3.245   0.314   1.107
 3048TIP3    H1 9108   3.230   0.401   1.144
 3048TIP3    H2 9109   3.206   0.317   1.020
 3049TIP3   OH2 9110   2.140   0.472   4.355
 3049TIP3    H1 9111   2.200   0.459   4.282
 3049TIP3    H2 9112   2.166   0.555   4.394
 3050TIP3   OH2 9113   5.178  -0.012   1.697
 3050TIP3    H1 9114   5.250  -0.003   1.634
 3050TIP3    H2 9115   5.221  -0.003   1.782
 3051TIP3   OH2 9116   5.102   2.004   0.290
 3051TIP3    H1 9117   5.142   2.090   0.306
 3051TIP3    H2 9118   5.170   1.941   0.314
 3052TIP3   OH2 9119   0.467   3.274   2.764
 3052TIP3    H1 9120   0.516   3.345   2.805
 3052TIP3    H2 9121   0.500   3.195   2.807
 3053TIP3   OH2 9122   4.727   4.410   1.184
 3053TIP3    H1 9123   4.696   4.434   1.271
 3053TIP3    H2 9124   4.668   4.456   1.124
 3054TIP3   OH2 9125   6.895   5.591   5.703
 3054TIP3    H1 9126   6.820   5.569   5.647
 3054TIP3    H2 9127   6.874   5.552   5.788
 3055TIP3   OH2 9128   2.061   6.596   4.247
 3055TIP3    H1 9129   2.103   6.584   4.332
 3055TIP3    H2 9130   1.979   6.642   4.267
 3056TIP3   OH2 9131   6.651   2.261   3.242
 3056TIP3    H1 9132   6.691   2.204   3.177
 3056TIP3    H2 9133   6.647   2.347   3.200
 3057TIP3   OH2 9134   4.001   4.107   5.110
 3057TIP3    H1 9135   4.084   4.154   5.117
 3057TIP3    H2 9136   4.009   4.056   5.030
 3058TIP3   OH2 9137   1.472   1.068   3.860
 3058TIP3    H1 9138   1.384   1.093   3.887
 3058TIP3    H2 9139   1.512   1.149   3.830
 3059TIP3   OH2 9140   2.756   2.329   2.999
 3059TIP3    H1 9141   2.793   2.417   2.993
 3059TIP3    H2 9142   2.826   2.275   3.036
 3060TIP3   OH2 9143   0.956   1.685   2.422
 3060TIP3    H1 9144   0.963   1.715   2.513
 3060TIP3    H2 9145   1.027   1.732   2.377
 3061TIP3   OH2 9146   2.147   5.225   2.074
 3061TIP3    H1 9147   2.112   5.312   2.096
 3061TIP3    H2 9148   2.165   5.230   1.980
 3062TIP3   OH2 9149   0.685   3.237   0.780
 3062TIP3    H1 9150   0.648   3.296   0.846
 3062TIP3    H2 9151   0.774   3.219   0.812
 3063TIP3   OH2 9152   2.850   1.875   1.192
 3063TIP3    H1 9153   2.888   1.868   1.104
 3063TIP3    H2 9154   2.835   1.969   1.204
 3064TIP3   OH2 9155   1.208   5.261   4.681
 3064TIP3    H1 9156   1.131   5.301   4.640
 3064TIP3    H2 9157   1.228   5.319   4.755
 3065TIP3   OH2 9158   1.110   1.985   1.104
 3065TIP3    H1 9159   1.178   1.989   1.037
 3065TIP3    H2 9160   1.120   1.899   1.145
 3066TIP3   OH2 9161   5.928   5.365   5.688
 3066TIP3    H1 9162   5.996   5.414   5.640
 3066TIP3    H2 9163   5.959   5.362   5.778
 3067TIP3   OH2 9164   1.262   1.194   3.652
 3067TIP3    H1 9165   1.271   1.144   3.733
 3067TIP3    H2 9166   1.311   1.275   3.667
 3068TIP3   OH2 9167   2.076   4.349   2.363
 3068TIP3    H1 9168   2.079   4.294   2.285
 3068TIP3    H2 9169   1.987   4.384   2.364
 3069TIP3   OH2 9170   1.737   6.565   2.421
 3069TIP3    H1 9171   1.749   6.639   2.363
 3069TIP3    H2 9172   1.653   6.527   2.396
 3070TIP3   OH2 9173   1.310   0.436   0.896
 3070TIP3    H1 9174   1.388   0.480   0.862
 3070TIP3    H2 9175   1.325   0.430   0.990
 3071TIP3   OH2 9176   1.231   0.900   5.638
 3071TIP3    H1 9177   1.249   0.807   5.625
 3071TIP3    H2 9178   1.149   0.901   5.688
 3072TIP3   OH2 9179   2.370   6.600   3.188
 3072TIP3    H1 9180   2.324   6.530   3.142
 3072TIP3    H2 9181   2.340   6.681   3.146
 3073TIP3   OH2 9182   5.538   3.181   5.464
 3073TIP3    H1 9183   5.468   3.166   5.527
 3073TIP3    H2 9184   5.493   3.192   5.380
 3074TIP3   OH2 9185   2.415   3.442   4.132
 3074TIP3    H1 9186   2.419   3.382   4.057
 3074TIP3    H2 9187   2.502   3.483   4.135
 3075TIP3   OH2 9188   6.452   2.199   0.973
 3075TIP3    H1 9189   6.535   2.178   0.931
 3075TIP3    H2 9190   6.443   2.134   1.042
 3076TIP3   OH2 9191   0.619   4.881   3.297
 3076TIP3    H1 9192   0.706   4.891   3.334
 3076TIP3    H2 9193   0.631   4.893   3.203
 3077TIP3   OH2 9194   0.487   5.159   1.130
 3077TIP3    H1 9195   0.426   5.108   1.076
 3077TIP3    H2 9196   0.556   5.186   1.068
 3078TIP3   OH2 9197   3.178   0.040   4.684
 3078TIP3    H1 9198   3.095   0.038   4.731
 3078TIP3    H2 9199   3.229  -0.031   4.724
 3079TIP3   OH2 9200   2.891   3.032   2.973
 3079TIP3    H1 9201   2.906   2.938   2.960
 3079TIP3    H2 9202   2.813   3.051   2.920
 3080TIP3   OH2 9203   4.405   6.615   1.856
 3080TIP3    H1 9204   4.384   6.708   1.866
 3080TIP3    H2 9205   4.420   6.585   1.946
 3081TIP3   OH2 9206   2.780   5.808   4.452
 3081TIP3    H1 9207   2.752   5.843   4.536
 3081TIP3    H2 9208   2.874   5.823   4.449
 3082TIP3   OH2 9209   5.629   2.760   3.029
 3082TIP3    H1 9210   5.649   2.849   3.000
 3082TIP3    H2 9211   5.573   2.724   2.961
 3083TIP3   OH2 9212   5.867   0.054   0.119
 3083TIP3    H1 9213   5.837   0.004   0.194
 3083TIP3    H2 9214   5.962   0.046   0.121
 3084TIP3   OH2 9215   2.159   5.160   2.442
 3084TIP3    H1 9216   2.101   5.237   2.445
 3084TIP3    H2 9217   2.229   5.181   2.503
 3085TIP3   OH2 9218   1.481   3.285   1.732
 3085TIP3    H1 9219   1.573   3.262   1.749
 3085TIP3    H2 9220   1.431   3.229   1.792
 3086TIP3   OH2 9221   3.935   1.279   5.910
 3086TIP3    H1 9222   3.920   1.251   5.820
 3086TIP3    H2 9223   3.870   1.347   5.926
 3087TIP3   OH2 9224   6.411   6.179   4.905
 3087TIP3    H1 9225   6.482   6.228   4.947
 3087TIP3    H2 9226   6.345   6.246   4.885
 3088TIP3   OH2 9227   5.749   3.230   2.593
 3088TIP3    H1 9228   5.730   3.142   2.624
 3088TIP3    H2 9229   5.677   3.250   2.532
 3089TIP3   OH2 9230   6.178   1.638   0.765
 3089TIP3    H1 9231   6.121   1.614   0.838
 3089TIP3    H2 9232   6.142   1.591   0.689
 3090TIP3   OH2 9233   3.874   1.672   0.750
 3090TIP3    H1 9234   3.893   1.579   0.736
 3090TIP3    H2 9235   3.889   1.713   0.665
 3091TIP3   OH2 9236   5.832   2.191   4.273
 3091TIP3    H1 9237   5.783   2.164   4.195
 3091TIP3    H2 9238   5.768   2.191   4.344
 3092TIP3   OH2 9239   5.210   5.699   2.897
 3092TIP3    H1 9240   5.237   5.745   2.977
 3092TIP3    H2 9241   5.146   5.634   2.927
 3093TIP3   OH2 9242   6.347   0.983   5.694
 3093TIP3    H1 9243   6.276   1.025   5.742
 3093TIP3    H2 9244   6.347   0.892   5.725
 3094TIP3   OH2 9245   4.200   6.646   5.064
 3094TIP3    H1 9246   4.125   6.705   5.061
 3094TIP3    H2 9247   4.235   6.646   4.975
 3095TIP3   OH2 9248   4.772   5.693   0.025
 3095TIP3    H1 9249   4.787   5.715   0.117
 3095TIP3    H2 9250   4.860   5.675  -0.009
 3096TIP3   OH2 9251   4.937   1.907   5.115
 3096TIP3    H1 9252   4.860   1.859   5.088
 3096TIP3    H2 9253   4.960   1.960   5.038
 3097TIP3   OH2 9254   3.122   1.601   0.231
 3097TIP3    H1 9255   3.052   1.661   0.253
 3097TIP3    H2 9256   3.201   1.655   0.230
 3098TIP3   OH2 9257   2.259   0.419   0.339
 3098TIP3    H1 9258   2.331   0.482   0.348
 3098TIP3    H2 9259   2.258   0.397   0.246
 3099TIP3   OH2 9260   6.541   2.693   2.401
 3099TIP3    H1 9261   6.524   2.778   2.360
 3099TIP3    H2 9262   6.625   2.665   2.364
 3100TIP3   OH2 9263   0.406   4.401   4.524
 3100TIP3    H1 9264   0.434   4.486   4.560
 3100TIP3    H2 9265   0.434   4.404   4.433
 3101TIP3   OH2 9266   2.728   1.178   0.878
 3101TIP3    H1 9267   2.648   1.167   0.929
 3101TIP3    H2 9268   2.755   1.089   0.856
 3102TIP3   OH2 9269   5.451   3.960   5.617
 3102TIP3    H1 9270   5.451   3.874   5.575
 3102TIP3    H2 9271   5.479   4.020   5.547
 3103TIP3   OH2 9272   1.250   1.025   0.316
 3103TIP3    H1 9273   1.230   1.118   0.329
 3103TIP3    H2 9274   1.198   1.000   0.240
 3104TIP3   OH2 9275   0.390   3.878   5.657
 3104TIP3    H1 9276   0.375   3.946   5.591
 3104TIP3    H2 9277   0.477   3.897   5.692
 3105TIP3   OH2 9278   6.591   4.084   1.832
 3105TIP3    H1 9279   6.604   3.990   1.830
 3105TIP3    H2 9280   6.638   4.113   1.910
 3106TIP3   OH2 9281   6.498   5.650   1.401
 3106TIP3    H1 9282   6.572   5.662   1.342
 3106TIP3    H2 9283   6.441   5.588   1.355
 3107TIP3   OH2 9284   5.431   2.208   0.493
 3107TIP3    H1 9285   5.457   2.237   0.581
 3107TIP3    H2 9286   5.343   2.243   0.481
 3108TIP3   OH2 9287   5.082   4.638   5.305
 3108TIP3    H1 9288   5.017   4.704   5.330
 3108TIP3    H2 9289   5.054   4.607   5.219
 3109TIP3   OH2 9290   3.020   6.529   1.259
 3109TIP3    H1 9291   3.109   6.550   1.285
 3109TIP3    H2 9292   2.976   6.613   1.250
 3110TIP3   OH2 9293   2.795   4.618   0.653
 3110TIP3    H1 9294   2.881   4.628   0.613
 3110TIP3    H2 9295   2.737   4.597   0.580
 3111TIP3   OH2 9296   1.478   6.491   2.339
 3111TIP3    H1 9297   1.438   6.539   2.266
 3111TIP3    H2 9298   1.409   6.484   2.404
 3112TIP3   OH2 9299   2.805   1.752   2.592
 3112TIP3    H1 9300   2.778   1.670   2.633
 3112TIP3    H2 9301   2.723   1.793   2.564
 3113TIP3   OH2 9302   3.926   5.140   2.278
 3113TIP3    H1 9303   3.957   5.136   2.187
 3113TIP3    H2 9304   3.833   5.163   2.271
 3114TIP3   OH2 9305   3.890   3.912   5.713
 3114TIP3    H1 9306   3.873   3.990   5.766
 3114TIP3    H2 9307   3.929   3.850   5.775
 3115TIP3   OH2 9308   1.597   3.665   3.317
 3115TIP3    H1 9309   1.692   3.661   3.330
 3115TIP3    H2 9310   1.576   3.758   3.321
 3116TIP3   OH2 9311   0.450   5.589   2.216
 3116TIP3    H1 9312   0.363   5.561   2.190
 3116TIP3    H2 9313   0.510   5.531   2.168
 3117TIP3   OH2 9314   2.376   2.223   0.685
 3117TIP3    H1 9315   2.324   2.149   0.718
 3117TIP3    H2 9316   2.316   2.298   0.688
 3118TIP3   OH2 9317   3.679   6.287   0.967
 3118TIP3    H1 9318   3.606   6.339   1.003
 3118TIP3    H2 9319   3.640   6.240   0.893
 3119TIP3   OH2 9320   5.308   2.983   1.651
 3119TIP3    H1 9321   5.401   2.998   1.638
 3119TIP3    H2 9322   5.274   3.068   1.681
 3120TIP3   OH2 9323   0.771   6.380   3.740
 3120TIP3    H1 9324   0.767   6.431   3.659
 3120TIP3    H2 9325   0.831   6.308   3.720
 3121TIP3   OH2 9326   5.428   4.808   3.146
 3121TIP3    H1 9327   5.449   4.895   3.112
 3121TIP3    H2 9328   5.509   4.758   3.136
 3122TIP3   OH2 9329   4.214   6.287   0.106
 3122TIP3    H1 9330   4.295   6.282   0.056
 3122TIP3    H2 9331   4.242   6.310   0.194
 3123TIP3   OH2 9332   3.960   4.027   1.122
 3123TIP3    H1 9333   3.873   4.049   1.156
 3123TIP3    H2 9334   4.020   4.053   1.192
 3124TIP3   OH2 9335   6.968   6.399   2.535
 3124TIP3    H1 9336   7.012   6.315   2.525
 3124TIP3    H2 9337   6.894   6.395   2.474
 3125TIP3   OH2 9338   2.777   0.367   2.327
 3125TIP3    H1 9339   2.830   0.383   2.404
 3125TIP3    H2 9340   2.786   0.446   2.274
 3126TIP3   OH2 9341   5.336   6.542   2.832
 3126TIP3    H1 9342   5.258   6.514   2.879
 3126TIP3    H2 9343   5.329   6.500   2.746
 3127TIP3   OH2 9344   5.994   0.435   2.681
 3127TIP3    H1 9345   5.985   0.489   2.760
 3127TIP3    H2 9346   5.905   0.405   2.663
 3128TIP3   OH2 9347   5.918   2.206   1.711
 3128TIP3    H1 9348   5.886   2.296   1.717
 3128TIP3    H2 9349   5.997   2.212   1.658
 3129TIP3   OH2 9350   0.192   0.232   0.541
 3129TIP3    H1 9351   0.151   0.161   0.492
 3129TIP3    H2 9352   0.241   0.281   0.474
 3130TIP3   OH2 9353   1.998   2.095   4.848
 3130TIP3    H1 9354   1.991   2.142   4.931
 3130TIP3    H2 9355   2.091   2.075   4.839
 3131TIP3   OH2 9356   0.073   3.529   5.170
 3131TIP3    H1 9357   0.118   3.554   5.250
 3131TIP3    H2 9358   0.012   3.460   5.197
 3132TIP3   OH2 9359   3.309   3.185   2.159
 3132TIP3    H1 9360   3.217   3.176   2.181
 3132TIP3    H2 9361   3.355   3.181   2.243
 3133TIP3   OH2 9362   5.209   0.075   4.366
 3133TIP3    H1 9363   5.220   0.113   4.453
 3133TIP3    H2 9364   5.294   0.035   4.346
 3134TIP3   OH2 9365   6.278   4.514   0.551
 3134TIP3    H1 9366   6.224   4.488   0.477
 3134TIP3    H2 9367   6.363   4.473   0.535
 3135TIP3   OH2 9368   6.615   2.160   4.690
 3135TIP3    H1 9369   6.525   2.144   4.719
 3135TIP3    H2 9370   6.666   2.091   4.731
 3136TIP3   OH2 9371   3.497   4.080   5.887
 3136TIP3    H1 9372   3.503   4.059   5.794
 3136TIP3    H2 9373   3.487   3.995   5.930
 3137TIP3   OH2 9374   0.848   2.574   5.853
 3137TIP3    H1 9375   0.900   2.648   5.822
 3137TIP3    H2 9376   0.805   2.607   5.933
 3138TIP3   OH2 9377   4.890   4.801   5.400
 3138TIP3    H1 9378   4.833   4.837   5.331
 3138TIP3    H2 9379   4.833   4.793   5.476
 3139TIP3   OH2 9380   5.538   4.975   5.637
 3139TIP3    H1 9381   5.558   4.902   5.695
 3139TIP3    H2 9382   5.536   5.052   5.694
 3140TIP3   OH2 9383   4.348   5.762   2.582
 3140TIP3    H1 9384   4.366   5.850   2.549
 3140TIP3    H2 9385   4.433   5.732   2.614
 3141TIP3   OH2 9386   3.439   6.487   5.163
 3141TIP3    H1 9387   3.501   6.422   5.197
 3141TIP3    H2 9388   3.470   6.570   5.200
 3142TIP3   OH2 9389   3.632   4.959   0.417
 3142TIP3    H1 9390   3.649   4.877   0.370
 3142TIP3    H2 9391   3.566   5.003   0.364
 3143TIP3   OH2 9392   5.533   5.923   4.294
 3143TIP3    H1 9393   5.577   5.863   4.355
 3143TIP3    H2 9394   5.576   5.908   4.210
 3144TIP3   OH2 9395   5.119   4.239   2.772
 3144TIP3    H1 9396   5.159   4.323   2.796
 3144TIP3    H2 9397   5.172   4.207   2.698
 3145TIP3   OH2 9398   5.461   2.031   4.960
 3145TIP3    H1 9399   5.414   2.114   4.971
 3145TIP3    H2 9400   5.393   1.965   4.952
 3146TIP3   OH2 9401   4.790   3.575   4.454
 3146TIP3    H1 9402   4.699   3.574   4.427
 3146TIP3    H2 9403   4.813   3.668   4.459
 3147TIP3   OH2 9404   6.928   4.235   2.824
 3147TIP3    H1 9405   6.976   4.235   2.742
 3147TIP3    H2 9406   6.843   4.196   2.803
 3148TIP3   OH2 9407   2.003   2.537   4.799
 3148TIP3    H1 9408   1.982   2.464   4.857
 3148TIP3    H2 9409   2.029   2.496   4.717
 3149TIP3   OH2 9410   3.778   2.097   2.585
 3149TIP3    H1 9411   3.695   2.144   2.575
 3149TIP3    H2 9412   3.822   2.142   2.657
 3150TIP3   OH2 9413   4.362   1.898   4.256
 3150TIP3    H1 9414   4.454   1.926   4.254
 3150TIP3    H2 9415   4.363   1.817   4.306
 3151TIP3   OH2 9416   5.396   1.087   5.189
 3151TIP3    H1 9417   5.437   1.101   5.275
 3151TIP3    H2 9418   5.338   1.012   5.203
 3152TIP3   OH2 9419   1.084   5.242   3.369
 3152TIP3    H1 9420   1.098   5.175   3.301
 3152TIP3    H2 9421   1.148   5.310   3.350
 3153TIP3   OH2 9422   6.087   0.032   3.286
 3153TIP3    H1 9423   6.045   0.109   3.247
 3153TIP3    H2 9424   6.169   0.023   3.238
 3154TIP3   OH2 9425   7.056   3.080   0.747
 3154TIP3    H1 9426   7.011   3.039   0.821
 3154TIP3    H2 9427   7.149   3.071   0.767
 3155TIP3   OH2 9428   6.824   4.680   3.915
 3155TIP3    H1 9429   6.796   4.594   3.884
 3155TIP3    H2 9430   6.861   4.723   3.838
 3156TIP3   OH2 9431   5.089   5.387   3.288
 3156TIP3    H1 9432   4.995   5.378   3.276
 3156TIP3    H2 9433   5.099   5.428   3.374
 3157TIP3   OH2 9434   0.800   6.705   2.643
 3157TIP3    H1 9435   0.850   6.713   2.724
 3157TIP3    H2 9436   0.862   6.726   2.574
 3158TIP3   OH2 9437   0.685   2.663   1.950
 3158TIP3    H1 9438   0.772   2.646   1.985
 3158TIP3    H2 9439   0.688   2.630   1.860
 3159TIP3   OH2 9440   6.693   2.799   2.060
 3159TIP3    H1 9441   6.742   2.749   2.125
 3159TIP3    H2 9442   6.618   2.743   2.039
 3160TIP3   OH2 9443   5.739   6.748   5.247
 3160TIP3    H1 9444   5.661   6.801   5.265
 3160TIP3    H2 9445   5.708   6.658   5.251
 3161TIP3   OH2 9446   3.211   2.402   2.340
 3161TIP3    H1 9447   3.235   2.346   2.267
 3161TIP3    H2 9448   3.195   2.488   2.301
 3162TIP3   OH2 9449   2.227   1.120   1.234
 3162TIP3    H1 9450   2.165   1.060   1.277
 3162TIP3    H2 9451   2.273   1.065   1.170
 3163TIP3   OH2 9452   6.892   5.309   5.277
 3163TIP3    H1 9453   6.971   5.270   5.240
 3163TIP3    H2 9454   6.916   5.331   5.367
 3164TIP3   OH2 9455   4.138   5.434   1.236
 3164TIP3    H1 9456   4.201   5.460   1.169
 3164TIP3    H2 9457   4.189   5.433   1.317
 3165TIP3   OH2 9458   5.746   3.392   1.953
 3165TIP3    H1 9459   5.704   3.473   1.981
 3165TIP3    H2 9460   5.745   3.395   1.858
 3166TIP3   OH2 9461   4.832   2.003   5.368
 3166TIP3    H1 9462   4.886   1.946   5.423
 3166TIP3    H2 9463   4.859   1.982   5.279
 3167TIP3   OH2 9464   3.226   6.177   4.317
 3167TIP3    H1 9465   3.253   6.268   4.309
 3167TIP3    H2 9466   3.135   6.176   4.287
 3168TIP3   OH2 9467   1.590   6.404   5.412
 3168TIP3    H1 9468   1.507   6.390   5.458
 3168TIP3    H2 9469   1.629   6.479   5.456
 3169TIP3   OH2 9470   0.994   2.778   1.080
 3169TIP3    H1 9471   1.037   2.785   0.995
 3169TIP3    H2 9472   1.014   2.690   1.111
 3170TIP3   OH2 9473   5.811   1.336   1.190
 3170TIP3    H1 9474   5.884   1.295   1.145
 3170TIP3    H2 9475   5.844   1.358   1.276
 3171TIP3   OH2 9476   1.513   6.136   0.067
 3171TIP3    H1 9477   1.474   6.074   0.129
 3171TIP3    H2 9478   1.450   6.208   0.063
 3172TIP3   OH2 9479   2.171   1.353   2.723
 3172TIP3    H1 9480   2.150   1.442   2.695
 3172TIP3    H2 9481   2.100   1.329   2.783
 3173TIP3   OH2 9482   3.373   2.139   2.358
 3173TIP3    H1 9483   3.304   2.085   2.397
 3173TIP3    H2 9484   3.327   2.191   2.292
 3174TIP3   OH2 9485   0.599   2.073  -0.060
 3174TIP3    H1 9486   0.550   2.047   0.018
 3174TIP3    H2 9487   0.691   2.071  -0.032
 3175TIP3   OH2 9488   2.917   4.139   4.877
 3175TIP3    H1 9489   2.911   4.043   4.877
 3175TIP3    H2 9490   2.857   4.167   4.809
 3176TIP3   OH2 9491   5.617   1.581   4.306
 3176TIP3    H1 9492   5.615   1.667   4.265
 3176TIP3    H2 9493   5.618   1.600   4.400
 3177TIP3   OH2 9494   2.850   4.404   3.444
 3177TIP3    H1 9495   2.785   4.396   3.374
 3177TIP3    H2 9496   2.871   4.498   3.447
 3178TIP3   OH2 9497   5.434   0.677   1.546
 3178TIP3    H1 9498   5.504   0.648   1.604
 3178TIP3    H2 9499   5.420   0.604   1.486
 3179TIP3   OH2 9500   3.346   6.766   0.893
 3179TIP3    H1 9501   3.384   6.854   0.890
 3179TIP3    H2 9502   3.254   6.779   0.870
 3180TIP3   OH2 9503   1.972   4.053   5.275
 3180TIP3    H1 9504   1.894   4.105   5.292
 3180TIP3    H2 9505   1.954   3.968   5.314
 3181TIP3   OH2 9506   6.396   4.290   2.453
 3181TIP3    H1 9507   6.388   4.282   2.548
 3181TIP3    H2 9508   6.309   4.270   2.419
 3182TIP3   OH2 9509   6.508   5.207   3.395
 3182TIP3    H1 9510   6.562   5.198   3.316
 3182TIP3    H2 9511   6.554   5.273   3.448
 3183TIP3   OH2 9512   1.060   2.653   0.810
 3183TIP3    H1 9513   0.980   2.625   0.764
 3183TIP3    H2 9514   1.085   2.577   0.862
 3184TIP3   OH2 9515   0.889   5.779   2.258
 3184TIP3    H1 9516   0.963   5.766   2.317
 3184TIP3    H2 9517   0.900   5.712   2.190
 3185TIP3   OH2 9518   0.106   3.757   0.364
 3185TIP3    H1 9519   0.109   3.850   0.340
 3185TIP3    H2 9520   0.124   3.711   0.283
 3186TIP3   OH2 9521   5.907   4.104   4.347
 3186TIP3    H1 9522   5.923   4.028   4.290
 3186TIP3    H2 9523   5.842   4.156   4.299
 3187TIP3   OH2 9524   0.921   3.578   4.166
 3187TIP3    H1 9525   0.896   3.649   4.108
 3187TIP3    H2 9526   0.855   3.579   4.235
 3188TIP3   OH2 9527   0.773   2.349   1.984
 3188TIP3    H1 9528   0.745   2.282   1.921
 3188TIP3    H2 9529   0.869   2.348   1.977
 3189TIP3   OH2 9530   5.157   3.647   2.659
 3189TIP3    H1 9531   5.080   3.606   2.620
 3189TIP3    H2 9532   5.128   3.736   2.682
 3190TIP3   OH2 9533   4.801   3.962   4.979
 3190TIP3    H1 9534   4.810   3.937   5.071
 3190TIP3    H2 9535   4.707   3.959   4.961
 3191TIP3   OH2 9536   5.453   2.474   3.522
 3191TIP3    H1 9537   5.422   2.397   3.474
 3191TIP3    H2 9538   5.541   2.449   3.553
 3192TIP3   OH2 9539   0.292   1.802   3.135
 3192TIP3    H1 9540   0.360   1.866   3.112
 3192TIP3    H2 9541   0.310   1.727   3.078
 3193TIP3   OH2 9542   6.259   4.582   1.608
 3193TIP3    H1 9543   6.176   4.571   1.562
 3193TIP3    H2 9544   6.236   4.578   1.701
 3194TIP3   OH2 9545   3.057   4.485   4.855
 3194TIP3    H1 9546   3.123   4.498   4.923
 3194TIP3    H2 9547   3.066   4.393   4.831
 3195TIP3   OH2 9548   2.932   5.863   5.162
 3195TIP3    H1 9549   2.976   5.786   5.125
 3195TIP3    H2 9550   2.969   5.871   5.250
 3196TIP3   OH2 9551   2.984   6.285   5.555
 3196TIP3    H1 9552   3.033   6.361   5.586
 3196TIP3    H2 9553   2.910   6.322   5.508
 3197TIP3   OH2 9554   2.083   2.082   2.851
 3197TIP3    H1 9555   2.145   2.151   2.875
 3197TIP3    H2 9556   2.077   2.087   2.756
 3198TIP3   OH2 9557   2.336   2.055   1.892
 3198TIP3    H1 9558   2.413   2.029   1.942
 3198TIP3    H2 9559   2.369   2.121   1.830
 3199TIP3   OH2 9560   5.467   0.377   0.792
 3199TIP3    H1 9561   5.512   0.457   0.766
 3199TIP3    H2 9562   5.435   0.340   0.710
 3200TIP3   OH2 9563   0.269   0.294   1.473
 3200TIP3    H1 9564   0.311   0.351   1.537
 3200TIP3    H2 9565   0.298   0.206   1.498
 3201TIP3   OH2 9566   5.600   4.627   5.379
 3201TIP3    H1 9567   5.607   4.577   5.460
 3201TIP3    H2 9568   5.506   4.637   5.364
 3202TIP3   OH2 9569   3.952   2.391   0.431
 3202TIP3    H1 9570   3.932   2.482   0.453
 3202TIP3    H2 9571   3.900   2.372   0.353
 3203TIP3   OH2 9572   3.025   4.975   4.257
 3203TIP3    H1 9573   3.119   4.958   4.245
 3203TIP3    H2 9574   2.989   4.972   4.169
 3204TIP3   OH2 9575   0.571   3.070   1.275
 3204TIP3    H1 9576   0.652   3.020   1.275
 3204TIP3    H2 9577   0.588   3.145   1.218
 3205TIP3   OH2 9578   1.917   4.933   3.197
 3205TIP3    H1 9579   1.900   5.021   3.232
 3205TIP3    H2 9580   1.840   4.882   3.222
 3206TIP3   OH2 9581   3.088   3.534   2.333
 3206TIP3    H1 9582   3.050   3.621   2.336
 3206TIP3    H2 9583   3.061   3.499   2.248
 3207TIP3   OH2 9584   1.688   1.685   5.730
 3207TIP3    H1 9585   1.758   1.670   5.668
 3207TIP3    H2 9586   1.704   1.774   5.763
 3208TIP3   OH2 9587   3.561   3.751   3.980
 3208TIP3    H1 9588   3.565   3.787   4.068
 3208TIP3    H2 9589   3.492   3.685   3.984
 3209TIP3   OH2 9590   3.068   0.253   3.098
 3209TIP3    H1 9591   3.161   0.244   3.116
 3209TIP3    H2 9592   3.030   0.279   3.182
 3210TIP3   OH2 9593   2.211   2.002   0.779
 3210TIP3    H1 9594   2.275   1.934   0.801
 3210TIP3    H2 9595   2.146   1.957   0.724
 3211TIP3   OH2 9596   1.265   0.679   2.933
 3211TIP3    H1 9597   1.205   0.658   2.863
 3211TIP3    H2 9598   1.291   0.770   2.916
 3212TIP3   OH2 9599   4.802   1.002   1.028
 3212TIP3    H1 9600   4.708   1.020   1.030
 3212TIP3    H2 9601   4.809   0.907   1.041
 3213TIP3   OH2 9602   0.113   4.241   3.643
 3213TIP3    H1 9603   0.064   4.164   3.671
 3213TIP3    H2 9604   0.158   4.213   3.563
 3214TIP3   OH2 9605   3.303   0.534   5.310
 3214TIP3    H1 9606   3.230   0.595   5.319
 3214TIP3    H2 9607   3.261   0.452   5.283
 3215TIP3   OH2 9608   7.099   4.069   4.757
 3215TIP3    H1 9609   7.136   3.994   4.804
 3215TIP3    H2 9610   7.130   4.146   4.805
 3216TIP3   OH2 9611   1.848   0.183   0.923
 3216TIP3    H1 9612   1.752   0.191   0.920
 3216TIP3    H2 9613   1.874   0.167   0.833
 3217TIP3   OH2 9614   4.824   5.430   3.266
 3217TIP3    H1 9615   4.743   5.469   3.235
 3217TIP3    H2 9616   4.798   5.344   3.300
 3218TIP3   OH2 9617   1.734   2.288   3.708
 3218TIP3    H1 9618   1.654   2.238   3.692
 3218TIP3    H2 9619   1.750   2.278   3.802
 3219TIP3   OH2 9620   6.400   6.349   5.791
 3219TIP3    H1 9621   6.336   6.367   5.859
 3219TIP3    H2 9622   6.476   6.314   5.838
 3220TIP3   OH2 9623   6.304   0.663   4.825
 3220TIP3    H1 9624   6.228   0.606   4.832
 3220TIP3    H2 9625   6.283   0.739   4.879
 3221TIP3   OH2 9626   1.943   3.423   2.570
 3221TIP3    H1 9627   2.031   3.385   2.565
 3221TIP3    H2 9628   1.918   3.413   2.662
 3222TIP3   OH2 9629   4.515   5.870   3.407
 3222TIP3    H1 9630   4.515   5.775   3.417
 3222TIP3    H2 9631   4.437   5.900   3.453
 3223TIP3   OH2 9632   4.138   2.089   1.268
 3223TIP3    H1 9633   4.108   2.143   1.341
 3223TIP3    H2 9634   4.062   2.034   1.246
 3224TIP3   OH2 9635   5.419   5.986   2.148
 3224TIP3    H1 9636   5.485   5.945   2.204
 3224TIP3    H2 9637   5.355   6.022   2.209
 3225TIP3   OH2 9638   5.021   5.324   1.896
 3225TIP3    H1 9639   5.035   5.419   1.897
 3225TIP3    H2 9640   4.928   5.314   1.874
 3226TIP3   OH2 9641   6.670   2.612   3.365
 3226TIP3    H1 9642   6.733   2.566   3.422
 3226TIP3    H2 9643   6.713   2.616   3.280
 3227TIP3   OH2 9644   6.446   3.548   4.997
 3227TIP3    H1 9645   6.478   3.595   4.920
 3227TIP3    H2 9646   6.361   3.513   4.969
 3228TIP3   OH2 9647   7.108   0.169   2.395
 3228TIP3    H1 9648   7.198   0.140   2.378
 3228TIP3    H2 9649   7.068   0.175   2.309
 3229TIP3   OH2 9650   2.808   5.705   3.198
 3229TIP3    H1 9651   2.735   5.695   3.259
 3229TIP3    H2 9652   2.831   5.798   3.203
 3230TIP3   OH2 9653   6.640   1.446   2.320
 3230TIP3    H1 9654   6.644   1.456   2.224
 3230TIP3    H2 9655   6.556   1.484   2.345
 3231TIP3   OH2 9656   0.909   2.295   4.661
 3231TIP3    H1 9657   0.858   2.355   4.608
 3231TIP3    H2 9658   0.902   2.330   4.750
 3232TIP3   OH2 9659   2.133   4.815   0.616
 3232TIP3    H1 9660   2.171   4.740   0.570
 3232TIP3    H2 9661   2.104   4.780   0.700
 3233TIP3   OH2 9662   1.620   2.064   0.550
 3233TIP3    H1 9663   1.692   2.067   0.614
 3233TIP3    H2 9664   1.541   2.067   0.603
 3234TIP3   OH2 9665   6.735   1.132   3.851
 3234TIP3    H1 9666   6.688   1.216   3.850
 3234TIP3    H2 9667   6.769   1.123   3.762
 3235TIP3   OH2 9668   5.832   0.075   4.108
 3235TIP3    H1 9669   5.915   0.061   4.063
 3235TIP3    H2 9670   5.785   0.138   4.053
 3236TIP3   OH2 9671   4.273   6.349   4.528
 3236TIP3    H1 9672   4.361   6.383   4.542
 3236TIP3    H2 9673   4.275   6.313   4.440
 3237TIP3   OH2 9674   1.635   2.373   2.802
 3237TIP3    H1 9675   1.723   2.388   2.836
 3237TIP3    H2 9676   1.649   2.347   2.711
 3238TIP3   OH2 9677   1.708   4.517   0.776
 3238TIP3    H1 9678   1.705   4.612   0.792
 3238TIP3    H2 9679   1.736   4.480   0.859
 3239TIP3   OH2 9680   0.245   2.822   3.136
 3239TIP3    H1 9681   0.240   2.771   3.217
 3239TIP3    H2 9682   0.220   2.910   3.162
 3240TIP3   OH2 9683   6.213   3.828   4.154
 3240TIP3    H1 9684   6.174   3.751   4.196
 3240TIP3    H2 9685   6.140   3.870   4.109
 3241TIP3   OH2 9686   5.156   3.072   5.197
 3241TIP3    H1 9687   5.078   3.106   5.241
 3241TIP3    H2 9688   5.127   3.054   5.107
 3242TIP3   OH2 9689   4.421   2.516   0.916
 3242TIP3    H1 9690   4.334   2.475   0.913
 3242TIP3    H2 9691   4.482   2.443   0.917
 3243TIP3   OH2 9692   5.662   2.699   5.603
 3243TIP3    H1 9693   5.620   2.752   5.536
 3243TIP3    H2 9694   5.670   2.613   5.564
 3244TIP3   OH2 9695   4.160   0.692   1.525
 3244TIP3    H1 9696   4.179   0.604   1.557
 3244TIP3    H2 9697   4.244   0.738   1.532
 3245TIP3   OH2 9698   2.303   3.063   2.760
 3245TIP3    H1 9699   2.289   3.011   2.681
 3245TIP3    H2 9700   2.215   3.077   2.795
 3246TIP3   OH2 9701   3.007   5.483   3.204
 3246TIP3    H1 9702   2.941   5.553   3.205
 3246TIP3    H2 9703   2.958   5.404   3.179
 3247TIP3   OH2 9704   3.684   0.842   3.731
 3247TIP3    H1 9705   3.635   0.763   3.753
 3247TIP3    H2 9706   3.771   0.827   3.767
 3248TIP3   OH2 9707   4.517   2.865   5.322
 3248TIP3    H1 9708   4.562   2.781   5.319
 3248TIP3    H2 9709   4.502   2.881   5.416
 3249TIP3   OH2 9710   6.137   1.813   1.579
 3249TIP3    H1 9711   6.113   1.739   1.635
 3249TIP3    H2 9712   6.164   1.882   1.639
 3250TIP3   OH2 9713   0.986   4.945   2.216
 3250TIP3    H1 9714   1.079   4.966   2.210
 3250TIP3    H2 9715   0.980   4.884   2.290
 3251TIP3   OH2 9716   0.832   2.953   1.275
 3251TIP3    H1 9717   0.926   2.970   1.284
 3251TIP3    H2 9718   0.822   2.922   1.185
 3252TIP3   OH2 9719   4.306   4.812   2.853
 3252TIP3    H1 9720   4.301   4.895   2.901
 3252TIP3    H2 9721   4.219   4.773   2.864
 3253TIP3   OH2 9722   2.875   2.971   5.554
 3253TIP3    H1 9723   2.921   2.977   5.470
 3253TIP3    H2 9724   2.793   3.018   5.539
 3254TIP3   OH2 9725   4.864   5.133   5.474
 3254TIP3    H1 9726   4.834   5.047   5.505
 3254TIP3    H2 9727   4.941   5.152   5.527
 3255TIP3   OH2 9728   4.499   0.757   2.465
 3255TIP3    H1 9729   4.573   0.801   2.423
 3255TIP3    H2 9730   4.488   0.676   2.415
 3256TIP3   OH2 9731   1.169   1.202   2.362
 3256TIP3    H1 9732   1.168   1.132   2.428
 3256TIP3    H2 9733   1.176   1.282   2.413
 3257TIP3   OH2 9734   2.453   3.945   2.165
 3257TIP3    H1 9735   2.540   3.983   2.159
 3257TIP3    H2 9736   2.400   3.994   2.102
 3258TIP3   OH2 9737   5.235   3.634   4.886
 3258TIP3    H1 9738   5.330   3.647   4.878
 3258TIP3    H2 9739   5.214   3.572   4.817
 3259TIP3   OH2 9740   3.132   0.388   5.557
 3259TIP3    H1 9741   3.198   0.450   5.524
 3259TIP3    H2 9742   3.172   0.351   5.636
 3260TIP3   OH2 9743   6.496   5.701   2.699
 3260TIP3    H1 9744   6.457   5.620   2.667
 3260TIP3    H2 9745   6.423   5.749   2.738
 3261TIP3   OH2 9746   6.640   3.065   2.484
 3261TIP3    H1 9747   6.579   3.043   2.555
 3261TIP3    H2 9748   6.638   2.989   2.426
 3262TIP3   OH2 9749   3.308   3.349   0.812
 3262TIP3    H1 9750   3.235   3.295   0.841
 3262TIP3    H2 9751   3.273   3.402   0.741
 3263TIP3   OH2 9752   6.340   6.438   5.419
 3263TIP3    H1 9753   6.256   6.404   5.448
 3263TIP3    H2 9754   6.350   6.521   5.467
 3264TIP3   OH2 9755   6.567   0.581   2.053
 3264TIP3    H1 9756   6.489   0.632   2.030
 3264TIP3    H2 9757   6.614   0.636   2.115
 3265TIP3   OH2 9758   1.567   6.183   2.183
 3265TIP3    H1 9759   1.608   6.244   2.121
 3265TIP3    H2 9760   1.638   6.126   2.212
 3266TIP3   OH2 9761   0.264   3.917   3.666
 3266TIP3    H1 9762   0.197   3.916   3.598
 3266TIP3    H2 9763   0.313   3.998   3.650
 3267TIP3   OH2 9764   4.855   2.357   2.169
 3267TIP3    H1 9765   4.886   2.346   2.079
 3267TIP3    H2 9766   4.932   2.340   2.223
 3268TIP3   OH2 9767   1.851   1.958   4.363
 3268TIP3    H1 9768   1.855   1.886   4.426
 3268TIP3    H2 9769   1.820   1.918   4.282
 3269TIP3   OH2 9770   5.265   0.837   5.183
 3269TIP3    H1 9771   5.261   0.787   5.101
 3269TIP3    H2 9772   5.293   0.773   5.248
 3270TIP3   OH2 9773   3.548   3.441   4.624
 3270TIP3    H1 9774   3.535   3.420   4.532
 3270TIP3    H2 9775   3.594   3.365   4.660
 3271TIP3   OH2 9776   0.459   2.193   0.679
 3271TIP3    H1 9777   0.500   2.258   0.736
 3271TIP3    H2 9778   0.433   2.122   0.738
 3272TIP3   OH2 9779   5.320   4.756   4.482
 3272TIP3    H1 9780   5.289   4.671   4.513
 3272TIP3    H2 9781   5.240   4.806   4.464
 3273TIP3   OH2 9782   4.794   6.466   5.769
 3273TIP3    H1 9783   4.789   6.550   5.724
 3273TIP3    H2 9784   4.827   6.405   5.702
 3274TIP3   OH2 9785   4.524   4.509   5.594
 3274TIP3    H1 9786   4.601   4.486   5.542
 3274TIP3    H2 9787   4.461   4.438   5.577
 3275TIP3   OH2 9788   5.908   4.926   3.654
 3275TIP3    H1 9789   5.960   4.928   3.573
 3275TIP3    H2 9790   5.850   4.850   3.642
 3276TIP3   OH2 9791   6.508   5.704   5.779
 3276TIP3    H1 9792   6.423   5.682   5.817
 3276TIP3    H2 9793   6.572   5.685   5.849
 3277TIP3   OH2 9794   5.272   0.836   2.212
 3277TIP3    H1 9795   5.210   0.835   2.284
 3277TIP3    H2 9796   5.233   0.894   2.146
 3278TIP3   OH2 9797   2.625   2.491   3.857
 3278TIP3    H1 9798   2.607   2.516   3.947
 3278TIP3    H2 9799   2.631   2.395   3.859
 3279TIP3   OH2 9800   6.109   3.162   4.124
 3279TIP3    H1 9801   6.043   3.219   4.164
 3279TIP3    H2 9802   6.081   3.153   4.033
 3280TIP3   OH2 9803   0.854   2.039   2.641
 3280TIP3    H1 9804   0.782   2.024   2.702
 3280TIP3    H2 9805   0.839   2.127   2.606
 3281TIP3   OH2 9806   4.889   3.187   5.731
 3281TIP3    H1 9807   4.973   3.208   5.771
 3281TIP3    H2 9808   4.868   3.264   5.677
 3282TIP3   OH2 9809   3.576   6.053   1.212
 3282TIP3    H1 9810   3.627   6.105   1.274
 3282TIP3    H2 9811   3.530   6.117   1.158
 3283TIP3   OH2 9812   6.666   5.448   4.761
 3283TIP3    H1 9813   6.697   5.425   4.849
 3283TIP3    H2 9814   6.592   5.507   4.777
 3284TIP3   OH2 9815   3.672   0.397   5.084
 3284TIP3    H1 9816   3.675   0.441   5.169
 3284TIP3    H2 9817   3.762   0.366   5.070
 3285TIP3   OH2 9818   4.986   2.182   0.573
 3285TIP3    H1 9819   4.940   2.162   0.492
 3285TIP3    H2 9820   4.966   2.274   0.590
 3286TIP3   OH2 9821   6.580   6.689   1.250
 3286TIP3    H1 9822   6.671   6.717   1.250
 3286TIP3    H2 9823   6.533   6.763   1.210
 3287TIP3   OH2 9824   2.470   3.107   5.687
 3287TIP3    H1 9825   2.479   3.197   5.719
 3287TIP3    H2 9826   2.530   3.103   5.612
 3288TIP3   OH2 9827   4.438   5.562   4.740
 3288TIP3    H1 9828   4.525   5.532   4.766
 3288TIP3    H2 9829   4.453   5.615   4.663
 3289TIP3   OH2 9830   4.699   0.150   2.864
 3289TIP3    H1 9831   4.669   0.241   2.862
 3289TIP3    H2 9832   4.687   0.119   2.775
 3290TIP3   OH2 9833   6.415   3.139   1.999
 3290TIP3    H1 9834   6.440   3.063   1.946
 3290TIP3    H2 9835   6.383   3.102   2.081
 3291TIP3   OH2 9836   6.762   5.120   3.904
 3291TIP3    H1 9837   6.750   5.085   3.816
 3291TIP3    H2 9838   6.833   5.184   3.895
 3292TIP3   OH2 9839   3.854   5.076   4.951
 3292TIP3    H1 9840   3.900   5.152   4.914
 3292TIP3    H2 9841   3.899   5.001   4.913
 3293TIP3   OH2 9842   6.161   5.369   4.300
 3293TIP3    H1 9843   6.143   5.345   4.210
 3293TIP3    H2 9844   6.237   5.427   4.295
 3294TIP3   OH2 9845   4.542   6.638   5.618
 3294TIP3    H1 9846   4.492   6.700   5.565
 3294TIP3    H2 9847   4.503   6.552   5.599
 3295TIP3   OH2 9848   3.645   2.315   0.404
 3295TIP3    H1 9849   3.567   2.263   0.420
 3295TIP3    H2 9850   3.715   2.251   0.391
 3296TIP3   OH2 9851   3.382   0.879   5.898
 3296TIP3    H1 9852   3.395   0.970   5.871
 3296TIP3    H2 9853   3.470   0.849   5.922
 3297TIP3   OH2 9854   6.113   6.133   0.336
 3297TIP3    H1 9855   6.050   6.201   0.313
 3297TIP3    H2 9856   6.081   6.096   0.418
 3298TIP3   OH2 9857   1.119   4.395   3.634
 3298TIP3    H1 9858   1.184   4.324   3.641
 3298TIP3    H2 9859   1.154   4.466   3.687
 3299TIP3   OH2 9860   1.206   5.770   2.129
 3299TIP3    H1 9861   1.297   5.799   2.136
 3299TIP3    H2 9862   1.204   5.716   2.049
 3300TIP3   OH2 9863   0.713   6.031   3.807
 3300TIP3    H1 9864   0.805   6.057   3.800
 3300TIP3    H2 9865   0.673   6.060   3.725
 3301TIP3   OH2 9866   2.102   4.708   5.447
 3301TIP3    H1 9867   2.145   4.629   5.480
 3301TIP3    H2 9868   2.131   4.715   5.356
 3302TIP3   OH2 9869   6.677   6.642   3.242
 3302TIP3    H1 9870   6.601   6.674   3.193
 3302TIP3    H2 9871   6.742   6.623   3.174
 3303TIP3   OH2 9872   3.305   5.582   5.525
 3303TIP3    H1 9873   3.233   5.524   5.550
 3303TIP3    H2 9874   3.268   5.639   5.457
 3304TIP3   OH2 9875   0.233   2.421   1.970
 3304TIP3    H1 9876   0.180   2.343   1.956
 3304TIP3    H2 9877   0.219   2.444   2.061
 3305TIP3   OH2 9878   2.540   1.308   1.539
 3305TIP3    H1 9879   2.447   1.310   1.518
 3305TIP3    H2 9880   2.542   1.293   1.634
 3306TIP3   OH2 9881   4.192   3.956   4.294
 3306TIP3    H1 9882   4.234   4.038   4.270
 3306TIP3    H2 9883   4.183   3.960   4.389
 3307TIP3   OH2 9884   5.846   5.231   0.666
 3307TIP3    H1 9885   5.855   5.322   0.694
 3307TIP3    H2 9886   5.916   5.219   0.601
 3308TIP3   OH2 9887   6.008   0.989   4.100
 3308TIP3    H1 9888   5.976   0.902   4.075
 3308TIP3    H2 9889   6.078   0.972   4.162
 3309TIP3   OH2 9890   3.474   4.072   1.145
 3309TIP3    H1 9891   3.410   4.085   1.076
 3309TIP3    H2 9892   3.424   4.083   1.226
 3310TIP3   OH2 9893   0.745   4.418   3.305
 3310TIP3    H1 9894   0.700   4.450   3.384
 3310TIP3    H2 9895   0.720   4.480   3.237
 3311TIP3   OH2 9896   2.763   0.233   4.723
 3311TIP3    H1 9897   2.684   0.197   4.682
 3311TIP3    H2 9898   2.788   0.306   4.667
 3312TIP3   OH2 9899   1.192   3.404   2.646
 3312TIP3    H1 9900   1.228   3.316   2.653
 3312TIP3    H2 9901   1.200   3.441   2.734
 3313TIP3   OH2 9902   4.252   1.649   5.554
 3313TIP3    H1 9903   4.166   1.625   5.519
 3313TIP3    H2 9904   4.268   1.737   5.521
 3314TIP3   OH2 9905   6.798   4.271   3.355
 3314TIP3    H1 9906   6.790   4.261   3.260
 3314TIP3    H2 9907   6.722   4.224   3.390
 3315TIP3   OH2 9908   6.546   5.150   1.349
 3315TIP3    H1 9909   6.517   5.107   1.268
 3315TIP3    H2 9910   6.491   5.228   1.355
 3316TIP3   OH2 9911   6.793   1.307   4.179
 3316TIP3    H1 9912   6.825   1.361   4.251
 3316TIP3    H2 9913   6.709   1.346   4.155
 3317TIP3   OH2 9914   5.174   3.247   0.579
 3317TIP3    H1 9915   5.208   3.235   0.668
 3317TIP3    H2 9916   5.245   3.289   0.531
 3318TIP3   OH2 9917   3.316   5.767   2.302
 3318TIP3    H1 9918   3.396   5.792   2.347
 3318TIP3    H2 9919   3.344   5.745   2.213
 3319TIP3   OH2 9920   4.570   0.402   1.653
 3319TIP3    H1 9921   4.566   0.335   1.721
 3319TIP3    H2 9922   4.537   0.481   1.695
 3320TIP3   OH2 9923   4.998   3.823   3.152
 3320TIP3    H1 9924   5.085   3.784   3.145
 3320TIP3    H2 9925   5.003   3.901   3.097
 3321TIP3   OH2 9926   1.174   4.505   0.265
 3321TIP3    H1 9927   1.240   4.508   0.196
 3321TIP3    H2 9928   1.219   4.540   0.343
 3322TIP3   OH2 9929   3.602   0.561   5.339
 3322TIP3    H1 9930   3.517   0.579   5.380
 3322TIP3    H2 9931   3.659   0.535   5.412
 3323TIP3   OH2 9932   6.954   0.265   5.614
 3323TIP3    H1 9933   6.894   0.193   5.633
 3323TIP3    H2 9934   7.025   0.255   5.677
 3324TIP3   OH2 9935   1.818   2.449   4.986
 3324TIP3    H1 9936   1.809   2.415   5.075
 3324TIP3    H2 9937   1.730   2.480   4.964
 3325TIP3   OH2 9938   0.106   5.517   0.163
 3325TIP3    H1 9939   0.039   5.449   0.152
 3325TIP3    H2 9940   0.057   5.600   0.162
 3326TIP3   OH2 9941   6.043   0.533   3.934
 3326TIP3    H1 9942   6.054   0.500   3.845
 3326TIP3    H2 9943   6.127   0.574   3.954
 3327TIP3   OH2 9944   2.672   1.205   0.609
 3327TIP3    H1 9945   2.671   1.180   0.701
 3327TIP3    H2 9946   2.628   1.134   0.563
 3328TIP3   OH2 9947   2.743   2.299   4.849
 3328TIP3    H1 9948   2.736   2.352   4.770
 3328TIP3    H2 9949   2.815   2.338   4.898
 3329TIP3   OH2 9950   6.072   3.042   3.285
 3329TIP3    H1 9951   6.123   3.123   3.290
 3329TIP3    H2 9952   6.130   2.979   3.244
 3330TIP3   OH2 9953   3.641   6.119   4.842
 3330TIP3    H1 9954   3.726   6.125   4.800
 3330TIP3    H2 9955   3.642   6.188   4.909
 3331TIP3   OH2 9956   3.501   1.594   3.784
 3331TIP3    H1 9957   3.553   1.523   3.821
 3331TIP3    H2 9958   3.559   1.671   3.788
 3332TIP3   OH2 9959   1.113   1.798   3.836
 3332TIP3    H1 9960   1.108   1.826   3.928
 3332TIP3    H2 9961   1.124   1.880   3.787
 3333TIP3   OH2 9962   6.830   0.468   3.222
 3333TIP3    H1 9963   6.839   0.519   3.141
 3333TIP3    H2 9964   6.884   0.390   3.207
 3334TIP3   OH2 9965   2.861   1.365   2.578
 3334TIP3    H1 9966   2.794   1.424   2.612
 3334TIP3    H2 9967   2.926   1.359   2.648
 3335TIP3   OH2 9968   6.466   6.573   3.429
 3335TIP3    H1 9969   6.529   6.632   3.387
 3335TIP3    H2 9970   6.455   6.502   3.367
 3336TIP3   OH2 9971   0.617   3.292   2.504
 3336TIP3    H1 9972   0.705   3.327   2.523
 3336TIP3    H2 9973   0.583   3.267   2.590
 3337TIP3   OH2 9974   6.520   4.866   4.458
 3337TIP3    H1 9975   6.579   4.935   4.488
 3337TIP3    H2 9976   6.577   4.790   4.444
 3338TIP3   OH2 9977   2.432   0.883   1.131
 3338TIP3    H1 9978   2.490   0.807   1.118
 3338TIP3    H2 9979   2.448   0.910   1.221
 3339TIP3   OH2 9980   5.231   1.562   4.046
 3339TIP3    H1 9981   5.159   1.514   4.004
 3339TIP3    H2 9982   5.225   1.650   4.010
 3340TIP3   OH2 9983   6.984   5.308   4.121
 3340TIP3    H1 9984   7.000   5.299   4.027
 3340TIP3    H2 9985   7.060   5.355   4.154
 3341TIP3   OH2 9986   0.871   4.781   5.492
 3341TIP3    H1 9987   0.830   4.783   5.579
 3341TIP3    H2 9988   0.839   4.700   5.452
 3342TIP3   OH2 9989   2.162   4.551   2.563
 3342TIP3    H1 9990   2.122   4.504   2.490
 3342TIP3    H2 9991   2.229   4.606   2.522
 3343TIP3   OH2 9992   2.633   2.038   1.425
 3343TIP3    H1 9993   2.575   2.113   1.416
 3343TIP3    H2 9994   2.720   2.072   1.405
 3344TIP3   OH2 9995   5.395   0.282   1.872
 3344TIP3    H1 9996   5.332   0.321   1.812
 3344TIP3    H2 9997   5.349   0.207   1.910
 3345TIP3   OH2 9998   3.386   2.546   5.327
 3345TIP3    H1 9999   3.434   2.477   5.282
 3345TIP3    H210000   3.314   2.500   5.370
 3346TIP3   OH210001   3.083   4.281   3.532
 3346TIP3    H110002   3.053   4.254   3.619
 3346TIP3    H210003   3.004   4.310   3.487
 3347TIP3   OH210004   5.306   1.595   1.422
 3347TIP3    H110005   5.275   1.590   1.513
 3347TIP3    H210006   5.250   1.662   1.382
 3348TIP3   OH210007   2.584   4.999   4.018
 3348TIP3    H110008   2.648   4.980   4.087
 3348TIP3    H210009   2.626   5.066   3.965
 3349TIP3   OH210010   3.758   1.682   1.684
 3349TIP3    H110011   3.804   1.659   1.765
 3349TIP3    H210012   3.665   1.681   1.709
 3350TIP3   OH210013   6.941   0.696   1.921
 3350TIP3    H110014   6.914   0.782   1.888
 3350TIP3    H210015   7.036   0.696   1.912
 3351TIP3   OH210016   1.936   6.325   4.387
 3351TIP3    H110017   1.894   6.359   4.308
 3351TIP3    H210018   2.015   6.280   4.355
 3352TIP3   OH210019   3.832   5.584   2.179
 3352TIP3    H110020   3.902   5.527   2.209
 3352TIP3    H210021   3.870   5.672   2.183
 3353TIP3   OH210022   0.670   3.576   3.208
 3353TIP3    H110023   0.613   3.583   3.284
 3353TIP3    H210024   0.708   3.663   3.198
 3354TIP3   OH210025   2.256   3.584   3.775
 3354TIP3    H110026   2.201   3.662   3.785
 3354TIP3    H210027   2.297   3.572   3.860
 3355TIP3   OH210028   2.753   2.500   0.550
 3355TIP3    H110029   2.699   2.570   0.514
 3355TIP3    H210030   2.841   2.518   0.517
 3356TIP3   OH210031   0.610   0.895   5.696
 3356TIP3    H110032   0.632   0.859   5.781
 3356TIP3    H210033   0.524   0.935   5.708
 3357TIP3   OH210034   5.558   0.951   3.595
 3357TIP3    H110035   5.557   0.862   3.559
 3357TIP3    H210036   5.585   1.006   3.521
 3358TIP3   OH210037   5.331   4.288   2.307
 3358TIP3    H110038   5.380   4.356   2.353
 3358TIP3    H210039   5.393   4.215   2.298
 3359TIP3   OH210040   7.117   2.918   0.178
 3359TIP3    H110041   7.204   2.932   0.217
 3359TIP3    H210042   7.100   2.825   0.192
 3360TIP3   OH210043   3.077   3.673   3.512
 3360TIP3    H110044   3.025   3.649   3.435
 3360TIP3    H210045   3.082   3.768   3.510
 3361TIP3   OH210046   1.253   3.378   2.062
 3361TIP3    H110047   1.300   3.295   2.062
 3361TIP3    H210048   1.321   3.445   2.069
 3362TIP3   OH210049   2.941   5.968   1.197
 3362TIP3    H110050   3.018   5.980   1.142
 3362TIP3    H210051   2.976   5.950   1.285
 3363TIP3   OH210052   1.226   1.361   2.119
 3363TIP3    H110053   1.320   1.371   2.105
 3363TIP3    H210054   1.218   1.321   2.205
 3364TIP3   OH210055   2.175   5.068   0.227
 3364TIP3    H110056   2.157   5.101   0.139
 3364TIP3    H210057   2.149   5.140   0.285
 3365TIP3   OH210058   1.120   4.524   5.468
 3365TIP3    H110059   1.138   4.549   5.377
 3365TIP3    H210060   1.122   4.428   5.468
 3366TIP3   OH210061   1.616   3.129   5.533
 3366TIP3    H110062   1.580   3.059   5.479
 3366TIP3    H210063   1.657   3.084   5.607
 3367TIP3   OH210064   0.668   4.783   5.254
 3367TIP3    H110065   0.709   4.834   5.185
 3367TIP3    H210066   0.650   4.847   5.323
 3368TIP3   OH210067   2.605   4.210   1.775
 3368TIP3    H110068   2.660   4.191   1.852
 3368TIP3    H210069   2.526   4.250   1.812
 3369TIP3   OH210070   2.736   6.606   5.353
 3369TIP3    H110071   2.800   6.664   5.395
 3369TIP3    H210072   2.788   6.538   5.312
 3370TIP3   OH210073   1.537   6.061   5.807
 3370TIP3    H110074   1.512   6.053   5.899
 3370TIP3    H210075   1.453   6.066   5.760
 3371TIP3   OH210076   5.737   1.517   0.387
 3371TIP3    H110077   5.748   1.581   0.317
 3371TIP3    H210078   5.806   1.453   0.373
 3372TIP3   OH210079   3.167   3.343   1.479
 3372TIP3    H110080   3.125   3.266   1.442
 3372TIP3    H210081   3.143   3.342   1.572
 3373TIP3   OH210082   6.199   2.116   0.530
 3373TIP3    H110083   6.286   2.096   0.563
 3373TIP3    H210084   6.216   2.166   0.449
 3374TIP3   OH210085   0.498   4.631   4.688
 3374TIP3    H110086   0.462   4.698   4.629
 3374TIP3    H210087   0.587   4.661   4.707
 3375TIP3   OH210088   1.649   4.462   2.814
 3375TIP3    H110089   1.730   4.423   2.781
 3375TIP3    H210090   1.591   4.465   2.738
 3376TIP3   OH210091   5.477   5.716   1.984
 3376TIP3    H110092   5.421   5.747   2.056
 3376TIP3    H210093   5.440   5.631   1.960
 3377TIP3   OH210094   2.374   4.995   5.534
 3377TIP3    H110095   2.427   4.919   5.558
 3377TIP3    H210096   2.438   5.059   5.501
 3378TIP3   OH210097   5.617   2.386   1.981
 3378TIP3    H110098   5.633   2.445   1.907
 3378TIP3    H210099   5.670   2.309   1.960
 3379TIP3   OH210100   5.528   5.820   1.077
 3379TIP3    H110101   5.541   5.855   1.165
 3379TIP3    H210102   5.562   5.731   1.081
 3380TIP3   OH210103   0.653   4.126   3.431
 3380TIP3    H110104   0.716   4.056   3.414
 3380TIP3    H210105   0.707   4.199   3.464
 3381TIP3   OH210106   6.346   0.800   2.587
 3381TIP3    H110107   6.279   0.854   2.545
 3381TIP3    H210108   6.309   0.778   2.672
 3382TIP3   OH210109   5.119   0.693   1.230
 3382TIP3    H110110   5.165   0.777   1.237
 3382TIP3    H210111   5.174   0.640   1.173
 3383TIP3   OH210112   6.014   4.444   5.047
 3383TIP3    H110113   6.018   4.467   5.140
 3383TIP3    H210114   6.085   4.493   5.007
 3384TIP3   OH210115   2.375   2.909   0.123
 3384TIP3    H110116   2.284   2.881   0.134
 3384TIP3    H210117   2.374   2.964   0.044
 3385TIP3   OH210118   6.853   0.473   0.090
 3385TIP3    H110119   6.921   0.462   0.024
 3385TIP3    H210120   6.895   0.451   0.173
 3386TIP3   OH210121   3.183   2.420   3.243
 3386TIP3    H110122   3.268   2.455   3.269
 3386TIP3    H210123   3.125   2.439   3.318
 3387TIP3   OH210124   0.081   0.146   2.036
 3387TIP3    H110125   0.095   0.080   2.103
 3387TIP3    H210126   0.169   0.175   2.011
 3388TIP3   OH210127   6.911   5.905   5.257
 3388TIP3    H110128   6.967   5.956   5.315
 3388TIP3    H210129   6.957   5.904   5.173
 3389TIP3   OH210130   2.776   6.352   1.547
 3389TIP3    H110131   2.733   6.268   1.532
 3389TIP3    H210132   2.708   6.417   1.532
 3390TIP3   OH210133   4.703   0.388   3.349
 3390TIP3    H110134   4.623   0.383   3.297
 3390TIP3    H210135   4.690   0.326   3.420
 3391TIP3   OH210136   5.146   4.356   3.749
 3391TIP3    H110137   5.218   4.411   3.780
 3391TIP3    H210138   5.102   4.327   3.829
 3392TIP3   OH210139   5.816   4.138   5.533
 3392TIP3    H110140   5.751   4.096   5.476
 3392TIP3    H210141   5.874   4.185   5.473
 3393TIP3   OH210142   2.103   1.364   4.164
 3393TIP3    H110143   2.025   1.400   4.208
 3393TIP3    H210144   2.093   1.391   4.073
 3394TIP3   OH210145   3.737   4.390   5.859
 3394TIP3    H110146   3.729   4.456   5.790
 3394TIP3    H210147   3.832   4.381   5.872
 3395TIP3   OH210148   4.464   6.163   0.544
 3395TIP3    H110149   4.412   6.243   0.552
 3395TIP3    H210150   4.414   6.109   0.482
 3396TIP3   OH210151   0.746   0.491   0.557
 3396TIP3    H110152   0.699   0.574   0.569
 3396TIP3    H210153   0.690   0.441   0.498
 3397TIP3   OH210154   5.623   3.082   3.016
 3397TIP3    H110155   5.588   3.087   2.927
 3397TIP3    H210156   5.672   3.163   3.027
 3398TIP3   OH210157   1.547   3.126   4.843
 3398TIP3    H110158   1.551   3.148   4.936
 3398TIP3    H210159   1.505   3.040   4.840
 3399TIP3   OH210160   5.974   5.457   0.766
 3399TIP3    H110161   6.010   5.505   0.841
 3399TIP3    H210162   6.003   5.506   0.690
 3400TIP3   OH210163   6.708   3.996   4.404
 3400TIP3    H110164   6.666   4.031   4.325
 3400TIP3    H210165   6.762   3.923   4.372
 3401TIP3   OH210166   1.785   1.828   4.138
 3401TIP3    H110167   1.717   1.883   4.099
 3401TIP3    H210168   1.803   1.762   4.071
 3402TIP3   OH210169   1.129   5.453   5.895
 3402TIP3    H110170   1.132   5.495   5.809
 3402TIP3    H210171   1.194   5.499   5.947
 3403TIP3   OH210172   2.727   5.706   3.781
 3403TIP3    H110173   2.815   5.720   3.815
 3403TIP3    H210174   2.726   5.756   3.699
 3404TIP3   OH210175   6.608   3.440   1.383
 3404TIP3    H110176   6.581   3.498   1.312
 3404TIP3    H210177   6.526   3.399   1.412
 3405TIP3   OH210178   0.041   4.072   1.691
 3405TIP3    H110179  -0.054   4.060   1.682
 3405TIP3    H210180   0.050   4.158   1.734
 3406TIP3   OH210181   7.033   6.675   2.417
 3406TIP3    H110182   7.069   6.592   2.386
 3406TIP3    H210183   6.938   6.665   2.409
 3407TIP3   OH210184   6.609   0.392   5.416
 3407TIP3    H110185   6.577   0.416   5.503
 3407TIP3    H210186   6.704   0.400   5.422
 3408TIP3   OH210187   1.420   6.689   4.264
 3408TIP3    H110188   1.420   6.718   4.355
 3408TIP3    H210189   1.400   6.595   4.269
 3409TIP3   OH210190   4.578   0.951   3.004
 3409TIP3    H110191   4.661   0.983   2.968
 3409TIP3    H210192   4.529   0.922   2.927
 3410TIP3   OH210193   1.093   2.175   3.289
 3410TIP3    H110194   1.107   2.081   3.274
 3410TIP3    H210195   1.014   2.178   3.343
 3411TIP3   OH210196   4.646   5.523   4.415
 3411TIP3    H110197   4.734   5.529   4.376
 3411TIP3    H210198   4.647   5.587   4.486
 3412TIP3   OH210199   5.640   1.890   2.986
 3412TIP3    H110200   5.588   1.947   2.929
 3412TIP3    H210201   5.599   1.897   3.072
 3413TIP3   OH210202   4.686   5.891   3.948
 3413TIP3    H110203   4.693   5.887   4.044
 3413TIP3    H210204   4.773   5.863   3.917
 3414TIP3   OH210205   3.032   1.021   1.110
 3414TIP3    H110206   2.987   1.087   1.163
 3414TIP3    H210207   2.961   0.967   1.074
 3415TIP3   OH210208   0.126   3.772   4.144
 3415TIP3    H110209   0.172   3.837   4.196
 3415TIP3    H210210   0.148   3.688   4.185
 3416TIP3   OH210211   0.056   5.766   5.366
 3416TIP3    H110212   0.089   5.843   5.413
 3416TIP3    H210213   0.024   5.708   5.435
 3417TIP3   OH210214   1.518   4.978   0.349
 3417TIP3    H110215   1.463   4.964   0.426
 3417TIP3    H210216   1.456   4.997   0.279
 3418TIP3   OH210217   3.414   2.415   0.631
 3418TIP3    H110218   3.404   2.501   0.672
 3418TIP3    H210219   3.509   2.401   0.629
 3419TIP3   OH210220   4.675   1.180   0.102
 3419TIP3    H110221   4.724   1.177   0.184
 3419TIP3    H210222   4.717   1.248   0.050
 3420TIP3   OH210223   3.890   2.355   0.166
 3420TIP3    H110224   3.838   2.410   0.107
 3420TIP3    H210225   3.838   2.275   0.176
 3421TIP3   OH210226   2.835   0.037   0.061
 3421TIP3    H110227   2.765   0.027   0.126
 3421TIP3    H210228   2.913   0.003   0.105
 3422TIP3   OH210229   2.292   5.389   0.646
 3422TIP3    H110230   2.311   5.336   0.568
 3422TIP3    H210231   2.305   5.479   0.618
 3423TIP3   OH210232   4.565   0.883   1.138
 3423TIP3    H110233   4.488   0.864   1.084
 3423TIP3    H210234   4.585   0.799   1.180
 3424TIP3   OH210235   3.781   6.522   4.523
 3424TIP3    H110236   3.817   6.485   4.603
 3424TIP3    H210237   3.692   6.549   4.547
 3425TIP3   OH210238   1.617   0.886   4.607
 3425TIP3    H110239   1.669   0.873   4.527
 3425TIP3    H210240   1.559   0.959   4.586
 3426TIP3   OH210241   5.274   2.719   3.545
 3426TIP3    H110242   5.356   2.670   3.542
 3426TIP3    H210243   5.299   2.808   3.518
 3427TIP3   OH210244   6.389   2.032   3.162
 3427TIP3    H110245   6.410   2.042   3.255
 3427TIP3    H210246   6.364   2.120   3.133
 3428TIP3   OH210247   6.614   0.699   1.175
 3428TIP3    H110248   6.544   0.713   1.111
 3428TIP3    H210249   6.684   0.656   1.126
 3429TIP3   OH210250   0.583   5.453   2.033
 3429TIP3    H110251   0.551   5.367   2.008
 3429TIP3    H210252   0.678   5.448   2.023
 3430TIP3   OH210253   5.245   4.567   0.193
 3430TIP3    H110254   5.242   4.537   0.284
 3430TIP3    H210255   5.154   4.563   0.164
 3431TIP3   OH210256   2.560   2.808   5.781
 3431TIP3    H110257   2.549   2.893   5.739
 3431TIP3    H210258   2.538   2.744   5.713
 3432TIP3   OH210259   6.569   4.575   0.680
 3432TIP3    H110260   6.571   4.583   0.585
 3432TIP3    H210261   6.660   4.581   0.707
 3433TIP3   OH210262   4.391   1.650   1.038
 3433TIP3    H110263   4.417   1.709   1.109
 3433TIP3    H210264   4.437   1.684   0.961
 3434TIP3   OH210265   1.519   3.119   3.514
 3434TIP3    H110266   1.515   3.035   3.468
 3434TIP3    H210267   1.612   3.136   3.525
 3435TIP3   OH210268   1.945   5.869   2.774
 3435TIP3    H110269   1.910   5.931   2.710
 3435TIP3    H210270   1.881   5.868   2.845
 3436TIP3   OH210271   6.035   1.584   3.740
 3436TIP3    H110272   5.997   1.602   3.826
 3436TIP3    H210273   6.070   1.496   3.747
 3437TIP3   OH210274   2.437   5.353   1.221
 3437TIP3    H110275   2.500   5.305   1.168
 3437TIP3    H210276   2.482   5.435   1.244
 3438TIP3   OH210277   5.336   4.359   1.282
 3438TIP3    H110278   5.254   4.378   1.238
 3438TIP3    H210279   5.400   4.419   1.242
 3439TIP3   OH210280   3.806   5.464   4.451
 3439TIP3    H110281   3.771   5.536   4.504
 3439TIP3    H210282   3.885   5.500   4.411
 3440TIP3   OH210283   7.014   6.421   0.186
 3440TIP3    H110284   6.929   6.416   0.231
 3440TIP3    H210285   7.054   6.500   0.220
 3441TIP3   OH210286   7.050   3.973   1.135
 3441TIP3    H110287   7.124   3.921   1.104
 3441TIP3    H210288   7.074   4.064   1.116
 3442TIP3   OH210289   1.840   5.259   0.167
 3442TIP3    H110290   1.827   5.165   0.175
 3442TIP3    H210291   1.819   5.279   0.076
 3443TIP3   OH210292   2.350   4.336   1.874
 3443TIP3    H110293   2.346   4.428   1.848
 3443TIP3    H210294   2.299   4.290   1.807
 3444TIP3   OH210295   5.717   2.204   5.365
 3444TIP3    H110296   5.743   2.117   5.334
 3444TIP3    H210297   5.626   2.213   5.336
 3445TIP3   OH210298   4.498   0.949   1.931
 3445TIP3    H110299   4.531   1.010   1.865
 3445TIP3    H210300   4.430   0.999   1.977
 3446TIP3   OH210301   3.448   2.686   2.561
 3446TIP3    H110302   3.494   2.765   2.589
 3446TIP3    H210303   3.488   2.663   2.477
 3447TIP3   OH210304   2.531   1.341   2.458
 3447TIP3    H110305   2.513   1.326   2.550
 3447TIP3    H210306   2.446   1.335   2.415
 3448TIP3   OH210307   3.114   1.508   4.365
 3448TIP3    H110308   3.031   1.525   4.408
 3448TIP3    H210309   3.179   1.514   4.435
 3449TIP3   OH210310   5.278   5.010   2.161
 3449TIP3    H110311   5.200   5.051   2.199
 3449TIP3    H210312   5.293   4.932   2.214
 3450TIP3   OH210313   6.489   0.323   4.720
 3450TIP3    H110314   6.542   0.244   4.731
 3450TIP3    H210315   6.524   0.385   4.783
 3451TIP3   OH210316   2.377   1.990   1.555
 3451TIP3    H110317   2.451   1.942   1.592
 3451TIP3    H210318   2.394   2.082   1.578
 3452TIP3   OH210319   6.925   0.301   2.859
 3452TIP3    H110320   6.868   0.251   2.800
 3452TIP3    H210321   6.900   0.272   2.947
 3453TIP3   OH210322   5.766   3.234   3.914
 3453TIP3    H110323   5.805   3.192   3.991
 3453TIP3    H210324   5.805   3.322   3.912
 3454TIP3   OH210325   0.606   0.414   5.665
 3454TIP3    H110326   0.545   0.460   5.723
 3454TIP3    H210327   0.692   0.431   5.703
 3455TIP3   OH210328   0.664   0.783   3.570
 3455TIP3    H110329   0.721   0.743   3.635
 3455TIP3    H210330   0.707   0.866   3.549
 3456TIP3   OH210331   3.291   0.975   0.376
 3456TIP3    H110332   3.199   0.985   0.349
 3456TIP3    H210333   3.333   1.055   0.345
 3457TIP3   OH210334   4.423   6.741   0.814
 3457TIP3    H110335   4.372   6.736   0.734
 3457TIP3    H210336   4.359   6.738   0.885
 3458TIP3   OH210337   3.559   2.461   3.552
 3458TIP3    H110338   3.542   2.496   3.464
 3458TIP3    H210339   3.617   2.526   3.592
 3459TIP3   OH210340   1.331   3.364   3.800
 3459TIP3    H110341   1.371   3.402   3.878
 3459TIP3    H210342   1.242   3.341   3.827
 3460TIP3   OH210343   3.658   4.242   4.367
 3460TIP3    H110344   3.665   4.246   4.463
 3460TIP3    H210345   3.575   4.198   4.351
 3461TIP3   OH210346   2.640   6.048   4.277
 3461TIP3    H110347   2.637   6.129   4.327
 3461TIP3    H210348   2.674   5.983   4.339
 3462TIP3   OH210349   6.053   4.274   2.704
 3462TIP3    H110350   6.093   4.307   2.623
 3462TIP3    H210351   6.106   4.314   2.774
 3463TIP3   OH210352   7.049   1.343   1.242
 3463TIP3    H110353   7.130   1.307   1.277
 3463TIP3    H210354   6.981   1.280   1.267
 3464TIP3   OH210355   4.530   3.515   4.419
 3464TIP3    H110356   4.459   3.573   4.392
 3464TIP3    H210357   4.504   3.485   4.506
 3465TIP3   OH210358   7.088   0.839   3.551
 3465TIP3    H110359   7.046   0.790   3.480
 3465TIP3    H210360   7.179   0.810   3.549
 3466TIP3   OH210361   1.013   5.634   4.797
 3466TIP3    H110362   0.923   5.614   4.821
 3466TIP3    H210363   1.006   5.708   4.736
 3467TIP3   OH210364   0.825   1.144   1.987
 3467TIP3    H110365   0.825   1.235   1.957
 3467TIP3    H210366   0.858   1.147   2.076
 3468TIP3   OH210367   4.131   4.440   3.781
 3468TIP3    H110368   4.040   4.425   3.804
 3468TIP3    H210369   4.130   4.519   3.727
 3469TIP3   OH210370   7.116   5.116   4.339
 3469TIP3    H110371   7.068   5.178   4.284
 3469TIP3    H210372   7.049   5.082   4.399
 3470TIP3   OH210373   0.903   2.090   3.465
 3470TIP3    H110374   0.820   2.092   3.512
 3470TIP3    H210375   0.905   2.004   3.423
 3471TIP3   OH210376   1.301   2.167   2.401
 3471TIP3    H110377   1.264   2.211   2.477
 3471TIP3    H210378   1.344   2.090   2.436
 3472TIP3   OH210379   0.016   5.908   1.114
 3472TIP3    H110380  -0.041   5.896   1.190
 3472TIP3    H210381   0.083   5.840   1.124
 3473TIP3   OH210382   4.326   6.637   3.936
 3473TIP3    H110383   4.257   6.637   4.002
 3473TIP3    H210384   4.383   6.565   3.960
 3474TIP3   OH210385   7.147   0.230   4.587
 3474TIP3    H110386   7.151   0.304   4.525
 3474TIP3    H210387   7.181   0.156   4.537
 3475TIP3   OH210388   0.072   0.055   5.730
 3475TIP3    H110389   0.145   0.114   5.710
 3475TIP3    H210390   0.018   0.056   5.651
 3476TIP3   OH210391   6.500   1.975   1.485
 3476TIP3    H110392   6.436   2.045   1.497
 3476TIP3    H210393   6.558   1.982   1.561
 3477TIP3   OH210394   5.504   2.290   0.769
 3477TIP3    H110395   5.487   2.315   0.860
 3477TIP3    H210396   5.588   2.244   0.773
 3478TIP3   OH210397   4.709   5.305   3.987
 3478TIP3    H110398   4.652   5.296   4.064
 3478TIP3    H210399   4.652   5.337   3.918
 3479TIP3   OH210400   3.553   5.214   4.920
 3479TIP3    H110401   3.489   5.277   4.951
 3479TIP3    H210402   3.602   5.189   4.999
 3480TIP3   OH210403   5.515   3.482   3.928
 3480TIP3    H110404   5.463   3.562   3.929
 3480TIP3    H210405   5.481   3.432   3.854
 3481TIP3   OH210406   6.249   5.548   1.305
 3481TIP3    H110407   6.277   5.621   1.250
 3481TIP3    H210408   6.154   5.550   1.301
 3482TIP3   OH210409   0.945   6.454   3.050
 3482TIP3    H110410   0.993   6.419   2.974
 3482TIP3    H210411   0.954   6.549   3.042
 3483TIP3   OH210412   2.991   4.902   5.091
 3483TIP3    H110413   3.064   4.884   5.033
 3483TIP3    H210414   3.030   4.952   5.163
 3484TIP3   OH210415   4.755   1.288   4.978
 3484TIP3    H110416   4.818   1.338   4.925
 3484TIP3    H210417   4.804   1.211   5.006
 3485TIP3   OH210418   3.625   0.067   1.108
 3485TIP3    H110419   3.564   0.059   1.035
 3485TIP3    H210420   3.614   0.157   1.139
 3486TIP3   OH210421   3.062   3.917   1.590
 3486TIP3    H110422   3.057   3.944   1.682
 3486TIP3    H210423   3.153   3.929   1.566
 3487TIP3   OH210424   6.456   4.350   1.061
 3487TIP3    H110425   6.550   4.337   1.077
 3487TIP3    H210426   6.448   4.443   1.041
 3488TIP3   OH210427   2.762   0.471   1.818
 3488TIP3    H110428   2.781   0.419   1.896
 3488TIP3    H210429   2.784   0.561   1.842
 3489TIP3   OH210430   5.924   0.889   0.716
 3489TIP3    H110431   5.903   0.869   0.625
 3489TIP3    H210432   5.981   0.817   0.744
 3490TIP3   OH210433   2.056   6.486   1.944
 3490TIP3    H110434   2.064   6.573   1.905
 3490TIP3    H210435   1.979   6.493   2.001
 3491TIP3   OH210436   2.539   2.314   1.371
 3491TIP3    H110437   2.602   2.361   1.316
 3491TIP3    H210438   2.561   2.342   1.460
 3492TIP3   OH210439   5.210   0.283   5.828
 3492TIP3    H110440   5.131   0.295   5.775
 3492TIP3    H210441   5.270   0.350   5.795
 3493TIP3   OH210442   1.346   6.135   2.363
 3493TIP3    H110443   1.406   6.168   2.296
 3493TIP3    H210444   1.294   6.068   2.318
 3494TIP3   OH210445   4.422   1.841   3.942
 3494TIP3    H110446   4.372   1.789   4.006
 3494TIP3    H210447   4.503   1.862   3.987
 3495TIP3   OH210448   5.616   6.278   5.095
 3495TIP3    H110449   5.626   6.213   5.026
 3495TIP3    H210450   5.550   6.241   5.153
 3496TIP3   OH210451   3.858   2.556   0.976
 3496TIP3    H110452   3.921   2.625   0.996
 3496TIP3    H210453   3.885   2.483   1.031
 3497TIP3   OH210454   6.050   2.115   2.595
 3497TIP3    H110455   6.051   2.209   2.578
 3497TIP3    H210456   6.133   2.098   2.639
 3498TIP3   OH210457   3.742   3.921   0.034
 3498TIP3    H110458   3.829   3.938   0.068
 3498TIP3    H210459   3.693   4.001   0.052
 3499TIP3   OH210460   0.630   1.625   2.487
 3499TIP3    H110461   0.634   1.617   2.582
 3499TIP3    H210462   0.556   1.683   2.470
 3500TIP3   OH210463   1.927   4.961   4.199
 3500TIP3    H110464   1.954   4.983   4.288
 3500TIP3    H210465   2.009   4.950   4.151
 3501TIP3   OH210466   4.918   4.954   3.784
 3501TIP3    H110467   4.881   4.905   3.710
 3501TIP3    H210468   5.011   4.963   3.763
 3502TIP3   OH210469   2.594   0.001   1.639
 3502TIP3    H110470   2.589   0.000   1.544
 3502TIP3    H210471   2.679  -0.038   1.659
 3503TIP3   OH210472   3.391   3.500   4.333
 3503TIP3    H110473   3.349   3.437   4.275
 3503TIP3    H210474   3.474   3.519   4.291
 3504TIP3   OH210475   1.389   1.901   5.675
 3504TIP3    H110476   1.415   1.925   5.586
 3504TIP3    H210477   1.382   1.806   5.673
 3505TIP3   OH210478   4.983   0.334   4.970
 3505TIP3    H110479   4.993   0.382   4.888
 3505TIP3    H210480   4.891   0.345   4.994
 3506TIP3   OH210481   6.455   1.512   5.030
 3506TIP3    H110482   6.500   1.435   4.997
 3506TIP3    H210483   6.373   1.478   5.067
 3507TIP3   OH210484   0.452   6.199   5.459
 3507TIP3    H110485   0.521   6.153   5.507
 3507TIP3    H210486   0.498   6.267   5.410
 3508TIP3   OH210487   4.014   4.642   4.067
 3508TIP3    H110488   3.931   4.615   4.106
 3508TIP3    H210489   4.081   4.598   4.120
 3509TIP3   OH210490   2.012   2.419   3.938
 3509TIP3    H110491   1.996   2.511   3.919
 3509TIP3    H210492   2.067   2.389   3.866
 3510TIP3   OH210493   4.867   3.220   4.167
 3510TIP3    H110494   4.772   3.221   4.167
 3510TIP3    H210495   4.892   3.310   4.143
 3511TIP3   OH210496   7.126   0.477   4.449
 3511TIP3    H110497   7.050   0.457   4.394
 3511TIP3    H210498   7.096   0.549   4.505
 3512TIP3   OH210499   6.567   3.550   2.435
 3512TIP3    H110500   6.618   3.631   2.434
 3512TIP3    H210501   6.632   3.481   2.448
 3513TIP3   OH210502   4.753   3.719   0.471
 3513TIP3    H110503   4.789   3.699   0.384
 3513TIP3    H210504   4.789   3.805   0.492
 3514TIP3   OH210505   0.622   0.186   5.024
 3514TIP3    H110506   0.717   0.191   5.011
 3514TIP3    H210507   0.588   0.265   4.984
 3515TIP3   OH210508   4.394   0.057   4.066
 3515TIP3    H110509   4.400   0.124   3.997
 3515TIP3    H210510   4.360   0.104   4.142
 3516TIP3   OH210511   3.710   4.920   5.691
 3516TIP3    H110512   3.690   4.947   5.780
 3516TIP3    H210513   3.703   4.824   5.693
 3517TIP3   OH210514   0.157   4.581   4.573
 3517TIP3    H110515   0.164   4.665   4.527
 3517TIP3    H210516   0.186   4.517   4.509
 3518TIP3   OH210517   0.796   2.306   0.754
 3518TIP3    H110518   0.796   2.220   0.797
 3518TIP3    H210519   0.736   2.358   0.808
 3519TIP3   OH210520   1.749   5.974   2.236
 3519TIP3    H110521   1.810   5.931   2.176
 3519TIP3    H210522   1.744   5.915   2.311
 3520TIP3   OH210523   6.772   6.337   2.352
 3520TIP3    H110524   6.685   6.363   2.381
 3520TIP3    H210525   6.756   6.262   2.294
 3521TIP3   OH210526   0.352   1.232   2.522
 3521TIP3    H110527   0.377   1.286   2.597
 3521TIP3    H210528   0.263   1.203   2.542
 3522TIP3   OH210529   0.170   0.762   3.610
 3522TIP3    H110530   0.159   0.703   3.536
 3522TIP3    H210531   0.220   0.836   3.575
 3523TIP3   OH210532   2.289   1.788   3.922
 3523TIP3    H110533   2.237   1.868   3.916
 3523TIP3    H210534   2.375   1.812   3.887
 3524TIP3   OH210535   4.763   3.628   5.605
 3524TIP3    H110536   4.709   3.639   5.527
 3524TIP3    H210537   4.826   3.700   5.601
 3525TIP3   OH210538   4.056   5.578   0.088
 3525TIP3    H110539   4.106   5.658   0.071
 3525TIP3    H210540   4.081   5.553   0.176
 3526TIP3   OH210541   2.570   6.022   5.387
 3526TIP3    H110542   2.622   6.074   5.448
 3526TIP3    H210543   2.617   5.939   5.379
 3527TIP3   OH210544   4.767   4.653   4.771
 3527TIP3    H110545   4.815   4.574   4.796
 3527TIP3    H210546   4.803   4.677   4.685
 3528TIP3   OH210547   1.097   6.581   2.647
 3528TIP3    H110548   1.184   6.581   2.605
 3528TIP3    H210549   1.091   6.496   2.690
 3529TIP3   OH210550   1.091   0.292   1.220
 3529TIP3    H110551   1.089   0.198   1.201
 3529TIP3    H210552   1.019   0.328   1.168
 3530TIP3   OH210553   4.566   2.064   4.310
 3530TIP3    H110554   4.545   2.157   4.300
 3530TIP3    H210555   4.604   2.059   4.398
 3531TIP3   OH210556   0.740   2.750   4.933
 3531TIP3    H110557   0.801   2.680   4.956
 3531TIP3    H210558   0.661   2.731   4.984
 3532TIP3   OH210559   4.287   0.461   1.325
 3532TIP3    H110560   4.340   0.514   1.383
 3532TIP3    H210561   4.333   0.377   1.320
 3533TIP3   OH210562   6.814   6.631   5.174
 3533TIP3    H110563   6.737   6.680   5.204
 3533TIP3    H210564   6.883   6.657   5.234
 3534TIP3   OH210565   4.951   4.435   4.761
 3534TIP3    H110566   5.026   4.493   4.743
 3534TIP3    H210567   4.963   4.363   4.700
 3535TIP3   OH210568   1.734   0.492   0.934
 3535TIP3    H110569   1.797   0.522   0.868
 3535TIP3    H210570   1.761   0.534   1.015
 3536TIP3   OH210571   4.988   4.688   4.572
 3536TIP3    H110572   5.032   4.708   4.654
 3536TIP3    H210573   5.046   4.627   4.528
 3537TIP3   OH210574   5.555   1.661   1.546
 3537TIP3    H110575   5.641   1.631   1.517
 3537TIP3    H210576   5.493   1.617   1.487
 3538TIP3   OH210577   5.377   1.217   5.735
 3538TIP3    H110578   5.418   1.281   5.677
 3538TIP3    H210579   5.399   1.246   5.823
 3539TIP3   OH210580   2.968   4.668   3.233
 3539TIP3    H110581   3.004   4.594   3.185
 3539TIP3    H210582   3.042   4.728   3.244
 3540TIP3   OH210583   4.248   5.610   0.958
 3540TIP3    H110584   4.297   5.533   0.986
 3540TIP3    H210585   4.315   5.678   0.946
 3541TIP3   OH210586   6.494   4.341   1.819
 3541TIP3    H110587   6.501   4.249   1.845
 3541TIP3    H210588   6.439   4.381   1.886
 3542TIP3   OH210589   3.503   5.129   3.335
 3542TIP3    H110590   3.489   5.045   3.378
 3542TIP3    H210591   3.528   5.107   3.245
 3543TIP3   OH210592   1.343   5.363   5.167
 3543TIP3    H110593   1.341   5.349   5.262
 3543TIP3    H210594   1.259   5.329   5.136
 3544TIP3   OH210595   7.104   2.455   3.606
 3544TIP3    H110596   7.087   2.361   3.606
 3544TIP3    H210597   7.196   2.463   3.628
 3545TIP3   OH210598   3.241   0.027   2.169
 3545TIP3    H110599   3.221  -0.059   2.132
 3545TIP3    H210600   3.158   0.057   2.205
 3546TIP3   OH210601   3.926   0.020   2.417
 3546TIP3    H110602   3.936   0.001   2.510
 3546TIP3    H210603   3.846  -0.025   2.392
 3547TIP3   OH210604   5.988   2.618   0.566
 3547TIP3    H110605   5.974   2.711   0.583
 3547TIP3    H210606   6.037   2.616   0.484
 3548TIP3   OH210607   4.636   4.009   4.008
 3548TIP3    H110608   4.675   3.972   4.087
 3548TIP3    H210609   4.660   3.949   3.938
 3549TIP3   OH210610   5.636   1.705   0.968
 3549TIP3    H110611   5.551   1.677   1.001
 3549TIP3    H210612   5.618   1.743   0.882
 3550TIP3   OH210613   2.982   0.069   1.451
 3550TIP3    H110614   3.017  -0.001   1.505
 3550TIP3    H210615   2.954   0.136   1.514
 3551TIP3   OH210616   6.849   6.430   4.978
 3551TIP3    H110617   6.896   6.471   4.906
 3551TIP3    H210618   6.813   6.504   5.028
 3552TIP3   OH210619   5.822   3.269   2.232
 3552TIP3    H110620   5.787   3.235   2.149
 3552TIP3    H210621   5.772   3.349   2.248
 3553TIP3   OH210622   5.890   3.985   3.061
 3553TIP3    H110623   5.837   3.919   3.107
 3553TIP3    H210624   5.832   4.060   3.052
 3554TIP3   OH210625   6.436   3.029   0.899
 3554TIP3    H110626   6.362   3.083   0.871
 3554TIP3    H210627   6.397   2.947   0.928
 3555TIP3   OH210628   3.259   3.292   5.102
 3555TIP3    H110629   3.227   3.296   5.192
 3555TIP3    H210630   3.292   3.202   5.093
 3556TIP3   OH210631   5.104   4.953   0.392
 3556TIP3    H110632   5.142   4.879   0.439
 3556TIP3    H210633   5.153   5.029   0.422
 3557TIP3   OH210634   6.573   0.384   2.955
 3557TIP3    H110635   6.581   0.457   3.016
 3557TIP3    H210636   6.639   0.321   2.984
 3558TIP3   OH210637   0.341   2.861   3.690
 3558TIP3    H110638   0.408   2.858   3.758
 3558TIP3    H210639   0.271   2.916   3.727
 3559TIP3   OH210640   6.694   4.172   1.575
 3559TIP3    H110641   6.631   4.117   1.529
 3559TIP3    H210642   6.673   4.161   1.668
 3560TIP3   OH210643   1.030   0.230   0.011
 3560TIP3    H110644   0.976   0.178  -0.049
 3560TIP3    H210645   1.072   0.164   0.067
 3561TIP3   OH210646   2.150   2.126   0.438
 3561TIP3    H110647   2.127   2.035   0.419
 3561TIP3    H210648   2.162   2.167   0.352
 3562TIP3   OH210649   3.344   3.571   5.300
 3562TIP3    H110650   3.267   3.543   5.250
 3562TIP3    H210651   3.327   3.662   5.321
 3563TIP3   OH210652   1.421   4.338   4.925
 3563TIP3    H110653   1.464   4.414   4.887
 3563TIP3    H210654   1.338   4.331   4.877
 3564TIP3   OH210655   2.546   1.925   3.916
 3564TIP3    H110656   2.636   1.895   3.929
 3564TIP3    H210657   2.544   1.958   3.826
 3565TIP3   OH210658   4.109   4.224   3.548
 3565TIP3    H110659   4.114   4.216   3.644
 3565TIP3    H210660   4.170   4.158   3.515
 3566TIP3   OH210661   4.623   3.361   1.538
 3566TIP3    H110662   4.540   3.320   1.517
 3566TIP3    H210663   4.689   3.298   1.512
 3567TIP3   OH210664   4.439   6.330   4.863
 3567TIP3    H110665   4.436   6.238   4.888
 3567TIP3    H210666   4.503   6.369   4.923
 3568TIP3   OH210667   3.870   3.321   3.432
 3568TIP3    H110668   3.871   3.371   3.350
 3568TIP3    H210669   3.882   3.386   3.501
 3569TIP3   OH210670   1.111   3.575   3.741
 3569TIP3    H110671   1.104   3.536   3.654
 3569TIP3    H210672   1.197   3.617   3.742
 3570TIP3   OH210673   0.740   0.837   4.306
 3570TIP3    H110674   0.680   0.810   4.376
 3570TIP3    H210675   0.814   0.777   4.315
 3571TIP3   OH210676   2.299   4.261   3.134
 3571TIP3    H110677   2.254   4.243   3.217
 3571TIP3    H210678   2.310   4.175   3.093
 3572TIP3   OH210679   2.339   5.768   2.183
 3572TIP3    H110680   2.256   5.724   2.201
 3572TIP3    H210681   2.369   5.730   2.101
 3573TIP3   OH210682   6.284   3.082   5.763
 3573TIP3    H110683   6.279   3.164   5.714
 3573TIP3    H210684   6.195   3.047   5.762
 3574TIP3   OH210685   2.111   4.747   4.376
 3574TIP3    H110686   2.091   4.837   4.401
 3574TIP3    H210687   2.121   4.750   4.281
 3575TIP3   OH210688   1.887   6.175   2.059
 3575TIP3    H110689   1.918   6.157   1.970
 3575TIP3    H210690   1.878   6.089   2.099
 3576TIP3   OH210691   4.957   1.162   1.568
 3576TIP3    H110692   4.943   1.167   1.473
 3576TIP3    H210693   4.893   1.223   1.604
 3577TIP3   OH210694   1.018   3.668   1.287
 3577TIP3    H110695   0.964   3.637   1.214
 3577TIP3    H210696   1.004   3.763   1.289
 3578TIP3   OH210697   5.748   5.518   3.813
 3578TIP3    H110698   5.742   5.426   3.840
 3578TIP3    H210699   5.810   5.557   3.875
 3579TIP3   OH210700   1.374   2.530   0.018
 3579TIP3    H110701   1.282   2.552   0.034
 3579TIP3    H210702   1.379   2.436   0.036
 3580TIP3   OH210703   2.666   2.616   2.016
 3580TIP3    H110704   2.609   2.541   2.001
 3580TIP3    H210705   2.635   2.683   1.954
 3581TIP3   OH210706   1.116   5.152   0.980
 3581TIP3    H110707   1.130   5.146   0.885
 3581TIP3    H210708   1.099   5.062   1.007
 3582TIP3   OH210709   4.923   3.159   1.067
 3582TIP3    H110710   4.873   3.166   0.985
 3582TIP3    H210711   4.932   3.249   1.097
 3583TIP3   OH210712   6.862   4.747   3.643
 3583TIP3    H110713   6.875   4.670   3.588
 3583TIP3    H210714   6.935   4.805   3.623
 3584TIP3   OH210715   0.808   3.690   2.113
 3584TIP3    H110716   0.892   3.646   2.122
 3584TIP3    H210717   0.798   3.739   2.195
 3585TIP3   OH210718   6.549   4.777   5.367
 3585TIP3    H110719   6.568   4.727   5.447
 3585TIP3    H210720   6.561   4.868   5.392
 3586TIP3   OH210721   4.696   2.837   4.092
 3586TIP3    H110722   4.670   2.928   4.081
 3586TIP3    H210723   4.630   2.799   4.150
 3587TIP3   OH210724   4.170   1.829   2.394
 3587TIP3    H110725   4.113   1.895   2.432
 3587TIP3    H210726   4.248   1.878   2.366
 3588TIP3   OH210727   2.018   6.444   4.010
 3588TIP3    H110728   1.947   6.508   4.005
 3588TIP3    H210729   2.074   6.476   4.081
 3589TIP3   OH210730   3.675   2.469   2.990
 3589TIP3    H110731   3.635   2.404   3.048
 3589TIP3    H210732   3.679   2.549   3.043
 3590TIP3   OH210733   5.341   6.622   0.625
 3590TIP3    H110734   5.323   6.528   0.619
 3590TIP3    H210735   5.303   6.649   0.708
 3591TIP3   OH210736   1.445   2.887   4.215
 3591TIP3    H110737   1.351   2.870   4.222
 3591TIP3    H210738   1.468   2.855   4.128
 3592TIP3   OH210739   1.402   2.606   5.170
 3592TIP3    H110740   1.471   2.672   5.181
 3592TIP3    H210741   1.327   2.655   5.138
 3593TIP3   OH210742   3.091   6.047   3.829
 3593TIP3    H110743   3.041   6.129   3.834
 3593TIP3    H210744   3.066   6.009   3.745
 3594TIP3   OH210745   7.220   4.285   4.580
 3594TIP3    H110746   7.159   4.214   4.600
 3594TIP3    H210747   7.168   4.349   4.531
 3595TIP3   OH210748   2.831   1.037   4.804
 3595TIP3    H110749   2.856   0.960   4.751
 3595TIP3    H210750   2.832   1.110   4.742
 3596TIP3   OH210751   4.215   5.784   3.769
 3596TIP3    H110752   4.307   5.778   3.744
 3596TIP3    H210753   4.168   5.739   3.699
 3597TIP3   OH210754   6.069   0.867   4.895
 3597TIP3    H110755   5.989   0.818   4.915
 3597TIP3    H210756   6.104   0.893   4.981
 3598TIP3   OH210757   3.253   1.642   0.523
 3598TIP3    H110758   3.244   1.654   0.618
 3598TIP3    H210759   3.163   1.632   0.492
 3599TIP3   OH210760   2.827   1.275   2.024
 3599TIP3    H110761   2.850   1.183   2.036
 3599TIP3    H210762   2.848   1.316   2.108
 3600TIP3   OH210763   5.056   1.535   1.045
 3600TIP3    H110764   5.029   1.624   1.025
 3600TIP3    H210765   5.115   1.511   0.974
 3601TIP3   OH210766   7.241   1.840   2.073
 3601TIP3    H110767   7.245   1.936   2.079
 3601TIP3    H210768   7.151   1.819   2.098
 3602TIP3   OH210769   0.333   5.422   2.548
 3602TIP3    H110770   0.374   5.341   2.520
 3602TIP3    H210771   0.247   5.422   2.507
 3603TIP3   OH210772   5.386   6.257   5.751
 3603TIP3    H110773   5.407   6.326   5.813
 3603TIP3    H210774   5.416   6.177   5.793
 3604TIP3   OH210775   1.996   1.293   1.229
 3604TIP3    H110776   2.081   1.248   1.231
 3604TIP3    H210777   1.966   1.290   1.320
 3605TIP3   OH210778   0.182   3.087   3.230
 3605TIP3    H110779   0.221   3.174   3.229
 3605TIP3    H210780   0.177   3.063   3.322
 3606TIP3   OH210781   3.511   1.853   4.235
 3606TIP3    H110782   3.459   1.773   4.244
 3606TIP3    H210783   3.501   1.896   4.319
 3607TIP3   OH210784   6.138   4.523   1.886
 3607TIP3    H110785   6.103   4.605   1.921
 3607TIP3    H210786   6.076   4.498   1.818
 3608TIP3   OH210787   3.638   6.514   2.479
 3608TIP3    H110788   3.720   6.535   2.434
 3608TIP3    H210789   3.658   6.527   2.571
 3609TIP3   OH210790   3.045   0.755   0.695
 3609TIP3    H110791   3.096   0.826   0.734
 3609TIP3    H210792   3.098   0.724   0.622
 3610TIP3   OH210793   0.050   1.688   2.811
 3610TIP3    H110794   0.075   1.630   2.739
 3610TIP3    H210795   0.123   1.749   2.819
 3611TIP3   OH210796   0.734   5.831   3.065
 3611TIP3    H110797   0.742   5.828   3.160
 3611TIP3    H210798   0.669   5.765   3.044
 3612TIP3   OH210799   4.626   2.645   2.953
 3612TIP3    H110800   4.720   2.645   2.933
 3612TIP3    H210801   4.621   2.644   3.049
 3613TIP3   OH210802   2.105   0.838   5.413
 3613TIP3    H110803   2.029   0.793   5.451
 3613TIP3    H210804   2.162   0.857   5.487
 3614TIP3   OH210805   1.838   6.652   3.962
 3614TIP3    H110806   1.772   6.671   4.028
 3614TIP3    H210807   1.896   6.728   3.964
 3615TIP3   OH210808   4.225   3.312   0.915
 3615TIP3    H110809   4.193   3.264   0.991
 3615TIP3    H210810   4.306   3.354   0.944
 3616TIP3   OH210811   5.222   2.651   2.339
 3616TIP3    H110812   5.130   2.675   2.343
 3616TIP3    H210813   5.227   2.583   2.272
 3617TIP3   OH210814   4.368   0.280   4.637
 3617TIP3    H110815   4.346   0.371   4.621
 3617TIP3    H210816   4.434   0.259   4.571
 3618TIP3   OH210817   0.831   1.909   1.527
 3618TIP3    H110818   0.739   1.933   1.539
 3618TIP3    H210819   0.833   1.814   1.539
 3619TIP3   OH210820   0.699   3.784   2.389
 3619TIP3    H110821   0.653   3.701   2.375
 3619TIP3    H210822   0.758   3.767   2.462
 3620TIP3   OH210823   1.303   5.931   3.809
 3620TIP3    H110824   1.210   5.919   3.791
 3620TIP3    H210825   1.328   6.005   3.753
 3621TIP3   OH210826   0.787   4.255   5.265
 3621TIP3    H110827   0.747   4.309   5.333
 3621TIP3    H210828   0.742   4.279   5.185
 3622TIP3   OH210829   5.405   3.731   5.442
 3622TIP3    H110830   5.331   3.670   5.435
 3622TIP3    H210831   5.429   3.751   5.352
 3623TIP3   OH210832   4.038   3.283   2.288
 3623TIP3    H110833   4.094   3.219   2.332
 3623TIP3    H210834   3.951   3.267   2.323
 3624TIP3   OH210835   1.143   5.212   0.714
 3624TIP3    H110836   1.195   5.261   0.651
 3624TIP3    H210837   1.075   5.273   0.742
 3625TIP3   OH210838   5.589   0.701   3.491
 3625TIP3    H110839   5.573   0.614   3.527
 3625TIP3    H210840   5.680   0.699   3.463
 3626TIP3   OH210841   2.325   1.093   4.839
 3626TIP3    H110842   2.381   1.154   4.791
 3626TIP3    H210843   2.321   1.129   4.927
 3627TIP3   OH210844   4.630   1.496   5.111
 3627TIP3    H110845   4.665   1.411   5.084
 3627TIP3    H210846   4.536   1.489   5.099
 3628TIP3   OH210847   1.828   6.330   1.382
 3628TIP3    H110848   1.807   6.239   1.404
 3628TIP3    H210849   1.802   6.338   1.290
 3629TIP3   OH210850   5.442   3.292   1.572
 3629TIP3    H110851   5.350   3.283   1.598
 3629TIP3    H210852   5.482   3.208   1.594
 3630TIP3   OH210853   6.376   6.067   4.312
 3630TIP3    H110854   6.450   6.079   4.252
 3630TIP3    H210855   6.416   6.034   4.392
 3631TIP3   OH210856   3.961   5.820   3.207
 3631TIP3    H110857   3.981   5.907   3.173
 3631TIP3    H210858   4.037   5.767   3.185
 3632TIP3   OH210859   0.646   5.034   3.926
 3632TIP3    H110860   0.741   5.029   3.934
 3632TIP3    H210861   0.615   5.043   4.016
 3633TIP3   OH210862   4.581   5.001   4.551
 3633TIP3    H110863   4.497   4.965   4.581
 3633TIP3    H210864   4.626   4.926   4.513
 3634TIP3   OH210865   4.290   0.113   1.822
 3634TIP3    H110866   4.213   0.157   1.787
 3634TIP3    H210867   4.255   0.056   1.891
 3635TIP3   OH210868   4.477   0.229   5.839
 3635TIP3    H110869   4.396   0.179   5.837
 3635TIP3    H210870   4.459   0.305   5.783
 3636TIP3   OH210871   4.843   2.031   1.813
 3636TIP3    H110872   4.925   1.986   1.792
 3636TIP3    H210873   4.868   2.099   1.875
 3637TIP3   OH210874   5.592   0.263   1.665
 3637TIP3    H110875   5.535   0.290   1.593
 3637TIP3    H210876   5.532   0.241   1.736
 3638TIP3   OH210877   7.123   5.350   0.116
 3638TIP3    H110878   7.136   5.333   0.023
 3638TIP3    H210879   7.032   5.381   0.122
 3639TIP3   OH210880   3.316   1.745   0.151
 3639TIP3    H110881   3.387   1.690   0.120
 3639TIP3    H210882   3.359   1.822   0.188
 3640TIP3   OH210883   4.451   5.404   5.353
 3640TIP3    H110884   4.435   5.320   5.311
 3640TIP3    H210885   4.370   5.423   5.401
 3641TIP3   OH210886   2.148   2.359   3.381
 3641TIP3    H110887   2.110   2.446   3.364
 3641TIP3    H210888   2.179   2.329   3.295
 3642TIP3   OH210889   6.516   1.351   5.622
 3642TIP3    H110890   6.512   1.396   5.538
 3642TIP3    H210891   6.584   1.284   5.610
 3643TIP3   OH210892   2.933   3.023   0.768
 3643TIP3    H110893   2.995   3.014   0.840
 3643TIP3    H210894   2.848   3.035   0.812
 3644TIP3   OH210895   1.750   3.672   4.806
 3644TIP3    H110896   1.769   3.598   4.749
 3644TIP3    H210897   1.784   3.645   4.892
 3645TIP3   OH210898   7.040   6.329   0.900
 3645TIP3    H110899   7.117   6.274   0.884
 3645TIP3    H210900   7.054   6.406   0.846
 3646TIP3   OH210901   2.764   0.283   5.008
 3646TIP3    H110902   2.727   0.260   4.923
 3646TIP3    H210903   2.741   0.375   5.020
 3647TIP3   OH210904   3.816   6.611   0.443
 3647TIP3    H110905   3.729   6.594   0.477
 3647TIP3    H210906   3.821   6.563   0.361
 3648TIP3   OH210907   5.366   5.444   4.692
 3648TIP3    H110908   5.296   5.466   4.753
 3648TIP3    H210909   5.356   5.350   4.678
 3649TIP3   OH210910   1.547   5.106   1.444
 3649TIP3    H110911   1.487   5.161   1.394
 3649TIP3    H210912   1.490   5.058   1.504
 3650TIP3   OH210913   5.134   2.625   5.102
 3650TIP3    H110914   5.109   2.532   5.100
 3650TIP3    H210915   5.218   2.626   5.148
 3651TIP3   OH210916   4.809   6.741   1.096
 3651TIP3    H110917   4.743   6.762   1.031
 3651TIP3    H210918   4.760   6.727   1.177
 3652TIP3   OH210919   2.780   5.094   4.329
 3652TIP3    H110920   2.733   5.010   4.323
 3652TIP3    H210921   2.872   5.070   4.315
 3653TIP3   OH210922   0.702   2.446   1.121
 3653TIP3    H110923   0.730   2.536   1.138
 3653TIP3    H210924   0.769   2.392   1.164
 3654TIP3   OH210925   1.722   5.765   0.872
 3654TIP3    H110926   1.731   5.833   0.805
 3654TIP3    H210927   1.678   5.693   0.826
 3655TIP3   OH210928   6.079   1.092   3.485
 3655TIP3    H110929   6.156   1.132   3.525
 3655TIP3    H210930   6.102   1.083   3.393
 3656TIP3   OH210931   5.502   4.517   0.099
 3656TIP3    H110932   5.416   4.514   0.140
 3656TIP3    H210933   5.488   4.478   0.012
 3657TIP3   OH210934   0.166   2.120   1.198
 3657TIP3    H110935   0.185   2.042   1.147
 3657TIP3    H210936   0.082   2.151   1.165
 3658TIP3   OH210937   1.315   6.075   5.570
 3658TIP3    H110938   1.254   6.054   5.641
 3658TIP3    H210939   1.293   6.013   5.500
 3659TIP3   OH210940   3.310   3.893   3.306
 3659TIP3    H110941   3.263   3.857   3.231
 3659TIP3    H210942   3.296   3.987   3.300
 3660TIP3   OH210943   2.139   4.806   4.108
 3660TIP3    H110944   2.102   4.808   4.020
 3660TIP3    H210945   2.224   4.850   4.100
 3661TIP3   OH210946   1.562   3.941   3.806
 3661TIP3    H110947   1.567   3.880   3.880
 3661TIP3    H210948   1.618   3.902   3.739
 3662TIP3   OH210949   5.819   0.409   0.842
 3662TIP3    H110950   5.813   0.405   0.746
 3662TIP3    H210951   5.805   0.501   0.863
 3663TIP3   OH210952   5.633   2.244   4.513
 3663TIP3    H110953   5.544   2.278   4.519
 3663TIP3    H210954   5.685   2.319   4.483
 3664TIP3   OH210955   1.606   2.163   0.275
 3664TIP3    H110956   1.605   2.132   0.366
 3664TIP3    H210957   1.648   2.249   0.280
 3665TIP3   OH210958   4.509   5.046   1.788
 3665TIP3    H110959   4.424   5.088   1.800
 3665TIP3    H210960   4.512   5.022   1.696
 3666TIP3   OH210961   5.083   2.010   4.498
 3666TIP3    H110962   5.014   1.981   4.438
 3666TIP3    H210963   5.122   2.085   4.453
 3667TIP3   OH210964   6.927   3.129   2.840
 3667TIP3    H110965   6.946   3.062   2.905
 3667TIP3    H210966   7.003   3.187   2.842
 3668TIP3   OH210967   3.594   4.944   1.260
 3668TIP3    H110968   3.557   4.856   1.259
 3668TIP3    H210969   3.526   4.999   1.299
 3669TIP3   OH210970   5.575   3.012   1.329
 3669TIP3    H110971   5.662   3.049   1.344
 3669TIP3    H210972   5.580   2.924   1.365
 3670TIP3   OH210973   6.559   2.838   5.848
 3670TIP3    H110974   6.554   2.778   5.774
 3670TIP3    H210975   6.474   2.832   5.890
 3671TIP3   OH210976   7.138   3.809   1.821
 3671TIP3    H110977   7.152   3.753   1.744
 3671TIP3    H210978   7.052   3.848   1.807
 3672TIP3   OH210979   7.090   1.741   4.299
 3672TIP3    H110980   7.022   1.694   4.347
 3672TIP3    H210981   7.047   1.770   4.219
 3673TIP3   OH210982   6.201   3.201   4.512
 3673TIP3    H110983   6.120   3.249   4.532
 3673TIP3    H210984   6.263   3.229   4.580
 3674TIP3   OH210985   0.098   0.984   1.783
 3674TIP3    H110986   0.082   1.061   1.838
 3674TIP3    H210987   0.015   0.971   1.737
 3675TIP3   OH210988   5.869   5.767   0.795
 3675TIP3    H110989   5.816   5.731   0.723
 3675TIP3    H210990   5.840   5.720   0.872
 3676TIP3   OH210991   2.591   4.671   4.674
 3676TIP3    H110992   2.556   4.583   4.665
 3676TIP3    H210993   2.681   4.659   4.705
 3677TIP3   OH210994   6.038   0.760   2.955
 3677TIP3    H110995   6.077   0.772   3.042
 3677TIP3    H210996   6.096   0.698   2.911
 3678TIP3   OH210997   4.622   4.151   3.056
 3678TIP3    H110998   4.711   4.171   3.026
 3678TIP3    H210999   4.576   4.119   2.978
 3679TIP3   OH211000   1.187   4.849   5.875
 3679TIP3    H111001   1.194   4.803   5.791
 3679TIP3    H211002   1.214   4.938   5.856
 3680TIP3   OH211003   6.884   3.466   5.813
 3680TIP3    H111004   6.847   3.546   5.851
 3680TIP3    H211005   6.815   3.401   5.820
 3681TIP3   OH211006   2.124   2.331   3.687
 3681TIP3    H111007   2.139   2.353   3.595
 3681TIP3    H211008   2.171   2.249   3.700
 3682TIP3   OH211009   3.377   0.256   0.302
 3682TIP3    H111010   3.292   0.296   0.316
 3682TIP3    H211011   3.388   0.254   0.207
 3683TIP3   OH211012   3.914   4.163   3.098
 3683TIP3    H111013   3.914   4.106   3.175
 3683TIP3    H211014   3.822   4.184   3.083
 3684TIP3   OH211015   6.580   3.136   0.565
 3684TIP3    H111016   6.589   3.068   0.633
 3684TIP3    H211017   6.543   3.089   0.490
 3685TIP3   OH211018   6.894   3.441   0.774
 3685TIP3    H111019   6.835   3.499   0.823
 3685TIP3    H211020   6.841   3.364   0.755
 3686TIP3   OH211021   0.739   3.650   5.765
 3686TIP3    H111022   0.706   3.729   5.808
 3686TIP3    H211023   0.781   3.681   5.685
 3687TIP3   OH211024   0.351   1.175   4.617
 3687TIP3    H111025   0.332   1.235   4.690
 3687TIP3    H211026   0.285   1.197   4.551
 3688TIP3   OH211027   7.096   5.048   1.716
 3688TIP3    H111028   7.001   5.054   1.707
 3688TIP3    H211029   7.110   4.992   1.792
 3689TIP3   OH211030   2.622   6.667   1.217
 3689TIP3    H111031   2.548   6.726   1.227
 3689TIP3    H211032   2.587   6.593   1.168
 3690TIP3   OH211033   4.223   2.406   0.308
 3690TIP3    H111034   4.252   2.471   0.372
 3690TIP3    H211035   4.129   2.402   0.319
 3691TIP3   OH211036   0.143   1.208   5.486
 3691TIP3    H111037   0.098   1.125   5.469
 3691TIP3    H211038   0.149   1.212   5.581
 3692TIP3   OH211039   1.918   3.537   5.276
 3692TIP3    H111040   1.902   3.451   5.315
 3692TIP3    H211041   1.997   3.526   5.224
 3693TIP3   OH211042   5.934   2.786   3.856
 3693TIP3    H111043   5.848   2.809   3.891
 3693TIP3    H211044   5.919   2.706   3.806
 3694TIP3   OH211045   1.592   5.617   5.134
 3694TIP3    H111046   1.653   5.548   5.109
 3694TIP3    H211047   1.532   5.575   5.196
 3695TIP3   OH211048   4.353   0.655   3.519
 3695TIP3    H111049   4.340   0.583   3.580
 3695TIP3    H211050   4.267   0.698   3.514
 3696TIP3   OH211051   4.314   0.700   4.206
 3696TIP3    H111052   4.405   0.669   4.202
 3696TIP3    H211053   4.262   0.620   4.204
 3697TIP3   OH211054   4.410   5.204   1.484
 3697TIP3    H111055   4.378   5.290   1.458
 3697TIP3    H211056   4.496   5.221   1.523
 3698TIP3   OH211057   4.449   0.528   0.434
 3698TIP3    H111058   4.405   0.526   0.349
 3698TIP3    H211059   4.451   0.436   0.462
 3699TIP3   OH211060   0.204   2.463   5.790
 3699TIP3    H111061   0.182   2.511   5.710
 3699TIP3    H211062   0.120   2.454   5.836
 3700TIP3   OH211063   2.256   0.193   3.345
 3700TIP3    H111064   2.301   0.176   3.262
 3700TIP3    H211065   2.163   0.179   3.324
 3701TIP3   OH211066   1.217   6.220   1.905
 3701TIP3    H111067   1.168   6.138   1.912
 3701TIP3    H211068   1.290   6.200   1.847
 3702TIP3   OH211069   1.974   2.938   2.604
 3702TIP3    H111070   1.879   2.928   2.614
 3702TIP3    H211071   2.006   2.850   2.583
 3703TIP3   OH211072   5.275   1.406   2.981
 3703TIP3    H111073   5.210   1.397   2.912
 3703TIP3    H211074   5.241   1.352   3.053
 3704TIP3   OH211075   5.255   4.954   1.489
 3704TIP3    H111076   5.174   4.909   1.466
 3704TIP3    H211077   5.324   4.892   1.468
 3705TIP3   OH211078   1.757   5.378   5.197
 3705TIP3    H111079   1.831   5.386   5.257
 3705TIP3    H211080   1.779   5.302   5.143
 3706TIP3   OH211081   0.733   4.696   1.426
 3706TIP3    H111082   0.733   4.636   1.501
 3706TIP3    H211083   0.660   4.755   1.444
 3707TIP3   OH211084   2.659   2.283   0.694
 3707TIP3    H111085   2.671   2.354   0.631
 3707TIP3    H211086   2.566   2.264   0.692
 3708TIP3   OH211087   6.773   0.781   4.345
 3708TIP3    H111088   6.746   0.752   4.258
 3708TIP3    H211089   6.758   0.705   4.401
 3709TIP3   OH211090   2.335   0.943   0.886
 3709TIP3    H111091   2.395   0.933   0.960
 3709TIP3    H211092   2.294   1.029   0.898
 3710TIP3   OH211093   6.872   2.769   0.493
 3710TIP3    H111094   6.884   2.847   0.438
 3710TIP3    H211095   6.960   2.751   0.527
 3711TIP3   OH211096   0.057   1.969   5.754
 3711TIP3    H111097  -0.006   1.933   5.817
 3711TIP3    H211098   0.079   1.895   5.697
 3712TIP3   OH211099  -0.016   6.589   3.607
 3712TIP3    H111100  -0.001   6.678   3.574
 3712TIP3    H211101  -0.099   6.595   3.655
 3713TIP3   OH211102   7.126   3.146   4.059
 3713TIP3    H111103   7.044   3.165   4.104
 3713TIP3    H211104   7.131   3.051   4.056
 3714TIP3   OH211105   3.885   1.914   2.969
 3714TIP3    H111106   3.830   1.844   2.934
 3714TIP3    H211107   3.849   1.994   2.931
 3715TIP3   OH211108   3.990   2.236   2.726
 3715TIP3    H111109   3.950   2.308   2.679
 3715TIP3    H211110   3.984   2.260   2.819
 3716TIP3   OH211111   5.280   0.978   0.122
 3716TIP3    H111112   5.257   0.933   0.203
 3716TIP3    H211113   5.263   0.914   0.053
 3717TIP3   OH211114   3.988   2.899   4.208
 3717TIP3    H111115   4.058   2.842   4.174
 3717TIP3    H211116   4.034   2.976   4.242
 3718TIP3   OH211117   0.162   6.632   3.292
 3718TIP3    H111118   0.067   6.623   3.303
 3718TIP3    H211119   0.195   6.542   3.299
 3719TIP3   OH211120   6.335   4.298   4.882
 3719TIP3    H111121   6.350   4.299   4.788
 3719TIP3    H211122   6.353   4.387   4.911
 3720TIP3   OH211123   3.664   6.448   0.658
 3720TIP3    H111124   3.706   6.509   0.719
 3720TIP3    H211125   3.711   6.365   0.670
 3721TIP3   OH211126   6.374   2.560   2.548
 3721TIP3    H111127   6.391   2.609   2.629
 3721TIP3    H211128   6.431   2.601   2.483
 3722TIP3   OH211129   0.243   6.506   2.570
 3722TIP3    H111130   0.176   6.572   2.583
 3722TIP3    H211131   0.324   6.547   2.601
 3723TIP3   OH211132   0.796  -0.023   0.858
 3723TIP3    H111133   0.836  -0.084   0.920
 3723TIP3    H211134   0.715   0.005   0.900
 3724TIP3   OH211135   4.920   6.642   2.482
 3724TIP3    H111136   4.958   6.574   2.537
 3724TIP3    H211137   4.922   6.605   2.394
 3725TIP3   OH211138   7.138   3.815   1.393
 3725TIP3    H111139   7.214   3.848   1.441
 3725TIP3    H211140   7.100   3.892   1.352
 3726TIP3   OH211141   2.977   4.378   2.338
 3726TIP3    H111142   2.971   4.423   2.254
 3726TIP3    H211143   2.910   4.420   2.393
 3727TIP3   OH211144   0.491   1.361   2.714
 3727TIP3    H111145   0.575   1.408   2.713
 3727TIP3    H211146   0.425   1.430   2.708
 3728TIP3   OH211147   7.071   3.014   5.665
 3728TIP3    H111148   7.006   2.947   5.683
 3728TIP3    H211149   7.141   2.999   5.728
 3729TIP3   OH211150   3.949   1.250   1.555
 3729TIP3    H111151   3.868   1.232   1.603
 3729TIP3    H211152   3.942   1.198   1.475
 3730TIP3   OH211153   6.489   3.516   4.045
 3730TIP3    H111154   6.503   3.422   4.031
 3730TIP3    H211155   6.532   3.534   4.129
 3731TIP3   OH211156   4.920   6.377   3.638
 3731TIP3    H111157   4.960   6.295   3.610
 3731TIP3    H211158   4.828   6.368   3.613
 3732TIP3   OH211159   5.810   5.578   4.756
 3732TIP3    H111160   5.727   5.567   4.710
 3732TIP3    H211161   5.839   5.489   4.776
 3733TIP3   OH211162   2.856   3.643   3.327
 3733TIP3    H111163   2.780   3.595   3.360
 3733TIP3    H211164   2.823   3.731   3.310
 3734TIP3   OH211165   0.303   3.053   0.504
 3734TIP3    H111166   0.232   3.038   0.568
 3734TIP3    H211167   0.345   3.134   0.533
 3735TIP3   OH211168   2.788   3.359   2.393
 3735TIP3    H111169   2.774   3.407   2.474
 3735TIP3    H211170   2.734   3.404   2.328
 3736TIP3   OH211171   5.575   4.224   1.699
 3736TIP3    H111172   5.655   4.187   1.661
 3736TIP3    H211173   5.595   4.233   1.792
 3737TIP3   OH211174   3.723   2.969   0.392
 3737TIP3    H111175   3.748   2.947   0.481
 3737TIP3    H211176   3.767   3.052   0.374
 3738TIP3   OH211177   1.575   0.848   3.981
 3738TIP3    H111178   1.550   0.937   3.955
 3738TIP3    H211179   1.563   0.796   3.901
 3739TIP3   OH211180   7.096   4.272   4.947
 3739TIP3    H111181   7.014   4.316   4.928
 3739TIP3    H211182   7.152   4.340   4.985
 3740TIP3   OH211183   6.576   3.886   1.235
 3740TIP3    H111184   6.570   3.824   1.307
 3740TIP3    H211185   6.640   3.951   1.264
 3741TIP3   OH211186   6.083   5.603   0.585
 3741TIP3    H111187   6.142   5.590   0.511
 3741TIP3    H211188   6.088   5.697   0.604
 3742TIP3   OH211189   5.704   4.295   0.834
 3742TIP3    H111190   5.755   4.366   0.794
 3742TIP3    H211191   5.612   4.319   0.818
 3743TIP3   OH211192   5.233   1.578   5.768
 3743TIP3    H111193   5.158   1.545   5.718
 3743TIP3    H211194   5.289   1.619   5.703
 3744TIP3   OH211195   3.268   3.460   4.634
 3744TIP3    H111196   3.306   3.469   4.722
 3744TIP3    H211197   3.342   3.433   4.579
 3745TIP3   OH211198   1.233   4.655   1.908
 3745TIP3    H111199   1.285   4.735   1.911
 3745TIP3    H211200   1.177   4.666   1.831
 3746TIP3   OH211201   4.067   5.825   5.258
 3746TIP3    H111202   4.136   5.838   5.324
 3746TIP3    H211203   4.115   5.818   5.175
 3747TIP3   OH211204   1.677   2.521   2.486
 3747TIP3    H111205   1.710   2.532   2.576
 3747TIP3    H211206   1.752   2.492   2.436
 3748TIP3   OH211207   2.657   6.312   1.821
 3748TIP3    H111208   2.715   6.367   1.873
 3748TIP3    H211209   2.703   6.299   1.738
 3749TIP3   OH211210   2.876   4.581   1.114
 3749TIP3    H111211   2.945   4.580   1.047
 3749TIP3    H211212   2.803   4.534   1.074
 3750TIP3   OH211213   5.275   0.906   3.427
 3750TIP3    H111214   5.296   0.853   3.504
 3750TIP3    H211215   5.339   0.877   3.361
 3751TIP3   OH211216   6.660   0.397   0.751
 3751TIP3    H111217   6.741   0.347   0.739
 3751TIP3    H211218   6.689   0.484   0.779
 3752TIP3   OH211219   1.146   2.248   1.123
 3752TIP3    H111220   1.170   2.278   1.211
 3752TIP3    H211221   1.130   2.154   1.133
 3753TIP3   OH211222   4.292   2.245   0.082
 3753TIP3    H111223   4.354   2.177   0.109
 3753TIP3    H211224   4.300   2.313   0.148
 3754TIP3   OH211225   1.096   1.952   5.884
 3754TIP3    H111226   1.019   1.967   5.830
 3754TIP3    H211227   1.086   1.863   5.916
 3755TIP3   OH211228   4.793   0.930   3.232
 3755TIP3    H111229   4.701   0.948   3.249
 3755TIP3    H211230   4.804   0.837   3.253
 3756TIP3   OH211231   3.044   2.711   0.826
 3756TIP3    H111232   3.061   2.723   0.733
 3756TIP3    H211233   3.128   2.733   0.868
 3757TIP3   OH211234   1.363   2.866   5.522
 3757TIP3    H111235   1.418   2.915   5.462
 3757TIP3    H211236   1.363   2.777   5.487
 3758TIP3   OH211237   2.541   3.853   5.125
 3758TIP3    H111238   2.578   3.927   5.173
 3758TIP3    H211239   2.462   3.888   5.084
 3759TIP3   OH211240   4.685   4.389   2.635
 3759TIP3    H111241   4.751   4.351   2.577
 3759TIP3    H211242   4.657   4.469   2.590
 3760TIP3   OH211243   3.577   0.732   5.651
 3760TIP3    H111244   3.600   0.663   5.713
 3760TIP3    H211245   3.638   0.803   5.670
 3761TIP3   OH211246   1.618   5.233   0.864
 3761TIP3    H111247   1.545   5.186   0.823
 3761TIP3    H211248   1.577   5.286   0.932
 3762TIP3   OH211249   1.021   4.780   4.575
 3762TIP3    H111250   1.047   4.871   4.565
 3762TIP3    H211251   0.944   4.782   4.631
 3763TIP3   OH211252   1.487   3.565   5.831
 3763TIP3    H111253   1.549   3.543   5.762
 3763TIP3    H211254   1.487   3.489   5.890
 3764TIP3   OH211255   6.338   5.853   0.333
 3764TIP3    H111256   6.337   5.758   0.324
 3764TIP3    H211257   6.275   5.885   0.268
 3765TIP3   OH211258   4.150   6.074   0.918
 3765TIP3    H111259   4.091   6.133   0.871
 3765TIP3    H211260   4.180   6.012   0.851
 3766TIP3   OH211261   0.601   6.246   2.567
 3766TIP3    H111262   0.650   6.318   2.527
 3766TIP3    H211263   0.665   6.201   2.622
 3767TIP3   OH211264   1.521   1.895   4.291
 3767TIP3    H111265   1.494   1.981   4.257
 3767TIP3    H211266   1.481   1.890   4.378
 3768TIP3   OH211267   3.708   5.698   4.492
 3768TIP3    H111268   3.618   5.730   4.490
 3768TIP3    H211269   3.760   5.773   4.521
 3769TIP3   OH211270   3.109   3.446   2.939
 3769TIP3    H111271   3.031   3.461   2.993
 3769TIP3    H211272   3.135   3.534   2.911
 3770TIP3   OH211273   3.187   1.046   5.007
 3770TIP3    H111274   3.203   0.963   4.961
 3770TIP3    H211275   3.242   1.042   5.085
 3771TIP3   OH211276   2.022   3.231   1.963
 3771TIP3    H111277   2.067   3.165   2.016
 3771TIP3    H211278   1.955   3.267   2.021
 3772TIP3   OH211279   2.302   4.870   0.360
 3772TIP3    H111280   2.248   4.880   0.438
 3772TIP3    H211281   2.283   4.947   0.307
 3773TIP3   OH211282   3.180   3.809   1.071
 3773TIP3    H111283   3.153   3.824   0.981
 3773TIP3    H211284   3.211   3.719   1.073
 3774TIP3   OH211285   3.059   4.194   0.083
 3774TIP3    H111286   2.992   4.130   0.103
 3774TIP3    H211287   3.121   4.187   0.156
 3775TIP3   OH211288   4.629   4.265   1.957
 3775TIP3    H111289   4.717   4.238   1.929
 3775TIP3    H211290   4.604   4.333   1.895
 3776TIP3   OH211291   6.076   1.509   5.075
 3776TIP3    H111292   6.021   1.461   5.137
 3776TIP3    H211293   6.087   1.449   5.000
 3777TIP3   OH211294   2.563   2.665   0.079
 3777TIP3    H111295   2.542   2.571   0.073
 3777TIP3    H211296   2.479   2.709   0.070
 3778TIP3   OH211297   4.530   4.409   3.075
 3778TIP3    H111298   4.539   4.320   3.041
 3778TIP3    H211299   4.457   4.404   3.136
 3779TIP3   OH211300   3.514   2.439   5.746
 3779TIP3    H111301   3.538   2.446   5.839
 3779TIP3    H211302   3.435   2.385   5.746
 3780TIP3   OH211303   6.507   0.901   4.222
 3780TIP3    H111304   6.579   0.950   4.181
 3780TIP3    H211305   6.519   0.811   4.191
 3781TIP3   OH211306   6.177   1.336   2.361
 3781TIP3    H111307   6.098   1.304   2.405
 3781TIP3    H211308   6.194   1.271   2.293
 3782TIP3   OH211309   5.261   3.601   0.492
 3782TIP3    H111310   5.297   3.651   0.565
 3782TIP3    H211311   5.317   3.524   0.486
 3783TIP3   OH211312   6.663   1.924   4.241
 3783TIP3    H111313   6.719   1.865   4.291
 3783TIP3    H211314   6.621   1.980   4.306
 3784TIP3   OH211315   6.395   5.690   2.107
 3784TIP3    H111316   6.440   5.606   2.110
 3784TIP3    H211317   6.308   5.672   2.143
 3785TIP3   OH211318   6.395   5.986   1.286
 3785TIP3    H111319   6.401   6.081   1.300
 3785TIP3    H211320   6.346   5.977   1.205
 3786TIP3   OH211321   3.917   5.290   1.278
 3786TIP3    H111322   3.983   5.359   1.273
 3786TIP3    H211323   3.856   5.310   1.206
 3787TIP3   OH211324   5.298   5.603   5.063
 3787TIP3    H111325   5.229   5.568   5.120
 3787TIP3    H211326   5.289   5.698   5.070
 3788TIP3   OH211327   5.735   1.392   4.859
 3788TIP3    H111328   5.796   1.432   4.797
 3788TIP3    H211329   5.787   1.324   4.903
 3789TIP3   OH211330   4.759   0.571   0.051
 3789TIP3    H111331   4.679   0.599   0.096
 3789TIP3    H211332   4.755   0.616  -0.034
 3790TIP3   OH211333   6.845   6.259   3.156
 3790TIP3    H111334   6.848   6.287   3.247
 3790TIP3    H211335   6.931   6.284   3.121
 3791TIP3   OH211336   3.281   5.218   4.114
 3791TIP3    H111337   3.260   5.129   4.087
 3791TIP3    H211338   3.373   5.229   4.092
 3792TIP3   OH211339   3.179   1.335   4.157
 3792TIP3    H111340   3.242   1.311   4.226
 3792TIP3    H211341   3.157   1.426   4.175
 3793TIP3   OH211342   4.957   0.158   1.547
 3793TIP3    H111343   5.041   0.131   1.585
 3793TIP3    H211344   4.940   0.244   1.585
 3794TIP3   OH211345   6.845   1.106   0.344
 3794TIP3    H111346   6.756   1.110   0.379
 3794TIP3    H211347   6.887   1.034   0.391
 3795TIP3   OH211348   2.146   6.544   4.882
 3795TIP3    H111349   2.211   6.506   4.824
 3795TIP3    H211350   2.084   6.473   4.898
 3796TIP3   OH211351   3.182   2.571   4.037
 3796TIP3    H111352   3.216   2.536   4.119
 3796TIP3    H211353   3.090   2.546   4.036
 3797TIP3   OH211354   6.073   2.124   3.419
 3797TIP3    H111355   5.994   2.123   3.365
 3797TIP3    H211356   6.141   2.088   3.361
 3798TIP3   OH211357   6.467   2.667   5.639
 3798TIP3    H111358   6.491   2.621   5.558
 3798TIP3    H211359   6.385   2.627   5.665
 3799TIP3   OH211360   3.013   1.473   2.834
 3799TIP3    H111361   2.932   1.503   2.875
 3799TIP3    H211362   3.063   1.434   2.906
 3800TIP3   OH211363   3.308   6.123   0.705
 3800TIP3    H111364   3.333   6.205   0.663
 3800TIP3    H211365   3.228   6.143   0.752
 3801TIP3   OH211366   6.734   6.875   5.877
 3801TIP3    H111367   6.824   6.846   5.859
 3801TIP3    H211368   6.685   6.852   5.798
 3802TIP3   OH211369   5.179   4.042   2.062
 3802TIP3    H111370   5.197   3.953   2.033
 3802TIP3    H211371   5.266   4.081   2.075
 3803TIP3   OH211372   2.884   5.554   0.545
 3803TIP3    H111373   2.793   5.562   0.517
 3803TIP3    H211374   2.935   5.585   0.471
 3804TIP3   OH211375   6.227   5.314   5.798
 3804TIP3    H111376   6.260   5.306   5.709
 3804TIP3    H211377   6.234   5.407   5.819
 3805TIP3   OH211378   3.314   2.224   1.795
 3805TIP3    H111379   3.318   2.197   1.703
 3805TIP3    H211380   3.223   2.206   1.821
 3806TIP3   OH211381   0.845   3.697   2.614
 3806TIP3    H111382   0.908   3.677   2.545
 3806TIP3    H211383   0.797   3.615   2.627
 3807TIP3   OH211384   2.749   2.344   2.608
 3807TIP3    H111385   2.791   2.258   2.616
 3807TIP3    H211386   2.667   2.326   2.562
 3808TIP3   OH211387   4.927   2.780   0.642
 3808TIP3    H111388   4.906   2.861   0.689
 3808TIP3    H211389   4.982   2.808   0.569
 3809TIP3   OH211390   0.387   5.525   1.792
 3809TIP3    H111391   0.380   5.502   1.884
 3809TIP3    H211392   0.481   5.524   1.774
 3810TIP3   OH211393   6.457   5.955   4.531
 3810TIP3    H111394   6.544   5.935   4.564
 3810TIP3    H211395   6.404   5.879   4.556
 3811TIP3   OH211396   1.159   5.485   4.244
 3811TIP3    H111397   1.147   5.578   4.221
 3811TIP3    H211398   1.248   5.479   4.276
 3812TIP3   OH211399   6.081   6.610   2.120
 3812TIP3    H111400   6.080   6.687   2.063
 3812TIP3    H211401   5.988   6.595   2.141
 3813TIP3   OH211402   5.158   3.616   5.425
 3813TIP3    H111403   5.077   3.648   5.387
 3813TIP3    H211404   5.146   3.624   5.520
 3814TIP3   OH211405   5.177   3.439   0.861
 3814TIP3    H111406   5.125   3.412   0.937
 3814TIP3    H211407   5.113   3.452   0.792
 3815TIP3   OH211408   4.900   2.027   4.265
 3815TIP3    H111409   4.844   1.949   4.256
 3815TIP3    H211410   4.983   2.001   4.225
 3816TIP3   OH211411   3.212   5.730   5.120
 3816TIP3    H111412   3.195   5.644   5.158
 3816TIP3    H211413   3.240   5.711   5.030
 3817TIP3   OH211414   2.413   2.479   5.004
 3817TIP3    H111415   2.422   2.440   4.917
 3817TIP3    H211416   2.479   2.435   5.058
 3818TIP3   OH211417   1.618   5.629   4.403
 3818TIP3    H111418   1.594   5.722   4.401
 3818TIP3    H211419   1.686   5.624   4.471
 3819TIP3   OH211420   5.824   0.193   1.177
 3819TIP3    H111421   5.765   0.199   1.102
 3819TIP3    H211422   5.887   0.124   1.153
 3820TIP3   OH211423   6.086   4.108   5.811
 3820TIP3    H111424   6.129   4.027   5.837
 3820TIP3    H211425   5.993   4.088   5.812
 3821TIP3   OH211426   5.754   4.701   3.544
 3821TIP3    H111427   5.674   4.662   3.507
 3821TIP3    H211428   5.824   4.669   3.487
 3822TIP3   OH211429   6.999   5.024   1.294
 3822TIP3    H111430   7.029   4.950   1.242
 3822TIP3    H211431   7.074   5.046   1.349
 3823TIP3   OH211432   2.453   1.292   0.229
 3823TIP3    H111433   2.500   1.211   0.250
 3823TIP3    H211434   2.495   1.359   0.284
 3824TIP3   OH211435   2.935   4.884   2.228
 3824TIP3    H111436   2.972   4.961   2.271
 3824TIP3    H211437   2.920   4.821   2.299
 3825TIP3   OH211438   4.996   1.561   5.463
 3825TIP3    H111439   5.005   1.653   5.490
 3825TIP3    H211440   4.946   1.565   5.381
 3826TIP3   OH211441   4.730   3.522   0.745
 3826TIP3    H111442   4.711   3.597   0.801
 3826TIP3    H211443   4.816   3.542   0.707
 3827TIP3   OH211444   3.447   5.246   2.012
 3827TIP3    H111445   3.395   5.171   2.040
 3827TIP3    H211446   3.430   5.253   1.918
 3828TIP3   OH211447   1.108   4.886   5.222
 3828TIP3    H111448   1.026   4.923   5.255
 3828TIP3    H211449   1.170   4.899   5.293
 3829TIP3   OH211450   2.441   4.651   4.043
 3829TIP3    H111451   2.483   4.641   3.958
 3829TIP3    H211452   2.511   4.631   4.106
 3830TIP3   OH211453   7.096   3.342   5.250
 3830TIP3    H111454   7.001   3.352   5.253
 3830TIP3    H211455   7.116   3.277   5.317
 3831TIP3   OH211456   2.708   4.606   0.169
 3831TIP3    H111457   2.761   4.672   0.123
 3831TIP3    H211458   2.629   4.653   0.194
 3832TIP3   OH211459   1.532   2.520   5.405
 3832TIP3    H111460   1.612   2.567   5.382
 3832TIP3    H211461   1.477   2.527   5.327
 3833TIP3   OH211462   7.171   0.090   5.414
 3833TIP3    H111463   7.248   0.101   5.359
 3833TIP3    H211464   7.113   0.162   5.390
 3834TIP3   OH211465   0.968   2.379   5.660
 3834TIP3    H111466   0.954   2.400   5.753
 3834TIP3    H211467   0.908   2.437   5.613
 3835TIP3   OH211468   7.009   0.498   0.318
 3835TIP3    H111469   7.069   0.450   0.261
 3835TIP3    H211470   7.012   0.588   0.285
 3836TIP3   OH211471   2.911   1.116   0.011
 3836TIP3    H111472   2.985   1.096  -0.047
 3836TIP3    H211473   2.846   1.156  -0.046
 3837TIP3   OH211474   4.967   3.989   4.613
 3837TIP3    H111475   5.003   3.932   4.681
 3837TIP3    H211476   4.897   4.037   4.658
 3838TIP3   OH211477   4.054   5.691   5.652
 3838TIP3    H111478   3.970   5.649   5.669
 3838TIP3    H211479   4.077   5.735   5.734
 3839TIP3   OH211480   6.971   0.649   2.382
 3839TIP3    H111481   7.031   0.705   2.432
 3839TIP3    H211482   6.891   0.702   2.374
 3840TIP3   OH211483   3.500   3.160   5.735
 3840TIP3    H111484   3.457   3.214   5.669
 3840TIP3    H211485   3.568   3.112   5.687
 3841TIP3   OH211486   4.547   3.945   0.273
 3841TIP3    H111487   4.525   3.853   0.289
 3841TIP3    H211488   4.494   3.970   0.197
 3842TIP3   OH211489   4.545   1.427   2.176
 3842TIP3    H111490   4.598   1.469   2.108
 3842TIP3    H211491   4.477   1.491   2.196
 3843TIP3   OH211492   4.008   1.454   0.695
 3843TIP3    H111493   4.087   1.466   0.643
 3843TIP3    H211494   4.019   1.368   0.736
 3844TIP3   OH211495   0.122   4.823   1.120
 3844TIP3    H111496   0.037   4.788   1.149
 3844TIP3    H211497   0.178   4.817   1.197
 3845TIP3   OH211498   4.571   2.802   2.722
 3845TIP3    H111499   4.524   2.730   2.679
 3845TIP3    H211500   4.580   2.773   2.813
 3846TIP3   OH211501   4.005   3.473   2.945
 3846TIP3    H111502   3.933   3.494   2.885
 3846TIP3    H211503   4.084   3.476   2.890
 3847TIP3   OH211504   1.376   0.345   5.219
 3847TIP3    H111505   1.283   0.359   5.237
 3847TIP3    H211506   1.395   0.400   5.144
 3848TIP3   OH211507   2.818   0.202   0.403
 3848TIP3    H111508   2.834   0.214   0.497
 3848TIP3    H211509   2.887   0.142   0.375
 3849TIP3   OH211510   1.301   0.643   3.753
 3849TIP3    H111511   1.376   0.696   3.726
 3849TIP3    H211512   1.259   0.694   3.823
 3850TIP3   OH211513   4.596   6.127   1.583
 3850TIP3    H111514   4.504   6.128   1.609
 3850TIP3    H211515   4.597   6.172   1.498
 3851TIP3   OH211516   6.771   0.855   2.974
 3851TIP3    H111517   6.717   0.918   3.023
 3851TIP3    H211518   6.856   0.899   2.964
 3852TIP3   OH211519   6.616   5.522   2.071
 3852TIP3    H111520   6.651   5.444   2.030
 3852TIP3    H211521   6.645   5.594   2.016
 3853TIP3   OH211522   0.492   4.787   1.513
 3853TIP3    H111523   0.489   4.691   1.505
 3853TIP3    H211524   0.496   4.803   1.607
 3854TIP3   OH211525   0.033   1.505   2.526
 3854TIP3    H111526  -0.009   1.441   2.469
 3854TIP3    H211527   0.061   1.575   2.467
 3855TIP3   OH211528   1.721   6.512   1.142
 3855TIP3    H111529   1.628   6.527   1.157
 3855TIP3    H211530   1.764   6.588   1.181
 3856TIP3   OH211531   7.073   3.359   5.600
 3856TIP3    H111532   7.022   3.392   5.674
 3856TIP3    H211533   7.065   3.428   5.534
 3857TIP3   OH211534   0.600   0.689   5.499
 3857TIP3    H111535   0.594   0.600   5.533
 3857TIP3    H211536   0.648   0.738   5.566
 3858TIP3   OH211537   1.731   1.988   3.430
 3858TIP3    H111538   1.705   2.050   3.362
 3858TIP3    H211539   1.826   1.996   3.434
 3859TIP3   OH211540   0.660   3.218  -0.018
 3859TIP3    H111541   0.604   3.288  -0.053
 3859TIP3    H211542   0.659   3.232   0.077
 3860TIP3   OH211543   5.975   5.338   4.516
 3860TIP3    H111544   6.013   5.400   4.453
 3860TIP3    H211545   5.924   5.278   4.462
 3861TIP3   OH211546   5.747   6.124   4.145
 3861TIP3    H111547   5.655   6.142   4.127
 3861TIP3    H211548   5.789   6.210   4.142
 3862TIP3   OH211549   1.080   2.373   4.264
 3862TIP3    H111550   1.144   2.310   4.230
 3862TIP3    H211551   1.023   2.392   4.189
 3863TIP3   OH211552   0.422   3.969   3.367
 3863TIP3    H111553   0.479   4.026   3.418
 3863TIP3    H211554   0.337   4.013   3.367
 3864TIP3   OH211555   4.536   6.190   3.390
 3864TIP3    H111556   4.492   6.183   3.474
 3864TIP3    H211557   4.473   6.155   3.327
 3865TIP3   OH211558   3.616   5.848   2.680
 3865TIP3    H111559   3.536   5.797   2.667
 3865TIP3    H211560   3.605   5.926   2.626
 3866TIP3   OH211561   2.054   3.751   1.184
 3866TIP3    H111562   2.078   3.839   1.155
 3866TIP3    H211563   2.068   3.695   1.108
 3867TIP3   OH211564   2.126   4.238   0.064
 3867TIP3    H111565   2.144   4.309   0.126
 3867TIP3    H211566   2.212   4.201   0.043
 3868TIP3   OH211567   0.037   5.380   4.176
 3868TIP3    H111568   0.084   5.463   4.174
 3868TIP3    H211569   0.054   5.341   4.089
 3869TIP3   OH211570   5.144   5.801   0.122
 3869TIP3    H111571   5.167   5.736   0.056
 3869TIP3    H211572   5.142   5.884   0.075
 3870TIP3   OH211573   2.027   6.697   1.111
 3870TIP3    H111574   1.968   6.759   1.069
 3870TIP3    H211575   1.989   6.683   1.198
 3871TIP3   OH211576   5.435   2.827   4.156
 3871TIP3    H111577   5.397   2.750   4.197
 3871TIP3    H211578   5.415   2.899   4.216
 3872TIP3   OH211579   6.964   0.711   0.834
 3872TIP3    H111580   7.044   0.692   0.785
 3872TIP3    H211581   6.982   0.796   0.875
 3873TIP3   OH211582   5.147   3.938   3.415
 3873TIP3    H111583   5.132   3.843   3.414
 3873TIP3    H211584   5.078   3.972   3.471
 3874TIP3   OH211585   6.588   6.212   1.900
 3874TIP3    H111586   6.555   6.188   1.814
 3874TIP3    H211587   6.564   6.304   1.910
 3875TIP3   OH211588   0.844   4.790   2.456
 3875TIP3    H111589   0.794   4.750   2.528
 3875TIP3    H211590   0.909   4.845   2.500
 3876TIP3   OH211591   6.294   2.715   0.484
 3876TIP3    H111592   6.260   2.805   0.487
 3876TIP3    H211593   6.387   2.724   0.508
 3877TIP3   OH211594   0.778   4.814   0.339
 3877TIP3    H111595   0.749   4.890   0.290
 3877TIP3    H211596   0.868   4.798   0.307
 3878TIP3   OH211597   0.470   6.280   1.421
 3878TIP3    H111598   0.384   6.240   1.411
 3878TIP3    H211599   0.511   6.272   1.335
 3879TIP3   OH211600   1.484   4.100   5.763
 3879TIP3    H111601   1.481   4.005   5.772
 3879TIP3    H211602   1.431   4.119   5.685
 3880TIP3   OH211603   5.780   5.776   1.834
 3880TIP3    H111604   5.685   5.775   1.846
 3880TIP3    H211605   5.816   5.739   1.915
 3881TIP3   OH211606   2.259   4.529   4.868
 3881TIP3    H111607   2.313   4.558   4.942
 3881TIP3    H211608   2.299   4.568   4.791
 3882TIP3   OH211609   1.758   1.713   0.701
 3882TIP3    H111610   1.796   1.636   0.742
 3882TIP3    H211611   1.673   1.724   0.744
 3883TIP3   OH211612   0.218   0.844   3.246
 3883TIP3    H111613   0.191   0.753   3.251
 3883TIP3    H211614   0.164   0.881   3.176
 3884TIP3   OH211615   4.940   1.699   3.107
 3884TIP3    H111616   4.936   1.738   3.195
 3884TIP3    H211617   4.993   1.620   3.119
 3885TIP3   OH211618   6.694   0.963   1.293
 3885TIP3    H111619   6.676   0.884   1.241
 3885TIP3    H211620   6.608   0.996   1.318
 3886TIP3   OH211621   6.096   1.572   1.744
 3886TIP3    H111622   6.056   1.486   1.728
 3886TIP3    H211623   6.047   1.607   1.818
 3887TIP3   OH211624   3.037   1.978   2.014
 3887TIP3    H111625   2.963   1.931   2.051
 3887TIP3    H211626   3.102   1.911   1.994
 3888TIP3   OH211627   4.012   6.080   3.075
 3888TIP3    H111628   3.934   6.125   3.108
 3888TIP3    H211629   4.069   6.151   3.045
 3889TIP3   OH211630   5.268   0.076   2.937
 3889TIP3    H111631   5.284  -0.018   2.946
 3889TIP3    H211632   5.237   0.103   3.023
 3890TIP3   OH211633   5.760   0.096   5.344
 3890TIP3    H111634   5.822   0.032   5.310
 3890TIP3    H211635   5.736   0.064   5.431
 3891TIP3   OH211636   2.963   6.086   2.038
 3891TIP3    H111637   3.034   6.130   2.085
 3891TIP3    H211638   2.887   6.142   2.051
 3892TIP3   OH211639   3.829   0.016   4.519
 3892TIP3    H111640   3.783   0.052   4.594
 3892TIP3    H211641   3.888   0.085   4.491
 3893TIP3   OH211642   5.796   6.453   2.172
 3893TIP3    H111643   5.746   6.372   2.184
 3893TIP3    H211644   5.739   6.507   2.117
 3894TIP3   OH211645   0.409   3.892   1.309
 3894TIP3    H111646   0.343   3.934   1.363
 3894TIP3    H211647   0.415   3.948   1.231
 3895TIP3   OH211648   5.094   0.470   4.654
 3895TIP3    H111649   5.041   0.545   4.680
 3895TIP3    H211650   5.104   0.479   4.559
 3896TIP3   OH211651   2.861   1.659   4.591
 3896TIP3    H111652   2.886   1.747   4.563
 3896TIP3    H211653   2.919   1.640   4.664
 3897TIP3   OH211654   3.418   2.654   0.232
 3897TIP3    H111655   3.343   2.595   0.237
 3897TIP3    H211656   3.402   2.720   0.300
 3898TIP3   OH211657   3.546   4.287   3.725
 3898TIP3    H111658   3.567   4.380   3.730
 3898TIP3    H211659   3.568   4.252   3.811
 3899TIP3   OH211660   0.646   5.037   5.685
 3899TIP3    H111661   0.573   5.005   5.738
 3899TIP3    H211662   0.721   4.984   5.714
 3900TIP3   OH211663   0.590   1.800   5.021
 3900TIP3    H111664   0.553   1.886   5.003
 3900TIP3    H211665   0.678   1.817   5.055
 3901TIP3   OH211666   1.621   0.055   1.102
 3901TIP3    H111667   1.622   0.150   1.091
 3901TIP3    H211668   1.551   0.025   1.045
 3902TIP3   OH211669   1.398   5.176   3.426
 3902TIP3    H111670   1.379   5.181   3.520
 3902TIP3    H211671   1.323   5.131   3.388
 3903TIP3   OH211672   1.176   6.475   3.522
 3903TIP3    H111673   1.183   6.392   3.473
 3903TIP3    H211674   1.259   6.519   3.506
 3904TIP3   OH211675   2.849   1.450   3.238
 3904TIP3    H111676   2.834   1.453   3.333
 3904TIP3    H211677   2.931   1.403   3.228
 3905TIP3   OH211678   2.103   0.493   5.505
 3905TIP3    H111679   2.090   0.450   5.589
 3905TIP3    H211680   2.026   0.549   5.494
 3906TIP3   OH211681   0.311   0.231   4.375
 3906TIP3    H111682   0.286   0.148   4.416
 3906TIP3    H211683   0.231   0.261   4.331
 3907TIP3   OH211684   1.095   1.323   5.767
 3907TIP3    H111685   1.038   1.247   5.758
 3907TIP3    H211686   1.036   1.396   5.782
 3908TIP3   OH211687   1.595   3.463   2.091
 3908TIP3    H111688   1.631   3.534   2.039
 3908TIP3    H211689   1.659   3.392   2.083
 3909TIP3   OH211690   5.586   5.409   1.990
 3909TIP3    H111691   5.560   5.440   1.904
 3909TIP3    H211692   5.529   5.335   2.008
 3910TIP3   OH211693   1.632   4.951   5.698
 3910TIP3    H111694   1.649   4.865   5.738
 3910TIP3    H211695   1.668   4.944   5.610
 3911TIP3   OH211696   4.172   0.143   0.399
 3911TIP3    H111697   4.084   0.107   0.401
 3911TIP3    H211698   4.173   0.209   0.468
 3912TIP3   OH211699   3.423   0.574   1.691
 3912TIP3    H111700   3.333   0.586   1.722
 3912TIP3    H211701   3.420   0.497   1.635
 3913TIP3   OH211702   6.427   0.999   0.102
 3913TIP3    H111703   6.357   1.017   0.039
 3913TIP3    H211704   6.508   1.021   0.055
 3914TIP3   OH211705   6.541   4.119   5.021
 3914TIP3    H111706   6.448   4.143   5.022
 3914TIP3    H211707   6.581   4.179   4.958
 3915TIP3   OH211708   3.342   6.670   1.909
 3915TIP3    H111709   3.367   6.755   1.945
 3915TIP3    H211710   3.259   6.687   1.864
 3916TIP3   OH211711   2.074   1.597   4.354
 3916TIP3    H111712   2.113   1.526   4.404
 3916TIP3    H211713   2.138   1.617   4.286
 3917TIP3   OH211714   5.882   6.366   4.047
 3917TIP3    H111715   5.866   6.458   4.026
 3917TIP3    H211716   5.977   6.359   4.053
 3918TIP3   OH211717   0.780   6.563   5.705
 3918TIP3    H111718   0.812   6.489   5.655
 3918TIP3    H211719   0.752   6.526   5.789
 3919TIP3   OH211720   2.664   1.526   2.692
 3919TIP3    H111721   2.666   1.541   2.787
 3919TIP3    H211722   2.590   1.467   2.678
 3920TIP3   OH211723   5.074   0.239   2.095
 3920TIP3    H111724   5.129   0.242   2.173
 3920TIP3    H211725   5.066   0.145   2.076
 3921TIP3   OH211726   1.617   1.888   1.568
 3921TIP3    H111727   1.527   1.878   1.537
 3921TIP3    H211728   1.655   1.955   1.512
 3922TIP3   OH211729   0.122   4.844   1.628
 3922TIP3    H111730   0.049   4.794   1.665
 3922TIP3    H211731   0.190   4.841   1.695
 3923TIP3   OH211732   1.988   3.083   0.841
 3923TIP3    H111733   2.027   3.110   0.758
 3923TIP3    H211734   1.967   3.166   0.885
 3924TIP3   OH211735   1.250   1.054   1.432
 3924TIP3    H111736   1.301   1.125   1.473
 3924TIP3    H211737   1.288   1.044   1.345
 3925TIP3   OH211738   6.394   6.330   0.319
 3925TIP3    H111739   6.456   6.264   0.288
 3925TIP3    H211740   6.351   6.362   0.239
 3926TIP3   OH211741   1.709   2.619   0.027
 3926TIP3    H111742   1.632   2.670   0.000
 3926TIP3    H211743   1.750   2.672   0.094
 3927TIP3   OH211744   2.972   4.210   3.083
 3927TIP3    H111745   2.880   4.197   3.105
 3927TIP3    H211746   2.994   4.136   3.025
 3928TIP3   OH211747   0.561   4.577   2.850
 3928TIP3    H111748   0.551   4.504   2.911
 3928TIP3    H211749   0.603   4.645   2.901
 3929TIP3   OH211750   3.294   3.195   0.589
 3929TIP3    H111751   3.202   3.220   0.593
 3929TIP3    H211752   3.334   3.237   0.666
 3930TIP3   OH211753   5.395   1.863   2.012
 3930TIP3    H111754   5.369   1.802   2.080
 3930TIP3    H211755   5.352   1.832   1.933
 3931TIP3   OH211756   4.611   0.919   3.954
 3931TIP3    H111757   4.655   0.837   3.929
 3931TIP3    H211758   4.539   0.927   3.891
 3932TIP3   OH211759   3.990   5.886   2.881
 3932TIP3    H111760   4.017   5.946   2.950
 3932TIP3    H211761   3.978   5.941   2.804
 3933TIP3   OH211762   3.226   6.291   3.748
 3933TIP3    H111763   3.134   6.316   3.748
 3933TIP3    H211764   3.266   6.342   3.678
 3934TIP3   OH211765   3.919   3.876   4.305
 3934TIP3    H111766   3.870   3.940   4.253
 3934TIP3    H211767   4.009   3.910   4.304
 3935TIP3   OH211768   2.321   0.434   2.115
 3935TIP3    H111769   2.359   0.387   2.189
 3935TIP3    H211770   2.385   0.423   2.045
 3936TIP3   OH211771   3.276   2.969   4.181
 3936TIP3    H111772   3.232   3.035   4.234
 3936TIP3    H211773   3.205   2.925   4.133
 3937TIP3   OH211774   2.990   0.835   2.096
 3937TIP3    H111775   2.935   0.910   2.076
 3937TIP3    H211776   3.070   0.850   2.046
 3938TIP3   OH211777   3.844   2.947   5.377
 3938TIP3    H111778   3.790   2.869   5.362
 3938TIP3    H211779   3.934   2.916   5.371
 3939TIP3   OH211780   2.180   1.558   2.476
 3939TIP3    H111781   2.125   1.590   2.548
 3939TIP3    H211782   2.248   1.625   2.467
 3940TIP3   OH211783   2.787   3.226   4.900
 3940TIP3    H111784   2.739   3.306   4.881
 3940TIP3    H211785   2.738   3.157   4.853
 3941TIP3   OH211786   6.797   5.982   2.475
 3941TIP3    H111787   6.783   6.018   2.562
 3941TIP3    H211788   6.786   5.887   2.486
 3942TIP3   OH211789   0.662   1.089   4.175
 3942TIP3    H111790   0.677   1.023   4.242
 3942TIP3    H211791   0.577   1.127   4.197
 3943TIP3   OH211792   4.356   5.149   4.186
 3943TIP3    H111793   4.268   5.184   4.172
 3943TIP3    H211794   4.403   5.219   4.231
 3944TIP3   OH211795   6.635   6.462   0.099
 3944TIP3    H111796   6.579   6.436   0.025
 3944TIP3    H211797   6.723   6.468   0.061
 3945TIP3   OH211798   1.551   3.961   1.331
 3945TIP3    H111799   1.491   3.942   1.258
 3945TIP3    H211800   1.509   4.034   1.377
 3946TIP3   OH211801   3.892   0.897   2.509
 3946TIP3    H111802   3.937   0.887   2.425
 3946TIP3    H211803   3.846   0.814   2.521
 3947TIP3   OH211804   3.426   1.694   2.368
 3947TIP3    H111805   3.522   1.694   2.376
 3947TIP3    H211806   3.395   1.711   2.457
 3948TIP3   OH211807   0.961   1.290   3.829
 3948TIP3    H111808   0.915   1.255   3.906
 3948TIP3    H211809   1.028   1.347   3.865
 3949TIP3   OH211810   6.313   4.814   1.382
 3949TIP3    H111811   6.249   4.747   1.404
 3949TIP3    H211812   6.390   4.764   1.355
 3950TIP3   OH211813   6.138   6.046   1.539
 3950TIP3    H111814   6.171   5.960   1.513
 3950TIP3    H211815   6.214   6.092   1.573
 3951TIP3   OH211816   5.548   4.491   5.671
 3951TIP3    H111817   5.573   4.560   5.733
 3951TIP3    H211818   5.604   4.417   5.694
 3952TIP3   OH211819   0.756   4.645   3.108
 3952TIP3    H111820   0.700   4.723   3.107
 3952TIP3    H211821   0.830   4.668   3.164
 3953TIP3   OH211822   6.994   2.306   2.633
 3953TIP3    H111823   7.003   2.284   2.725
 3953TIP3    H211824   7.049   2.242   2.587
 3954TIP3   OH211825   5.608   2.778   3.651
 3954TIP3    H111826   5.621   2.873   3.659
 3954TIP3    H211827   5.575   2.751   3.737
 3955TIP3   OH211828   3.679   5.352   1.466
 3955TIP3    H111829   3.660   5.446   1.463
 3955TIP3    H211830   3.719   5.333   1.381
 3956TIP3   OH211831   2.505   5.143   4.638
 3956TIP3    H111832   2.535   5.053   4.646
 3956TIP3    H211833   2.585   5.194   4.625
 3957TIP3   OH211834   5.902   6.792   0.902
 3957TIP3    H111835   5.995   6.807   0.916
 3957TIP3    H211836   5.882   6.712   0.951
 3958TIP3   OH211837   3.055   0.093   0.859
 3958TIP3    H111838   2.986   0.071   0.922
 3958TIP3    H211839   3.136   0.064   0.902
 3959TIP3   OH211840   0.881   6.103   5.237
 3959TIP3    H111841   0.797   6.145   5.255
 3959TIP3    H211842   0.913   6.075   5.322
 3960TIP3   OH211843   3.146   1.264   5.715
 3960TIP3    H111844   3.085   1.195   5.741
 3960TIP3    H211845   3.109   1.298   5.634
 3961TIP3   OH211846   0.468   3.133   3.436
 3961TIP3    H111847   0.504   3.193   3.501
 3961TIP3    H211848   0.404   3.185   3.388
 3962TIP3   OH211849   2.703   0.259   2.969
 3962TIP3    H111850   2.734   0.273   3.058
 3962TIP3    H211851   2.664   0.172   2.970
 3963TIP3   OH211852   0.353   1.907   0.655
 3963TIP3    H111853   0.295   1.981   0.641
 3963TIP3    H211854   0.327   1.872   0.741
 3964TIP3   OH211855   3.758   1.080   5.211
 3964TIP3    H111856   3.815   1.046   5.142
 3964TIP3    H211857   3.756   1.010   5.277
 3965TIP3   OH211858   5.677   5.710   4.415
 3965TIP3    H111859   5.644   5.634   4.463
 3965TIP3    H211860   5.671   5.783   4.476
 3966TIP3   OH211861   0.403   5.791   4.356
 3966TIP3    H111862   0.329   5.743   4.392
 3966TIP3    H211863   0.367   5.839   4.281
 3967TIP3   OH211864   1.095   6.091   2.954
 3967TIP3    H111865   1.067   6.001   2.939
 3967TIP3    H211866   1.190   6.085   2.965
 3968TIP3   OH211867   5.469   5.263   5.208
 3968TIP3    H111868   5.544   5.309   5.245
 3968TIP3    H211869   5.497   5.171   5.203
 3969TIP3   OH211870   5.585   5.195   4.886
 3969TIP3    H111871   5.540   5.153   4.958
 3969TIP3    H211872   5.564   5.288   4.895
 3970TIP3   OH211873   1.320   3.708   1.339
 3970TIP3    H111874   1.234   3.670   1.325
 3970TIP3    H211875   1.367   3.644   1.392
 3971TIP3   OH211876   3.599   5.325   3.677
 3971TIP3    H111877   3.515   5.297   3.642
 3971TIP3    H211878   3.589   5.419   3.692
 3972TIP3   OH211879   1.942   0.952   5.736
 3972TIP3    H111880   1.971   0.861   5.724
 3972TIP3    H211881   1.975   0.976   5.822
 3973TIP3   OH211882   4.999   5.849   1.189
 3973TIP3    H111883   5.054   5.928   1.187
 3973TIP3    H211884   5.062   5.776   1.192
 3974TIP3   OH211885   3.560   6.131   5.566
 3974TIP3    H111886   3.523   6.068   5.627
 3974TIP3    H211887   3.553   6.088   5.480
 3975TIP3   OH211888   5.973   2.574   2.098
 3975TIP3    H111889   6.028   2.574   2.020
 3975TIP3    H211890   5.901   2.633   2.077
 3976TIP3   OH211891   4.828   2.716   1.081
 3976TIP3    H111892   4.914   2.758   1.072
 3976TIP3    H211893   4.823   2.656   1.007
 3977TIP3   OH211894   3.381   4.830   4.545
 3977TIP3    H111895   3.425   4.880   4.613
 3977TIP3    H211896   3.331   4.896   4.495
 3978TIP3   OH211897   0.275   1.379   4.421
 3978TIP3    H111898   0.358   1.367   4.468
 3978TIP3    H211899   0.237   1.458   4.458
 3979TIP3   OH211900   2.227   6.088   0.337
 3979TIP3    H111901   2.186   6.161   0.383
 3979TIP3    H211902   2.319   6.113   0.330
 3980TIP3   OH211903   5.047   2.492   0.273
 3980TIP3    H111904   5.117   2.545   0.311
 3980TIP3    H211905   4.996   2.554   0.220
 3981TIP3   OH211906   3.145   0.381   0.304
 3981TIP3    H111907   3.163   0.475   0.305
 3981TIP3    H211908   3.052   0.374   0.326
 3982TIP3   OH211909   6.220   4.561   3.345
 3982TIP3    H111910   6.271   4.641   3.342
 3982TIP3    H211911   6.284   4.491   3.333
 3983TIP3   OH211912   3.269   2.127   5.396
 3983TIP3    H111913   3.223   2.059   5.349
 3983TIP3    H211914   3.348   2.143   5.345
 3984TIP3   OH211915   1.931   3.872   2.668
 3984TIP3    H111916   1.856   3.828   2.707
 3984TIP3    H211917   1.931   3.959   2.707
 3985TIP3   OH211918   4.342   4.195   4.203
 3985TIP3    H111919   4.428   4.236   4.215
 3985TIP3    H211920   4.307   4.237   4.125
 3986TIP3   OH211921   6.918   5.981   2.236
 3986TIP3    H111922   6.863   6.011   2.309
 3986TIP3    H211923   6.933   6.059   2.183
 3987TIP3   OH211924   5.098   0.484   4.385
 3987TIP3    H111925   5.144   0.564   4.361
 3987TIP3    H211926   5.009   0.497   4.353
 3988TIP3   OH211927   5.316   3.696   3.963
 3988TIP3    H111928   5.384   3.752   3.999
 3988TIP3    H211929   5.282   3.648   4.038
 3989TIP3   OH211930   5.482   1.054   2.132
 3989TIP3    H111931   5.454   0.991   2.065
 3989TIP3    H211932   5.522   1.125   2.082
 3990TIP3   OH211933   2.044   2.206   2.559
 3990TIP3    H111934   2.132   2.227   2.527
 3990TIP3    H211935   1.997   2.174   2.482
 3991TIP3   OH211936   0.609   6.126   3.565
 3991TIP3    H111937   0.581   6.050   3.515
 3991TIP3    H211938   0.539   6.190   3.554
 3992TIP3   OH211939   5.734   3.641   0.736
 3992TIP3    H111940   5.700   3.561   0.697
 3992TIP3    H211941   5.727   3.627   0.830
 3993TIP3   OH211942   0.718   3.846   3.447
 3993TIP3    H111943   0.812   3.830   3.448
 3993TIP3    H211944   0.682   3.782   3.508
 3994TIP3   OH211945   3.829   6.793   5.393
 3994TIP3    H111946   3.899   6.746   5.347
 3994TIP3    H211947   3.852   6.885   5.384
 3995TIP3   OH211948   2.162   5.942   5.539
 3995TIP3    H111949   2.074   5.911   5.519
 3995TIP3    H211950   2.149   6.023   5.589
 3996TIP3   OH211951   1.328   3.418   3.267
 3996TIP3    H111952   1.323   3.421   3.363
 3996TIP3    H211953   1.420   3.403   3.248
 3997TIP3   OH211954   5.866   1.576   0.838
 3997TIP3    H111955   5.787   1.610   0.881
 3997TIP3    H211956   5.840   1.489   0.807
 3998TIP3   OH211957   0.637   5.328   1.678
 3998TIP3    H111958   0.656   5.236   1.693
 3998TIP3    H211959   0.564   5.327   1.616
 3999TIP3   OH211960   2.278   2.297   2.367
 3999TIP3    H111961   2.250   2.387   2.353
 3999TIP3    H211962   2.322   2.273   2.285
 4000TIP3   OH211963   1.010   3.622   2.397
 4000TIP3    H111964   1.042   3.692   2.341
 4000TIP3    H211965   1.074   3.551   2.386
 4001TIP3   OH211966   6.276   4.715   5.644
 4001TIP3    H111967   6.285   4.809   5.631
 4001TIP3    H211968   6.219   4.685   5.573
 4002TIP3   OH211969   5.044   1.945   4.773
 4002TIP3    H111970   5.058   1.997   4.694
 4002TIP3    H211971   4.954   1.967   4.800
 4003TIP3   OH211972   4.358   1.417   5.032
 4003TIP3    H111973   4.278   1.468   5.023
 4003TIP3    H211974   4.344   1.362   5.109
 4004TIP3   OH211975   1.203   0.184   5.526
 4004TIP3    H111976   1.162   0.175   5.440
 4004TIP3    H211977   1.163   0.115   5.579
 4005TIP3   OH211978   2.430   1.739   2.424
 4005TIP3    H111979   2.505   1.696   2.382
 4005TIP3    H211980   2.467   1.820   2.459
 4006TIP3   OH211981   5.961   3.300   5.150
 4006TIP3    H111982   5.936   3.392   5.148
 4006TIP3    H211983   6.056   3.301   5.161
 4007TIP3   OH211984   5.290   1.844   3.944
 4007TIP3    H111985   5.319   1.782   3.876
 4007TIP3    H211986   5.278   1.926   3.897
 4008TIP3   OH211987   2.226   3.191   0.314
 4008TIP3    H111988   2.310   3.145   0.303
 4008TIP3    H211989   2.252   3.280   0.337
 4009TIP3   OH211990   3.311   4.921   1.831
 4009TIP3    H111991   3.314   4.858   1.903
 4009TIP3    H211992   3.325   5.006   1.873
 4010TIP3   OH211993   0.738   5.435   4.182
 4010TIP3    H111994   0.821   5.396   4.154
 4010TIP3    H211995   0.690   5.362   4.222
 4011TIP3   OH211996   3.046   3.269   0.651
 4011TIP3    H111997   3.012   3.202   0.711
 4011TIP3    H211998   2.978   3.336   0.649
 4012TIP3   OH211999   5.243   0.964   4.190
 4012TIP3    H112000   5.310   1.015   4.236
 4012TIP3    H212001   5.186   1.029   4.150
 4013TIP3   OH212002   1.333   4.862   2.891
 4013TIP3    H112003   1.423   4.895   2.885
 4013TIP3    H212004   1.343   4.767   2.885
 4014TIP3   OH212005   3.149   0.546   2.365
 4014TIP3    H112006   3.236   0.576   2.391
 4014TIP3    H212007   3.102   0.536   2.448
 4015TIP3   OH212008   3.775   0.493   3.950
 4015TIP3    H112009   3.765   0.429   3.880
 4015TIP3    H212010   3.863   0.476   3.985
 4016TIP3   OH212011   6.344   0.108   4.161
 4016TIP3    H112012   6.314   0.028   4.117
 4016TIP3    H212013   6.297   0.179   4.117
 4017TIP3   OH212014   5.372   5.356   3.921
 4017TIP3    H112015   5.306   5.367   3.852
 4017TIP3    H212016   5.404   5.267   3.909
 4018TIP3   OH212017   1.949   6.531   5.722
 4018TIP3    H112018   1.967   6.438   5.733
 4018TIP3    H212019   1.899   6.555   5.801
 4019TIP3   OH212020   7.005   1.636   5.372
 4019TIP3    H112021   7.050   1.554   5.394
 4019TIP3    H212022   7.074   1.702   5.374
 4020TIP3   OH212023   0.155   6.539   1.143
 4020TIP3    H112024   0.129   6.492   1.222
 4020TIP3    H212025   0.172   6.629   1.172
 4021TIP3   OH212026   4.097   2.780   3.787
 4021TIP3    H112027   4.105   2.709   3.724
 4021TIP3    H212028   4.013   2.764   3.830
 4022TIP3   OH212029   6.047   4.829   4.059
 4022TIP3    H112030   6.084   4.848   4.145
 4022TIP3    H212031   5.952   4.835   4.072
 4023TIP3   OH212032   3.709   4.057   4.815
 4023TIP3    H112033   3.632   4.062   4.872
 4023TIP3    H212034   3.676   4.076   4.727
 4024TIP3   OH212035   5.013   5.729   4.412
 4024TIP3    H112036   4.951   5.672   4.367
 4024TIP3    H212037   5.023   5.690   4.499
 4025TIP3   OH212038   6.653   2.007   5.171
 4025TIP3    H112039   6.579   2.055   5.208
 4025TIP3    H212040   6.647   1.919   5.209
 4026TIP3   OH212041   3.925   3.857   2.781
 4026TIP3    H112042   3.946   3.848   2.688
 4026TIP3    H212043   3.848   3.802   2.793
 4027TIP3   OH212044   4.665   5.361   5.840
 4027TIP3    H112045   4.705   5.281   5.874
 4027TIP3    H212046   4.732   5.400   5.784
 4028TIP3   OH212047   3.982   0.521   2.360
 4028TIP3    H112048   3.933   0.518   2.442
 4028TIP3    H212049   4.011   0.431   2.346
 4029TIP3   OH212050   6.609   2.220   1.650
 4029TIP3    H112051   6.646   2.197   1.735
 4029TIP3    H212052   6.628   2.313   1.640
 4030TIP3   OH212053   1.127   0.244   4.986
 4030TIP3    H112054   1.207   0.279   4.947
 4030TIP3    H212055   1.138   0.149   4.986
 4031TIP3   OH212056   6.713   1.606   4.246
 4031TIP3    H112057   6.623   1.594   4.274
 4031TIP3    H212058   6.755   1.653   4.318
 4032TIP3   OH212059   4.484   0.288   1.395
 4032TIP3    H112060   4.509   0.306   1.485
 4032TIP3    H212061   4.547   0.337   1.342
 4033TIP3   OH212062   1.825   4.566   0.454
 4033TIP3    H112063   1.748   4.527   0.414
 4033TIP3    H212064   1.793   4.606   0.535
 4034TIP3   OH212065   2.870   2.584   2.556
 4034TIP3    H112066   2.907   2.587   2.468
 4034TIP3    H212067   2.834   2.496   2.565
 4035TIP3   OH212068   5.887   5.025   1.835
 4035TIP3    H112069   5.922   5.035   1.924
 4035TIP3    H212070   5.963   4.999   1.782
 4036TIP3   OH212071   7.053   4.188   3.413
 4036TIP3    H112072   7.095   4.222   3.334
 4036TIP3    H212073   6.959   4.205   3.399
 4037TIP3   OH212074   4.191   0.127   4.778
 4037TIP3    H112075   4.220   0.210   4.740
 4037TIP3    H212076   4.196   0.064   4.706
 4038TIP3   OH212077   5.748   3.168   5.630
 4038TIP3    H112078   5.685   3.164   5.558
 4038TIP3    H212079   5.782   3.258   5.627
 4039TIP3   OH212080   6.621   5.374   1.558
 4039TIP3    H112081   6.530   5.356   1.536
 4039TIP3    H212082   6.628   5.355   1.651
 4040TIP3   OH212083   3.476   2.428   3.828
 4040TIP3    H112084   3.453   2.392   3.742
 4040TIP3    H212085   3.429   2.511   3.832
 4041TIP3   OH212086   0.750   3.098   2.700
 4041TIP3    H112087   0.799   3.039   2.643
 4041TIP3    H212088   0.742   3.050   2.783
 4042TIP3   OH212089   6.935   2.216   1.515
 4042TIP3    H112090   7.003   2.280   1.538
 4042TIP3    H212091   6.909   2.240   1.426
 4043TIP3   OH212092   5.730   0.525   2.261
 4043TIP3    H112093   5.694   0.550   2.176
 4043TIP3    H212094   5.683   0.581   2.324
 4044TIP3   OH212095   2.061   6.482   0.392
 4044TIP3    H112096   2.027   6.427   0.321
 4044TIP3    H212097   2.024   6.569   0.375
 4045TIP3   OH212098   6.504   2.008   3.856
 4045TIP3    H112099   6.519   1.941   3.922
 4045TIP3    H212100   6.582   2.064   3.860
 4046TIP3   OH212101   7.229   5.445   1.132
 4046TIP3    H112102   7.280   5.404   1.202
 4046TIP3    H212103   7.213   5.374   1.070
 4047TIP3   OH212104   0.747   2.329   3.239
 4047TIP3    H112105   0.762   2.244   3.197
 4047TIP3    H212106   0.806   2.388   3.194
 4048TIP3   OH212107   3.354   2.875   3.141
 4048TIP3    H112108   3.276   2.919   3.107
 4048TIP3    H212109   3.346   2.785   3.109
 4049TIP3   OH212110   6.137   2.627   2.368
 4049TIP3    H112111   6.097   2.618   2.281
 4049TIP3    H212112   6.202   2.557   2.372
 4050TIP3   OH212113   5.962   4.650   3.374
 4050TIP3    H112114   5.996   4.740   3.378
 4050TIP3    H212115   6.040   4.596   3.360
 4051TIP3   OH212116   3.372   5.609   3.753
 4051TIP3    H112117   3.339   5.520   3.764
 4051TIP3    H212118   3.311   5.651   3.693
 4052TIP3   OH212119   3.606   0.603   3.004
 4052TIP3    H112120   3.684   0.549   3.013
 4052TIP3    H212121   3.534   0.541   3.003
 4053TIP3   OH212122   7.094   2.816   2.623
 4053TIP3    H112123   7.116   2.748   2.560
 4053TIP3    H212124   7.178   2.861   2.640
 4054TIP3   OH212125   0.332   0.818   0.676
 4054TIP3    H112126   0.265   0.887   0.684
 4054TIP3    H212127   0.322   0.766   0.756
 4055TIP3   OH212128   2.795   1.804   3.926
 4055TIP3    H112129   2.863   1.839   3.983
 4055TIP3    H212130   2.841   1.744   3.867
 4056TIP3   OH212131   6.616   1.747   2.085
 4056TIP3    H112132   6.578   1.797   2.157
 4056TIP3    H212133   6.542   1.699   2.048
 4057TIP3   OH212134   6.879   2.178   5.164
 4057TIP3    H112135   6.833   2.262   5.160
 4057TIP3    H212136   6.811   2.114   5.184
 4058TIP3   OH212137   1.806   5.215   3.874
 4058TIP3    H112138   1.763   5.297   3.849
 4058TIP3    H212139   1.848   5.234   3.957
 4059TIP3   OH212140   6.000   6.713   5.571
 4059TIP3    H112141   6.061   6.748   5.507
 4059TIP3    H212142   5.988   6.621   5.546
 4060TIP3   OH212143   7.202   5.314   0.408
 4060TIP3    H112144   7.284   5.364   0.401
 4060TIP3    H212145   7.160   5.327   0.323
 4061TIP3   OH212146   3.324   0.665   3.200
 4061TIP3    H112147   3.233   0.639   3.186
 4061TIP3    H212148   3.348   0.623   3.282
 4062TIP3   OH212149   6.142   1.807   3.613
 4062TIP3    H112150   6.115   1.749   3.684
 4062TIP3    H212151   6.238   1.808   3.617
 4063TIP3   OH212152   3.293   4.186   1.992
 4063TIP3    H112153   3.368   4.167   2.047
 4063TIP3    H212154   3.305   4.277   1.965
 4064TIP3   OH212155   2.226   0.787   4.047
 4064TIP3    H112156   2.282   0.765   4.122
 4064TIP3    H212157   2.181   0.867   4.073
 4065TIP3   OH212158   1.981   5.931   5.123
 4065TIP3    H112159   1.936   5.886   5.194
 4065TIP3    H212160   2.048   5.869   5.094
 4066TIP3   OH212161   0.186   6.320   0.956
 4066TIP3    H112162   0.244   6.260   1.003
 4066TIP3    H212163   0.148   6.375   1.024
 4067TIP3   OH212164   0.220   5.604   4.807
 4067TIP3    H112165   0.261   5.676   4.855
 4067TIP3    H212166   0.211   5.534   4.872
 4068TIP3   OH212167   3.146   4.967   1.397
 4068TIP3    H112168   3.111   4.884   1.363
 4068TIP3    H212169   3.072   5.028   1.390
 4069TIP3   OH212170   5.861   4.911   1.094
 4069TIP3    H112171   5.811   4.831   1.080
 4069TIP3    H212172   5.933   4.906   1.032
 4070TIP3   OH212173   2.991   1.705   3.094
 4070TIP3    H112174   2.937   1.627   3.108
 4070TIP3    H212175   3.029   1.723   3.180
 4071TIP3   OH212176   0.367   3.210   1.445
 4071TIP3    H112177   0.321   3.220   1.362
 4071TIP3    H212178   0.422   3.289   1.452
 4072TIP3   OH212179   3.861   3.518   3.195
 4072TIP3    H112180   3.906   3.509   3.111
 4072TIP3    H212181   3.787   3.459   3.189
 4073TIP3   OH212182   4.091   5.026   1.324
 4073TIP3    H112183   4.053   5.024   1.412
 4073TIP3    H212184   4.072   5.115   1.292
 4074TIP3   OH212185   3.329   3.974   1.516
 4074TIP3    H112186   3.307   3.997   1.426
 4074TIP3    H212187   3.419   4.003   1.527
 4075TIP3   OH212188   0.403   0.523   1.623
 4075TIP3    H112189   0.343   0.492   1.691
 4075TIP3    H212190   0.415   0.616   1.644
 4076TIP3   OH212191   5.050   3.643   2.258
 4076TIP3    H112192   5.134   3.681   2.282
 4076TIP3    H212193   4.984   3.700   2.298
 4077TIP3   OH212194   2.284   2.889   2.551
 4077TIP3    H112195   2.359   2.829   2.555
 4077TIP3    H212196   2.207   2.831   2.547
 4078TIP3   OH212197   6.360   1.011   3.915
 4078TIP3    H112198   6.283   1.031   3.862
 4078TIP3    H212199   6.367   1.084   3.976
 4079TIP3   OH212200   0.403   4.681   3.800
 4079TIP3    H112201   0.339   4.662   3.868
 4079TIP3    H212202   0.488   4.680   3.845
 4080TIP3   OH212203   4.433   0.505   0.767
 4080TIP3    H112204   4.337   0.503   0.767
 4080TIP3    H212205   4.459   0.416   0.788
 4081TIP3   OH212206   5.373   3.024   1.139
 4081TIP3    H112207   5.298   3.070   1.176
 4081TIP3    H212208   5.438   3.023   1.209
 4082TIP3   OH212209   1.342   0.517   0.311
 4082TIP3    H112210   1.302   0.545   0.394
 4082TIP3    H212211   1.268   0.506   0.252
 4083TIP3   OH212212   3.565   3.650   2.571
 4083TIP3    H112213   3.486   3.600   2.553
 4083TIP3    H212214   3.534   3.732   2.608
 4084TIP3   OH212215   3.715  -0.089   5.505
 4084TIP3    H112216   3.639  -0.050   5.548
 4084TIP3    H212217   3.739  -0.025   5.437
 4085TIP3   OH212218   4.593   2.288   0.551
 4085TIP3    H112219   4.501   2.316   0.547
 4085TIP3    H212220   4.642   2.368   0.567
 4086TIP3   OH212221   5.364   1.304   5.043
 4086TIP3    H112222   5.379   1.215   5.076
 4086TIP3    H212223   5.269   1.315   5.049
 4087TIP3   OH212224   5.289   1.875   2.745
 4087TIP3    H112225   5.365   1.915   2.786
 4087TIP3    H212226   5.219   1.939   2.754
 4088TIP3   OH212227   7.204   5.815   2.172
 4088TIP3    H112228   7.128   5.873   2.180
 4088TIP3    H212229   7.279   5.870   2.192
 4089TIP3   OH212230   0.122   5.116   2.424
 4089TIP3    H112231   0.028   5.114   2.404
 4089TIP3    H212232   0.134   5.043   2.484
 4090TIP3   OH212233   1.762   6.643   0.239
 4090TIP3    H112234   1.788   6.660   0.330
 4090TIP3    H212235   1.805   6.560   0.217
 4091TIP3   OH212236   1.207   4.687   4.735
 4091TIP3    H112237   1.224   4.753   4.802
 4091TIP3    H212238   1.124   4.714   4.695
 4092TIP3   OH212239   2.797   3.075   3.229
 4092TIP3    H112240   2.825   3.049   3.141
 4092TIP3    H212241   2.865   3.041   3.286
 4093TIP3   OH212242   0.039   4.293   1.888
 4093TIP3    H112243   0.096   4.357   1.845
 4093TIP3    H212244   0.055   4.306   1.981
 4094TIP3   OH212245   1.426   2.761   2.863
 4094TIP3    H112246   1.443   2.773   2.957
 4094TIP3    H212247   1.382   2.842   2.837
 4095TIP3   OH212248   2.568   4.402   0.882
 4095TIP3    H112249   2.526   4.364   0.805
 4095TIP3    H212250   2.499   4.454   0.924
 4096TIP3   OH212251   0.314   1.980   5.271
 4096TIP3    H112252   0.293   1.941   5.186
 4096TIP3    H212253   0.275   2.068   5.268
 4097TIP3   OH212254   3.846   4.169   2.774
 4097TIP3    H112255   3.805   4.206   2.853
 4097TIP3    H212256   3.848   4.075   2.790
 4098TIP3   OH212257   3.164   6.312   3.030
 4098TIP3    H112258   3.073   6.296   3.004
 4098TIP3    H212259   3.202   6.359   2.956
 4099TIP3   OH212260   0.798   0.738   1.213
 4099TIP3    H112261   0.877   0.792   1.211
 4099TIP3    H212262   0.806   0.686   1.293
 4100TIP3   OH212263   4.724   1.324   3.724
 4100TIP3    H112264   4.769   1.392   3.674
 4100TIP3    H212265   4.644   1.366   3.756
 4101TIP3   OH212266   2.215   6.416   3.056
 4101TIP3    H112267   2.237   6.365   2.978
 4101TIP3    H212268   2.135   6.463   3.033
 4102TIP3   OH212269   3.254   4.128   3.887
 4102TIP3    H112270   3.219   4.039   3.894
 4102TIP3    H212271   3.295   4.131   3.801
 4103TIP3   OH212272   6.501   4.712   1.657
 4103TIP3    H112273   6.445   4.666   1.594
 4103TIP3    H212274   6.441   4.747   1.722
 4104TIP3   OH212275   3.698   2.647   4.997
 4104TIP3    H112276   3.705   2.572   5.055
 4104TIP3    H212277   3.620   2.630   4.944
 4105TIP3   OH212278   3.338   4.806   3.863
 4105TIP3    H112279   3.330   4.718   3.826
 4105TIP3    H212280   3.417   4.842   3.821
 4106TIP3   OH212281   2.716   2.961   3.608
 4106TIP3    H112282   2.700   2.866   3.606
 4106TIP3    H212283   2.787   2.975   3.545
 4107TIP3   OH212284   5.161   4.309   1.956
 4107TIP3    H112285   5.132   4.233   2.007
 4107TIP3    H212286   5.188   4.373   2.021
 4108TIP3   OH212287   1.208   3.572   4.644
 4108TIP3    H112288   1.244   3.519   4.715
 4108TIP3    H212289   1.174   3.650   4.687
 4109TIP3   OH212290   4.992   5.585   3.028
 4109TIP3    H112291   4.957   5.663   3.071
 4109TIP3    H212292   4.969   5.513   3.087
 4110TIP3   OH212293   3.080   0.345   0.014
 4110TIP3    H112294   3.104   0.323   0.104
 4110TIP3    H212295   2.989   0.374   0.020
 4111TIP3   OH212296   2.595   6.343   3.841
 4111TIP3    H112297   2.550   6.265   3.809
 4111TIP3    H212298   2.645   6.312   3.917
 4112TIP3   OH212299   1.041   0.574   2.761
 4112TIP3    H112300   1.008   0.632   2.693
 4112TIP3    H212301   0.973   0.577   2.830
 4113TIP3   OH212302   2.872   5.280   0.533
 4113TIP3    H112303   2.786   5.245   0.556
 4113TIP3    H212304   2.871   5.370   0.566
 4114TIP3   OH212305   6.227   4.078   5.042
 4114TIP3    H112306   6.156   4.104   5.101
 4114TIP3    H212307   6.217   4.135   4.966
 4115TIP3   OH212308   1.700   4.332   3.569
 4115TIP3    H112309   1.687   4.289   3.654
 4115TIP3    H212310   1.725   4.261   3.510
 4116TIP3   OH212311   5.681   6.585   2.850
 4116TIP3    H112312   5.753   6.617   2.904
 4116TIP3    H212313   5.720   6.571   2.764
 4117TIP3   OH212314   0.235   6.791   0.257
 4117TIP3    H112315   0.246   6.859   0.324
 4117TIP3    H212316   0.288   6.718   0.288
 4118TIP3   OH212317   6.776   2.318   4.053
 4118TIP3    H112318   6.715   2.273   3.994
 4118TIP3    H212319   6.773   2.409   4.024
 4119TIP3   OH212320   4.912   5.321   2.488
 4119TIP3    H112321   4.857   5.332   2.566
 4119TIP3    H212322   4.934   5.410   2.462
 4120TIP3   OH212323   5.524   0.100   4.891
 4120TIP3    H112324   5.434   0.129   4.901
 4120TIP3    H212325   5.558   0.095   4.980
 4121TIP3   OH212326   5.844   0.094   3.385
 4121TIP3    H112327   5.856   0.189   3.377
 4121TIP3    H212328   5.926   0.057   3.352
 4122TIP3   OH212329   2.615   2.034   5.541
 4122TIP3    H112330   2.701   1.993   5.541
 4122TIP3    H212331   2.555   1.964   5.567
 4123TIP3   OH212332   4.819   5.817   4.847
 4123TIP3    H112333   4.775   5.806   4.763
 4123TIP3    H212334   4.757   5.783   4.911
 4124TIP3   OH212335   6.323   3.532   2.591
 4124TIP3    H112336   6.383   3.557   2.521
 4124TIP3    H212337   6.307   3.613   2.639
 4125TIP3   OH212338   0.485   0.602   0.110
 4125TIP3    H112339   0.416   0.583   0.047
 4125TIP3    H212340   0.542   0.525   0.108
 4126TIP3   OH212341   1.316   6.709   2.199
 4126TIP3    H112342   1.276   6.624   2.184
 4126TIP3    H212343   1.269   6.768   2.140
 4127TIP3   OH212344   2.036   1.692   2.223
 4127TIP3    H112345   2.085   1.621   2.181
 4127TIP3    H212346   1.971   1.647   2.277
 4128TIP3   OH212347   2.316   3.344   2.031
 4128TIP3    H112348   2.304   3.401   2.107
 4128TIP3    H212349   2.240   3.362   1.976
 4129TIP3   OH212350   4.789   5.094   4.968
 4129TIP3    H112351   4.832   5.094   5.054
 4129TIP3    H212352   4.763   5.002   4.955
 4130TIP3   OH212353   1.365   6.634   3.961
 4130TIP3    H112354   1.403   6.682   4.035
 4130TIP3    H212355   1.296   6.692   3.929
 4131TIP3   OH212356   3.518   1.087   5.532
 4131TIP3    H112357   3.527   1.090   5.628
 4131TIP3    H212358   3.494   0.997   5.513
 4132TIP3   OH212359   6.074   4.785   4.811
 4132TIP3    H112360   6.015   4.835   4.867
 4132TIP3    H212361   6.128   4.852   4.768
 4133TIP3   OH212362   7.059   0.924   0.444
 4133TIP3    H112363   7.137   0.974   0.419
 4133TIP3    H212364   7.064   0.918   0.539
 4134TIP3   OH212365   0.663   0.740   0.300
 4134TIP3    H112366   0.602   0.710   0.233
 4134TIP3    H212367   0.748   0.742   0.255
 4135TIP3   OH212368   4.711   6.365   1.112
 4135TIP3    H112369   4.783   6.318   1.070
 4135TIP3    H212370   4.657   6.397   1.040
 4136TIP3   OH212371   1.043   2.028   3.727
 4136TIP3    H112372   1.023   2.116   3.758
 4136TIP3    H212373   1.000   2.021   3.642
 4137TIP3   OH212374   5.584   4.028   4.458
 4137TIP3    H112375   5.548   4.000   4.542
 4137TIP3    H212376   5.562   4.121   4.452
 4138TIP3   OH212377   6.967   5.206   5.525
 4138TIP3    H112378   6.927   5.220   5.611
 4138TIP3    H212379   6.938   5.118   5.499
 4139TIP3   OH212380   4.623   1.814   1.830
 4139TIP3    H112381   4.629   1.907   1.809
 4139TIP3    H212382   4.533   1.802   1.861
 4140TIP3   OH212383   3.578   2.267   4.032
 4140TIP3    H112384   3.620   2.335   4.085
 4140TIP3    H212385   3.545   2.314   3.955
 4141TIP3   OH212386   0.840   3.355   3.676
 4141TIP3    H112387   0.841   3.393   3.764
 4141TIP3    H212388   0.889   3.273   3.685
 4142TIP3   OH212389   5.348   6.653   2.306
 4142TIP3    H112390   5.321   6.744   2.313
 4142TIP3    H212391   5.300   6.619   2.230
 4143TIP3   OH212392   4.409   2.397   2.111
 4143TIP3    H112393   4.472   2.460   2.075
 4143TIP3    H212394   4.361   2.447   2.177
 4144TIP3   OH212395   0.116   2.542   0.352
 4144TIP3    H112396   0.169   2.514   0.278
 4144TIP3    H212397   0.169   2.522   0.429
 4145TIP3   OH212398   6.949   4.394   0.337
 4145TIP3    H112399   6.912   4.307   0.354
 4145TIP3    H212400   7.043   4.381   0.336
 4146TIP3   OH212401   4.584   1.162   0.503
 4146TIP3    H112402   4.642   1.229   0.537
 4146TIP3    H212403   4.566   1.189   0.412
 4147TIP3   OH212404   6.505   4.655   2.171
 4147TIP3    H112405   6.482   4.724   2.232
 4147TIP3    H212406   6.594   4.629   2.197
 4148TIP3   OH212407   2.072   4.356   1.056
 4148TIP3    H112408   2.127   4.279   1.042
 4148TIP3    H212409   2.097   4.416   0.986
 4149TIP3   OH212410   6.942   2.604   2.007
 4149TIP3    H112411   7.028   2.625   2.045
 4149TIP3    H212412   6.881   2.610   2.080
 4150TIP3   OH212413   6.215   5.442   3.596
 4150TIP3    H112414   6.171   5.446   3.681
 4150TIP3    H212415   6.250   5.353   3.592
 4151TIP3   OH212416   6.182   5.545   2.242
 4151TIP3    H112417   6.202   5.513   2.154
 4151TIP3    H212418   6.156   5.467   2.290
 4152TIP3   OH212419   6.331   1.800   0.614
 4152TIP3    H112420   6.290   1.739   0.675
 4152TIP3    H212421   6.390   1.852   0.668
 4153TIP3   OH212422   2.829   3.371   2.994
 4153TIP3    H112423   2.860   3.280   2.998
 4153TIP3    H212424   2.768   3.379   3.066
 4154TIP3   OH212425   3.229   1.462   3.047
 4154TIP3    H112426   3.275   1.471   3.130
 4154TIP3    H212427   3.228   1.551   3.011
 4155TIP3   OH212428   3.620   0.951   3.493
 4155TIP3    H112429   3.658   0.928   3.577
 4155TIP3    H212430   3.618   0.868   3.444
 4156TIP3   OH212431   7.125   2.356   0.463
 4156TIP3    H112432   7.099   2.266   0.480
 4156TIP3    H212433   7.157   2.356   0.373
 4157TIP3   OH212434   1.240   3.457   2.372
 4157TIP3    H112435   1.320   3.508   2.364
 4157TIP3    H212436   1.231   3.441   2.466
 4158TIP3   OH212437   5.653   0.262   0.993
 4158TIP3    H112438   5.597   0.200   0.947
 4158TIP3    H212439   5.704   0.304   0.923
 4159TIP3   OH212440   3.547   1.447   2.711
 4159TIP3    H112441   3.512   1.535   2.729
 4159TIP3    H212442   3.473   1.399   2.674
 4160TIP3   OH212443   1.436   1.297   0.050
 4160TIP3    H112444   1.427   1.346   0.132
 4160TIP3    H212445   1.347   1.291   0.015
 4161TIP3   OH212446   5.446   6.369   1.720
 4161TIP3    H112447   5.423   6.307   1.790
 4161TIP3    H212448   5.365   6.378   1.669
 4162TIP3   OH212449   2.864   4.940   1.206
 4162TIP3    H112450   2.903   5.010   1.154
 4162TIP3    H212451   2.934   4.876   1.217
 4163TIP3   OH212452   1.147   6.188   0.377
 4163TIP3    H112453   1.056   6.214   0.366
 4163TIP3    H212454   1.193   6.270   0.396
 4164TIP3   OH212455   6.889   3.093   4.485
 4164TIP3    H112456   6.926   3.172   4.525
 4164TIP3    H212457   6.795   3.111   4.481
 4165TIP3   OH212458   6.719   1.594   4.891
 4165TIP3    H112459   6.684   1.578   4.804
 4165TIP3    H212460   6.742   1.687   4.891
 4166TIP3   OH212461   0.942   4.961   1.450
 4166TIP3    H112462   0.946   4.945   1.544
 4166TIP3    H212463   0.924   4.875   1.412
 4167TIP3   OH212464   4.436   0.234   4.319
 4167TIP3    H112465   4.481   0.298   4.372
 4167TIP3    H212466   4.482   0.152   4.335
 4168TIP3   OH212467   6.839   1.573   3.972
 4168TIP3    H112468   6.924   1.536   3.993
 4168TIP3    H212469   6.785   1.555   4.049
 4169TIP3   OH212470   1.664   1.966   2.845
 4169TIP3    H112471   1.600   1.896   2.857
 4169TIP3    H212472   1.621   2.045   2.880
 4170TIP3   OH212473   5.143   3.172   2.371
 4170TIP3    H112474   5.120   3.087   2.408
 4170TIP3    H212475   5.063   3.224   2.378
 4171TIP3   OH212476   3.420   5.644   2.771
 4171TIP3    H112477   3.340   5.599   2.746
 4171TIP3    H212478   3.395   5.699   2.845
 4172TIP3   OH212479   6.780   1.274   0.894
 4172TIP3    H112480   6.808   1.304   0.807
 4172TIP3    H212481   6.685   1.278   0.891
 4173TIP3   OH212482   3.333   2.164   0.861
 4173TIP3    H112483   3.427   2.156   0.875
 4173TIP3    H212484   3.294   2.137   0.944
 4174TIP3   OH212485   1.808   5.627   4.616
 4174TIP3    H112486   1.884   5.572   4.596
 4174TIP3    H212487   1.770   5.590   4.695
 4175TIP3   OH212488   5.002   1.697   0.815
 4175TIP3    H112489   4.918   1.651   0.815
 4175TIP3    H212490   4.979   1.788   0.796
 4176TIP3   OH212491   6.832   2.942   3.462
 4176TIP3    H112492   6.827   2.889   3.382
 4176TIP3    H212493   6.801   3.029   3.434
 4177TIP3   OH212494   5.607   4.548   4.590
 4177TIP3    H112495   5.598   4.643   4.586
 4177TIP3    H212496   5.676   4.533   4.655
 4178TIP3   OH212497   5.983   6.543   1.010
 4178TIP3    H112498   6.073   6.528   0.980
 4178TIP3    H212499   5.985   6.522   1.103
 4179TIP3   OH212500   6.453   1.568   4.307
 4179TIP3    H112501   6.403   1.644   4.337
 4179TIP3    H212502   6.423   1.496   4.364
 4180TIP3   OH212503   4.709   0.916   2.370
 4180TIP3    H112504   4.748   0.951   2.289
 4180TIP3    H212505   4.660   0.990   2.406
 4181TIP3   OH212506   2.225   5.236   4.092
 4181TIP3    H112507   2.317   5.257   4.077
 4181TIP3    H212508   2.224   5.141   4.100
 4182TIP3   OH212509   7.146   3.651   4.988
 4182TIP3    H112510   7.073   3.594   5.010
 4182TIP3    H212511   7.219   3.619   5.042
 4183TIP3   OH212512   1.046   6.370   5.773
 4183TIP3    H112513   1.011   6.291   5.732
 4183TIP3    H212514   1.061   6.345   5.864
 4184TIP3   OH212515   3.517   4.115   2.178
 4184TIP3    H112516   3.601   4.143   2.144
 4184TIP3    H212517   3.530   4.106   2.272
 4185TIP3   OH212518   5.137   5.490   2.430
 4185TIP3    H112519   5.190   5.446   2.496
 4185TIP3    H212520   5.120   5.577   2.467
 4186TIP3   OH212521   1.330   0.564   5.045
 4186TIP3    H112522   1.282   0.646   5.053
 4186TIP3    H212523   1.298   0.525   4.964
 4187TIP3   OH212524   3.761   2.646   0.727
 4187TIP3    H112525   3.809   2.605   0.799
 4187TIP3    H212526   3.676   2.603   0.727
 4188TIP3   OH212527  -0.020   6.339   3.926
 4188TIP3    H112528  -0.008   6.313   4.017
 4188TIP3    H212529   0.034   6.278   3.876
 4189TIP3   OH212530   5.591   5.135   0.653
 4189TIP3    H112531   5.680   5.171   0.653
 4189TIP3    H212532   5.537   5.204   0.614
 4190TIP3   OH212533   2.016   6.437   1.501
 4190TIP3    H112534   2.077   6.385   1.449
 4190TIP3    H212535   1.932   6.393   1.489
 4191TIP3   OH212536   4.093   5.232   0.194
 4191TIP3    H112537   4.145   5.167   0.147
 4191TIP3    H212538   4.100   5.206   0.286
 4192TIP3   OH212539   7.139   4.946   0.323
 4192TIP3    H112540   7.113   4.937   0.231
 4192TIP3    H212541   7.234   4.957   0.319
 4193TIP3   OH212542   2.113   2.291   4.173
 4193TIP3    H112543   2.034   2.258   4.214
 4193TIP3    H212544   2.083   2.360   4.114
 4194TIP3   OH212545   3.742   4.417   4.179
 4194TIP3    H112546   3.753   4.486   4.244
 4194TIP3    H212547   3.712   4.341   4.229
 4195TIP3   OH212548   1.790   3.140   3.144
 4195TIP3    H112549   1.847   3.084   3.196
 4195TIP3    H212550   1.849   3.183   3.082
 4196TIP3   OH212551   4.929   0.825   1.420
 4196TIP3    H112552   4.976   0.803   1.340
 4196TIP3    H212553   4.975   0.776   1.488
 4197TIP3   OH212554   0.346   3.841   2.819
 4197TIP3    H112555   0.368   3.748   2.810
 4197TIP3    H212556   0.284   3.858   2.748
 4198TIP3   OH212557   4.852   3.403   0.452
 4198TIP3    H112558   4.841   3.483   0.503
 4198TIP3    H212559   4.807   3.421   0.369
 4199TIP3   OH212560   5.456   1.847   2.475
 4199TIP3    H112561   5.443   1.806   2.561
 4199TIP3    H212562   5.502   1.929   2.495
 4200TIP3   OH212563   4.019   6.602   1.022
 4200TIP3    H112564   4.023   6.673   1.087
 4200TIP3    H212565   4.071   6.531   1.060
 4201TIP3   OH212566   3.517   5.337   4.028
 4201TIP3    H112567   3.544   5.395   4.099
 4201TIP3    H212568   3.586   5.348   3.961
 4202TIP3   OH212569   0.674   4.427   3.636
 4202TIP3    H112570   0.738   4.358   3.615
 4202TIP3    H212571   0.619   4.389   3.704
 4203TIP3   OH212572   4.436   4.176   3.874
 4203TIP3    H112573   4.475   4.118   3.939
 4203TIP3    H212574   4.341   4.165   3.885
 4204TIP3   OH212575   1.281   0.988   4.929
 4204TIP3    H112576   1.221   0.925   4.969
 4204TIP3    H212577   1.262   1.071   4.972
 4205TIP3   OH212578   4.593   2.168   2.087
 4205TIP3    H112579   4.523   2.232   2.099
 4205TIP3    H212580   4.601   2.160   1.992
 4206TIP3   OH212581   6.679   5.013   4.618
 4206TIP3    H112582   6.691   5.107   4.605
 4206TIP3    H212583   6.721   4.994   4.702
 4207TIP3   OH212584   5.190   5.219   4.402
 4207TIP3    H112585   5.204   5.288   4.338
 4207TIP3    H212586   5.198   5.138   4.351
 4208TIP3   OH212587   4.549   5.197   1.184
 4208TIP3    H112588   4.570   5.131   1.118
 4208TIP3    H212589   4.598   5.171   1.261
 4209TIP3   OH212590   2.830   0.875   0.995
 4209TIP3    H112591   2.772   0.884   0.920
 4209TIP3    H212592   2.810   0.789   1.032
 4210TIP3   OH212593   0.796   0.921   4.620
 4210TIP3    H112594   0.705   0.916   4.648
 4210TIP3    H212595   0.843   0.955   4.696
 4211TIP3   OH212596   2.177   0.261   3.050
 4211TIP3    H112597   2.178   0.333   3.113
 4211TIP3    H212598   2.264   0.222   3.057
 4212TIP3   OH212599   0.972   3.773   3.326
 4212TIP3    H112600   1.021   3.722   3.261
 4212TIP3    H212601   0.897   3.807   3.277
 4213TIP3   OH212602   3.337   3.550   3.299
 4213TIP3    H112603   3.252   3.541   3.257
 4213TIP3    H212604   3.366   3.460   3.314
 4214TIP3   OH212605   6.198   1.974   3.973
 4214TIP3    H112606   6.275   2.017   3.935
 4214TIP3    H212607   6.127   2.037   3.961
 4215TIP3   OH212608   0.789   3.983   0.600
 4215TIP3    H112609   0.863   3.964   0.657
 4215TIP3    H212610   0.767   3.899   0.560
 4216TIP3   OH212611   3.038   0.688   1.484
 4216TIP3    H112612   3.012   0.612   1.433
 4216TIP3    H212613   3.124   0.713   1.449
 4217TIP3   OH212614   6.220   6.025   0.079
 4217TIP3    H112615   6.213   6.080   0.001
 4217TIP3    H212616   6.201   6.084   0.151
 4218TIP3   OH212617   6.742   3.350   5.536
 4218TIP3    H112618   6.743   3.258   5.560
 4218TIP3    H212619   6.722   3.396   5.618
 4219TIP3   OH212620   3.767   4.841   3.850
 4219TIP3    H112621   3.855   4.840   3.814
 4219TIP3    H212622   3.765   4.765   3.909
 4220TIP3   OH212623   3.825   4.340   0.725
 4220TIP3    H112624   3.854   4.358   0.815
 4220TIP3    H212625   3.902   4.304   0.682
 4221TIP3   OH212626   3.626   5.864   3.881
 4221TIP3    H112627   3.624   5.842   3.974
 4221TIP3    H212628   3.534   5.877   3.858
 4222TIP3   OH212629   6.043   4.218   3.335
 4222TIP3    H112630   5.994   4.184   3.410
 4222TIP3    H212631   6.131   4.234   3.369
 4223TIP3   OH212632  -0.041   6.617   3.988
 4223TIP3    H112633  -0.046   6.529   3.951
 4223TIP3    H212634  -0.003   6.670   3.918
 4224TIP3   OH212635   0.708   0.209   4.010
 4224TIP3    H112636   0.640   0.268   4.043
 4224TIP3    H212637   0.726   0.150   4.084
 4225TIP3   OH212638   1.470   1.930   5.165
 4225TIP3    H112639   1.465   1.868   5.238
 4225TIP3    H212640   1.464   2.016   5.205
 4226TIP3   OH212641   2.453   3.645   5.759
 4226TIP3    H112642   2.445   3.714   5.693
 4226TIP3    H212643   2.546   3.642   5.781
 4227TIP3   OH212644   3.007   1.886   0.666
 4227TIP3    H112645   3.037   1.795   0.677
 4227TIP3    H212646   2.912   1.878   0.655
 4228TIP3   OH212647   5.995   5.044   3.873
 4228TIP3    H112648   6.045   4.975   3.916
 4228TIP3    H212649   5.983   5.012   3.783
 4229TIP3   OH212650   4.463   0.924   4.632
 4229TIP3    H112651   4.504   0.838   4.635
 4229TIP3    H212652   4.474   0.959   4.721
 4230TIP3   OH212653   7.013   6.821   4.456
 4230TIP3    H112654   7.061   6.838   4.375
 4230TIP3    H212655   7.069   6.761   4.505
 4231TIP3   OH212656   3.051   2.322   1.490
 4231TIP3    H112657   3.127   2.268   1.466
 4231TIP3    H212658   2.988   2.259   1.525
 4232TIP3   OH212659   4.673   3.418   5.724
 4232TIP3    H112660   4.632   3.361   5.658
 4232TIP3    H212661   4.679   3.503   5.681
 4233TIP3   OH212662   0.275   4.607   4.252
 4233TIP3    H112663   0.195   4.561   4.226
 4233TIP3    H212664   0.342   4.539   4.255
 4234TIP3   OH212665   0.654   0.649   1.010
 4234TIP3    H112666   0.703   0.687   1.084
 4234TIP3    H212667   0.710   0.663   0.934
 4235TIP3   OH212668   0.750   2.256   5.483
 4235TIP3    H112669   0.752   2.313   5.407
 4235TIP3    H212670   0.728   2.313   5.556
 4236TIP3   OH212671   5.764   1.247   5.563
 4236TIP3    H112672   5.712   1.320   5.599
 4236TIP3    H212673   5.851   1.284   5.552
 4237TIP3   OH212674   1.539   0.704   1.839
 4237TIP3    H112675   1.474   0.752   1.890
 4237TIP3    H212676   1.492   0.626   1.808
 4238TIP3   OH212677   4.141   6.162   5.524
 4238TIP3    H112678   4.083   6.101   5.570
 4238TIP3    H212679   4.137   6.243   5.574
 4239TIP3   OH212680   4.485   5.407   0.795
 4239TIP3    H112681   4.423   5.343   0.761
 4239TIP3    H212682   4.461   5.489   0.751
 4240TIP3   OH212683   0.167   4.045   3.367
 4240TIP3    H112684   0.119   3.965   3.346
 4240TIP3    H212685   0.123   4.113   3.316
 4241TIP3   OH212686   6.829   6.278   5.255
 4241TIP3    H112687   6.741   6.303   5.282
 4241TIP3    H212688   6.874   6.361   5.240
 4242TIP3   OH212689   5.027   4.860   2.214
 4242TIP3    H112690   4.949   4.881   2.163
 4242TIP3    H212691   5.098   4.861   2.150
 4243TIP3   OH212692   1.246   6.572   5.797
 4243TIP3    H112693   1.193   6.503   5.756
 4243TIP3    H212694   1.291   6.614   5.724
 4244TIP3   OH212695   0.776   2.819   1.520
 4244TIP3    H112696   0.782   2.853   1.431
 4244TIP3    H212697   0.864   2.788   1.540
 4245TIP3   OH212698   3.104   0.023   5.456
 4245TIP3    H112699   3.127  -0.026   5.535
 4245TIP3    H212700   3.024   0.070   5.480
 4246TIP3   OH212701   5.772   0.874   2.929
 4246TIP3    H112702   5.735   0.900   3.013
 4246TIP3    H212703   5.857   0.835   2.951
 4247TIP3   OH212704   1.359   0.232   2.536
 4247TIP3    H112705   1.321   0.316   2.561
 4247TIP3    H212706   1.382   0.191   2.620
 4248TIP3   OH212707   6.128   2.695   2.784
 4248TIP3    H112708   6.190   2.741   2.726
 4248TIP3    H212709   6.101   2.762   2.847
 4249TIP3   OH212710   3.278   0.318   5.792
 4249TIP3    H112711   3.330   0.287   5.719
 4249TIP3    H212712   3.256   0.239   5.841
 4250TIP3   OH212713   4.976   3.341   2.502
 4250TIP3    H112714   4.928   3.424   2.505
 4250TIP3    H212715   4.952   3.296   2.583
 4251TIP3   OH212716   2.813   2.926   3.962
 4251TIP3    H112717   2.735   2.875   3.983
 4251TIP3    H212718   2.806   2.944   3.869
 4252TIP3   OH212719   5.956   6.415   1.584
 4252TIP3    H112720   5.863   6.397   1.598
 4252TIP3    H212721   6.000   6.331   1.601
 4253TIP3   OH212722   0.245   2.559   4.048
 4253TIP3    H112723   0.227   2.578   4.140
 4253TIP3    H212724   0.182   2.612   4.000
 4254TIP3   OH212725   6.789   4.469   5.416
 4254TIP3    H112726   6.711   4.458   5.361
 4254TIP3    H212727   6.762   4.530   5.484
 4255TIP3   OH212728   6.369   0.318   5.101
 4255TIP3    H112729   6.366   0.409   5.129
 4255TIP3    H212730   6.379   0.268   5.182
 4256TIP3   OH212731   2.472   5.238   0.170
 4256TIP3    H112732   2.391   5.191   0.190
 4256TIP3    H212733   2.486   5.295   0.245
 4257TIP3   OH212734   5.770   3.130   5.054
 4257TIP3    H112735   5.821   3.195   5.102
 4257TIP3    H212736   5.718   3.086   5.121
 4258TIP3   OH212737   2.179   6.028   4.023
 4258TIP3    H112738   2.141   5.950   3.982
 4258TIP3    H212739   2.273   6.011   4.022
 4259TIP3   OH212740   5.526   5.475   4.932
 4259TIP3    H112741   5.492   5.483   4.843
 4259TIP3    H212742   5.457   5.510   4.988
 4260TIP3   OH212743   0.696   3.287   1.216
 4260TIP3    H112744   0.645   3.366   1.198
 4260TIP3    H212745   0.720   3.295   1.309
 4261TIP3   OH212746   4.421   2.377   4.973
 4261TIP3    H112747   4.398   2.360   5.064
 4261TIP3    H212748   4.381   2.463   4.954
 4262TIP3   OH212749   4.686   0.636   0.376
 4262TIP3    H112750   4.652   0.636   0.286
 4262TIP3    H212751   4.608   0.622   0.431
 4263TIP3   OH212752   6.124   6.103   2.805
 4263TIP3    H112753   6.075   6.023   2.790
 4263TIP3    H212754   6.158   6.093   2.895
 4264TIP3   OH212755   5.198   2.938   5.472
 4264TIP3    H112756   5.121   2.946   5.527
 4264TIP3    H212757   5.169   2.967   5.385
 4265TIP3   OH212758   5.580   5.392   3.512
 4265TIP3    H112759   5.545   5.316   3.557
 4265TIP3    H212760   5.512   5.417   3.449
 4266TIP3   OH212761   5.252   1.625   4.320
 4266TIP3    H112762   5.346   1.639   4.334
 4266TIP3    H212763   5.242   1.616   4.226
 4267TIP3   OH212764   5.618   5.072   3.598
 4267TIP3    H112765   5.645   4.999   3.542
 4267TIP3    H212766   5.694   5.130   3.600
 4268TIP3   OH212767   3.282   0.854   1.624
 4268TIP3    H112768   3.296   0.810   1.540
 4268TIP3    H212769   3.352   0.919   1.628
 4269TIP3   OH212770   6.691   1.337   2.877
 4269TIP3    H112771   6.611   1.352   2.827
 4269TIP3    H212772   6.661   1.300   2.960
 4270TIP3   OH212773   4.056   2.990   0.482
 4270TIP3    H112774   3.982   2.964   0.537
 4270TIP3    H212775   4.062   3.085   0.494
 4271TIP3   OH212776   1.144   5.566   5.419
 4271TIP3    H112777   1.105   5.489   5.377
 4271TIP3    H212778   1.081   5.637   5.402
 4272TIP3   OH212779   3.470   0.567   0.340
 4272TIP3    H112780   3.562   0.588   0.329
 4272TIP3    H212781   3.449   0.511   0.264
 4273TIP3   OH212782   0.899   2.352   4.056
 4273TIP3    H112783   0.808   2.381   4.063
 4273TIP3    H212784   0.896   2.261   4.085
 4274TIP3   OH212785   0.823   1.284   4.066
 4274TIP3    H112786   0.770   1.362   4.083
 4274TIP3    H212787   0.778   1.213   4.112
 4275TIP3   OH212788   4.131   2.716   1.062
 4275TIP3    H112789   4.194   2.673   1.121
 4275TIP3    H212790   4.077   2.770   1.120
 4276TIP3   OH212791   5.694   4.457   4.993
 4276TIP3    H112792   5.741   4.540   5.000
 4276TIP3    H212793   5.608   4.475   5.030
 4277TIP3   OH212794   6.814   5.018   1.746
 4277TIP3    H112795   6.721   5.026   1.769
 4277TIP3    H212796   6.816   5.026   1.651
 4278TIP3   OH212797   2.448   4.731   0.860
 4278TIP3    H112798   2.400   4.650   0.877
 4278TIP3    H212799   2.538   4.713   0.888
 4279TIP3   OH212800   2.456   5.279   3.935
 4279TIP3    H112801   2.509   5.252   3.861
 4279TIP3    H212802   2.513   5.265   4.011
 4280TIP3   OH212803   2.016   4.381   2.988
 4280TIP3    H112804   2.048   4.414   3.072
 4280TIP3    H212805   2.091   4.335   2.950
 4281TIP3   OH212806   2.258   1.936   4.998
 4281TIP3    H112807   2.341   1.985   5.002
 4281TIP3    H212808   2.222   1.943   5.087
 4282TIP3   OH212809   5.498   3.236   4.062
 4282TIP3    H112810   5.522   3.325   4.035
 4282TIP3    H212811   5.499   3.185   3.981
 4283TIP3   OH212812   0.102   0.357   4.289
 4283TIP3    H112813   0.101   0.396   4.202
 4283TIP3    H212814   0.057   0.420   4.345
 4284TIP3   OH212815   0.833   5.112   1.235
 4284TIP3    H112816   0.742   5.133   1.257
 4284TIP3    H212817   0.873   5.087   1.318
 4285TIP3   OH212818   0.489   6.092   4.216
 4285TIP3    H112819   0.469   6.183   4.237
 4285TIP3    H212820   0.540   6.061   4.291
 4286TIP3   OH212821   1.174   0.018   1.260
 4286TIP3    H112822   1.188  -0.077   1.253
 4286TIP3    H212823   1.111   0.028   1.332
 4287TIP3   OH212824   3.566   4.088   1.571
 4287TIP3    H112825   3.658   4.071   1.549
 4287TIP3    H212826   3.537   4.151   1.504
 4288TIP3   OH212827   6.725   1.272   4.751
 4288TIP3    H112828   6.723   1.364   4.724
 4288TIP3    H212829   6.642   1.259   4.796
 4289TIP3   OH212830   6.496   5.800   5.516
 4289TIP3    H112831   6.591   5.807   5.508
 4289TIP3    H212832   6.480   5.807   5.610
 4290TIP3   OH212833   0.243   6.105   1.415
 4290TIP3    H112834   0.301   6.069   1.348
 4290TIP3    H212835   0.257   6.051   1.492
 4291TIP3   OH212836   4.289   0.344   2.145
 4291TIP3    H112837   4.221   0.309   2.203
 4291TIP3    H212838   4.242   0.399   2.083
 4292TIP3   OH212839   3.365   3.366   5.475
 4292TIP3    H112840   3.455   3.349   5.450
 4292TIP3    H212841   3.337   3.437   5.418
 4293TIP3   OH212842   4.328   6.695   5.295
 4293TIP3    H112843   4.306   6.787   5.278
 4293TIP3    H212844   4.309   6.651   5.212
 4294TIP3   OH212845   5.787   0.684   0.317
 4294TIP3    H112846   5.725   0.709   0.249
 4294TIP3    H212847   5.807   0.592   0.299
 4295TIP3   OH212848   2.579   0.321   5.374
 4295TIP3    H112849   2.550   0.289   5.459
 4295TIP3    H212850   2.504   0.307   5.316
 4296TIP3   OH212851   2.552   6.368   4.245
 4296TIP3    H112852   2.566   6.342   4.336
 4296TIP3    H212853   2.608   6.445   4.233
 4297TIP3   OH212854   6.858   5.176   0.613
 4297TIP3    H112855   6.885   5.268   0.614
 4297TIP3    H212856   6.940   5.127   0.606
 4298TIP3   OH212857   2.366   1.486   4.540
 4298TIP3    H112858   2.301   1.431   4.583
 4298TIP3    H212859   2.372   1.451   4.451
 4299TIP3   OH212860   6.467   4.878   2.898
 4299TIP3    H112861   6.383   4.899   2.859
 4299TIP3    H212862   6.491   4.956   2.949
 4300TIP3   OH212863   4.300   3.216   0.666
 4300TIP3    H112864   4.284   3.252   0.754
 4300TIP3    H212865   4.345   3.133   0.682
 4301TIP3   OH212866   5.881   2.034   2.138
 4301TIP3    H112867   5.789   2.057   2.124
 4301TIP3    H212868   5.878   1.960   2.199
 4302TIP3   OH212869   2.532   0.699   5.360
 4302TIP3    H112870   2.586   0.758   5.412
 4302TIP3    H212871   2.508   0.750   5.283
 4303TIP3   OH212872   1.778   1.040   0.542
 4303TIP3    H112873   1.829   1.047   0.461
 4303TIP3    H212874   1.693   1.079   0.520
 4304TIP3   OH212875   3.887   1.561   3.103
 4304TIP3    H112876   3.800   1.526   3.122
 4304TIP3    H212877   3.936   1.486   3.070
 4305TIP3   OH212878   3.761   1.718   0.308
 4305TIP3    H112879   3.842   1.740   0.355
 4305TIP3    H212880   3.715   1.658   0.366
 4306TIP3   OH212881   5.440   1.978   0.802
 4306TIP3    H112882   5.377   1.910   0.825
 4306TIP3    H212883   5.386   2.053   0.778
 4307TIP3   OH212884   6.885   4.967   4.972
 4307TIP3    H112885   6.806   4.912   4.975
 4307TIP3    H212886   6.954   4.906   4.946
 4308TIP3   OH212887   4.693   6.374   1.404
 4308TIP3    H112888   4.741   6.397   1.325
 4308TIP3    H212889   4.603   6.402   1.387
 4309TIP3   OH212890   4.063   3.159   4.221
 4309TIP3    H112891   4.126   3.230   4.234
 4309TIP3    H212892   3.986   3.186   4.270
 4310TIP3   OH212893   0.831   3.579   3.513
 4310TIP3    H112894   0.824   3.492   3.553
 4310TIP3    H212895   0.911   3.574   3.461
 4311TIP3   OH212896   2.454   1.316   2.735
 4311TIP3    H112897   2.456   1.303   2.830
 4311TIP3    H212898   2.367   1.351   2.718
 4312TIP3   OH212899   0.676   6.276   5.251
 4312TIP3    H112900   0.696   6.340   5.182
 4312TIP3    H212901   0.586   6.249   5.232
 4313TIP3   OH212902   0.698   2.110   4.374
 4313TIP3    H112903   0.750   2.053   4.317
 4313TIP3    H212904   0.661   2.175   4.315
 4314TIP3   OH212905   0.615   0.993   0.409
 4314TIP3    H112906   0.695   1.042   0.428
 4314TIP3    H212907   0.645   0.918   0.357
 4315TIP3   OH212908   1.417   1.227   1.577
 4315TIP3    H112909   1.464   1.288   1.520
 4315TIP3    H212910   1.363   1.283   1.633
 4316TIP3   OH212911   0.971   6.220   4.250
 4316TIP3    H112912   0.889   6.203   4.295
 4316TIP3    H212913   0.948   6.283   4.181
 4317TIP3   OH212914   6.062   2.803   1.143
 4317TIP3    H112915   6.097   2.728   1.095
 4317TIP3    H212916   6.089   2.789   1.233
 4318TIP3   OH212917   1.491   0.016   4.884
 4318TIP3    H112918   1.572  -0.028   4.910
 4318TIP3    H212919   1.458   0.055   4.964
 4319TIP3   OH212920   0.744   3.699   0.191
 4319TIP3    H112921   0.812   3.642   0.226
 4319TIP3    H212922   0.673   3.639   0.167
 4320TIP3   OH212923   3.689   2.581   5.612
 4320TIP3    H112924   3.634   2.545   5.681
 4320TIP3    H212925   3.628   2.603   5.541
 4321TIP3   OH212926   3.451   1.703   2.708
 4321TIP3    H112927   3.444   1.792   2.675
 4321TIP3    H212928   3.364   1.665   2.692
 4322TIP3   OH212929   4.182   4.563   2.305
 4322TIP3    H112930   4.250   4.569   2.372
 4322TIP3    H212931   4.102   4.544   2.355
 4323TIP3   OH212932   1.680   0.868   3.426
 4323TIP3    H112933   1.707   0.781   3.454
 4323TIP3    H212934   1.705   0.925   3.500
 4324TIP3   OH212935   0.561   0.073   0.552
 4324TIP3    H112936   0.560  -0.022   0.539
 4324TIP3    H212937   0.513   0.087   0.634
 4325TIP3   OH212938   5.108   6.456   2.425
 4325TIP3    H112939   5.201   6.479   2.431
 4325TIP3    H212940   5.090   6.451   2.331
 4326TIP3   OH212941   0.802   0.859   1.957
 4326TIP3    H112942   0.872   0.912   1.920
 4326TIP3    H212943   0.817   0.862   2.051
 4327TIP3   OH212944   7.161   5.715   3.698
 4327TIP3    H112945   7.088   5.684   3.751
 4327TIP3    H212946   7.121   5.773   3.633
 4328TIP3   OH212947   0.648   4.800   3.584
 4328TIP3    H112948   0.650   4.726   3.524
 4328TIP3    H212949   0.692   4.769   3.663
 4329TIP3   OH212950   0.739   2.056   4.650
 4329TIP3    H112951   0.708   2.059   4.559
 4329TIP3    H212952   0.815   2.114   4.651
 4330TIP3   OH212953   1.716   5.350   1.779
 4330TIP3    H112954   1.627   5.314   1.774
 4330TIP3    H212955   1.757   5.303   1.852
 4331TIP3   OH212956   2.838   0.823   4.609
 4331TIP3    H112957   2.754   0.778   4.597
 4331TIP3    H212958   2.900   0.772   4.558
 4332TIP3   OH212959   5.089   3.494   2.870
 4332TIP3    H112960   5.139   3.571   2.842
 4332TIP3    H212961   5.016   3.529   2.920
 4333TIP3   OH212962   2.263   2.230   4.795
 4333TIP3    H112963   2.287   2.190   4.712
 4333TIP3    H212964   2.334   2.206   4.855
 4334TIP3   OH212965   2.593   5.770   4.033
 4334TIP3    H112966   2.522   5.706   4.021
 4334TIP3    H212967   2.631   5.781   3.946
 4335TIP3   OH212968   0.454   3.314   4.041
 4335TIP3    H112969   0.360   3.311   4.060
 4335TIP3    H212970   0.486   3.390   4.091
 4336TIP3   OH212971   4.956   6.457   0.135
 4336TIP3    H112972   4.947   6.552   0.123
 4336TIP3    H212973   4.868   6.422   0.116
 4337TIP3   OH212974   6.572   4.758   0.145
 4337TIP3    H112975   6.492   4.716   0.112
 4337TIP3    H212976   6.631   4.759   0.070
 4338TIP3   OH212977   1.712   4.989   0.142
 4338TIP3    H112978   1.658   4.918   0.107
 4338TIP3    H212979   1.667   5.014   0.223
 4339TIP3   OH212980   4.940   4.575   0.147
 4339TIP3    H112981   4.925   4.665   0.176
 4339TIP3    H212982   4.894   4.521   0.212
 4340TIP3   OH212983   1.956   5.571   5.006
 4340TIP3    H112984   2.041   5.549   5.045
 4340TIP3    H212985   1.973   5.650   4.954
 4341TIP3   OH212986   4.582   2.288   0.888
 4341TIP3    H112987   4.648   2.223   0.911
 4341TIP3    H212988   4.571   2.278   0.793
 4342TIP3   OH212989   7.012   6.305   4.257
 4342TIP3    H112990   6.975   6.393   4.254
 4342TIP3    H212991   6.986   6.270   4.342
 4343TIP3   OH212992   1.518   0.606   0.813
 4343TIP3    H112993   1.603   0.582   0.851
 4343TIP3    H212994   1.540   0.644   0.728
 4344TIP3   OH212995   6.089   0.328   5.101
 4344TIP3    H112996   6.066   0.402   5.158
 4344TIP3    H212997   6.183   0.317   5.113
 4345TIP3   OH212998   6.850   4.917   2.105
 4345TIP3    H112999   6.817   4.909   2.195
 4345TIP3    H213000   6.821   5.003   2.076
 4346TIP3   OH213001   2.526   1.528   5.124
 4346TIP3    H113002   2.560   1.449   5.166
 4346TIP3    H213003   2.433   1.529   5.145
 4347TIP3   OH213004   6.993   2.054   4.045
 4347TIP3    H113005   6.900   2.073   4.042
 4347TIP3    H213006   7.001   1.965   4.012
 4348TIP3   OH213007   5.430   4.230   3.013
 4348TIP3    H113008   5.449   4.194   3.100
 4348TIP3    H213009   5.397   4.318   3.031
 4349TIP3   OH213010   5.860   2.087   3.235
 4349TIP3    H113011   5.778   2.040   3.248
 4349TIP3    H213012   5.834   2.173   3.202
 4350TIP3   OH213013   0.122   6.113   2.618
 4350TIP3    H113014   0.209   6.144   2.644
 4350TIP3    H213015   0.062   6.160   2.675
 4351TIP3   OH213016   3.614   3.328   3.545
 4351TIP3    H113017   3.620   3.307   3.638
 4351TIP3    H213018   3.697   3.296   3.508
 4352TIP3   OH213019   1.374   0.100   0.790
 4352TIP3    H113020   1.349   0.089   0.881
 4352TIP3    H213021   1.435   0.174   0.791
 4353TIP3   OH213022   3.236   2.482   4.898
 4353TIP3    H113023   3.171   2.488   4.969
 4353TIP3    H213024   3.200   2.537   4.828
 4354TIP3   OH213025   4.391   1.996   2.360
 4354TIP3    H113026   4.351   2.062   2.416
 4354TIP3    H213027   4.482   1.993   2.388
 4355TIP3   OH213028   0.069   3.011   2.611
 4355TIP3    H113029   0.076   3.103   2.636
 4355TIP3    H213030   0.080   3.011   2.516
 4356TIP3   OH213031   4.827   2.781   2.646
 4356TIP3    H113032   4.880   2.860   2.655
 4356TIP3    H213033   4.740   2.806   2.678
 4357TIP3   OH213034   5.257   1.033   4.637
 4357TIP3    H113035   5.343   1.065   4.665
 4357TIP3    H213036   5.223   1.103   4.581
 4358TIP3   OH213037   3.309   4.174   1.708
 4358TIP3    H113038   3.335   4.090   1.672
 4358TIP3    H213039   3.280   4.154   1.798
 4359TIP3   OH213040   2.013   4.837   4.965
 4359TIP3    H113041   2.076   4.826   4.894
 4359TIP3    H213042   1.996   4.931   4.968
 4360TIP3   OH213043   2.641   4.138   0.771
 4360TIP3    H113044   2.641   4.043   0.765
 4360TIP3    H213045   2.551   4.164   0.754
 4361TIP3   OH213046   0.250   5.001   5.753
 4361TIP3    H113047   0.156   5.018   5.749
 4361TIP3    H213048   0.263   4.926   5.695
 4362TIP3   OH213049   4.835   1.351   0.589
 4362TIP3    H113050   4.786   1.410   0.647
 4362TIP3    H213051   4.912   1.401   0.565
 4363TIP3   OH213052   0.322   2.436   1.353
 4363TIP3    H113053   0.379   2.509   1.377
 4363TIP3    H213054   0.288   2.460   1.267
 4364TIP3   OH213055   5.496   5.573   5.612
 4364TIP3    H113056   5.495   5.608   5.523
 4364TIP3    H213057   5.423   5.616   5.656
 4365TIP3   OH213058   4.831   4.249   4.947
 4365TIP3    H113059   4.817   4.181   4.881
 4365TIP3    H213060   4.889   4.312   4.905
 4366TIP3   OH213061   0.422   1.497   5.044
 4366TIP3    H113062   0.398   1.543   4.964
 4366TIP3    H213063   0.338   1.463   5.077
 4367TIP3   OH213064   2.312   4.415   1.520
 4367TIP3    H113065   2.283   4.342   1.576
 4367TIP3    H213066   2.232   4.457   1.491
 4368TIP3   OH213067   3.857   1.200   0.490
 4368TIP3    H113068   3.929   1.174   0.548
 4368TIP3    H213069   3.900   1.229   0.410
 4369TIP3   OH213070   2.486   4.358   2.190
 4369TIP3    H113071   2.514   4.340   2.280
 4369TIP3    H213072   2.567   4.370   2.141
 4370TIP3   OH213073   5.404   6.183   5.250
 4370TIP3    H113074   5.309   6.176   5.261
 4370TIP3    H213075   5.432   6.247   5.315
 4371TIP3   OH213076   4.734   3.222   4.517
 4371TIP3    H113077   4.812   3.256   4.562
 4371TIP3    H213078   4.712   3.289   4.453
 4372TIP3   OH213079   5.329   5.380   2.285
 4372TIP3    H113080   5.264   5.439   2.322
 4372TIP3    H213081   5.286   5.340   2.210
 4373TIP3   OH213082   4.394   5.069   0.401
 4373TIP3    H113083   4.382   5.164   0.405
 4373TIP3    H213084   4.315   5.036   0.358
 4374TIP3   OH213085   4.442   1.268   3.880
 4374TIP3    H113086   4.429   1.351   3.833
 4374TIP3    H213087   4.468   1.206   3.812
 4375TIP3   OH213088   1.123   4.507   3.052
 4375TIP3    H113089   1.206   4.524   3.009
 4375TIP3    H213090   1.075   4.452   2.990
 4376TIP3   OH213091   5.435   1.565   3.324
 4376TIP3    H113092   5.508   1.627   3.321
 4376TIP3    H213093   5.468   1.487   3.281
 4377TIP3   OH213094   3.007   3.747   4.611
 4377TIP3    H113095   2.971   3.684   4.548
 4377TIP3    H213096   3.011   3.829   4.563
 4378TIP3   OH213097   4.278   3.427   2.878
 4378TIP3    H113098   4.297   3.496   2.815
 4378TIP3    H213099   4.333   3.447   2.953
 4379TIP3   OH213100   3.803   1.914   4.343
 4379TIP3    H113101   3.723   1.869   4.317
 4379TIP3    H213102   3.780   2.007   4.339
 4380TIP3   OH213103   5.769   4.891   4.053
 4380TIP3    H113104   5.798   4.961   3.996
 4380TIP3    H213105   5.688   4.860   4.014
 4381TIP3   OH213106   4.287   2.216   2.866
 4381TIP3    H113107   4.286   2.295   2.811
 4381TIP3    H213108   4.323   2.148   2.809
 4382TIP3   OH213109   4.639   3.850   5.482
 4382TIP3    H113110   4.578   3.797   5.534
 4382TIP3    H213111   4.668   3.918   5.542
 4383TIP3   OH213112   3.083   5.518   0.730
 4383TIP3    H113113   3.021   5.547   0.663
 4383TIP3    H213114   3.057   5.566   0.809
 4384TIP3   OH213115   2.841   0.456   0.120
 4384TIP3    H113116   2.755   0.426   0.149
 4384TIP3    H213117   2.868   0.519   0.186
 4385TIP3   OH213118   2.419   5.742   4.281
 4385TIP3    H113119   2.392   5.830   4.306
 4385TIP3    H213120   2.510   5.751   4.252
 4386TIP3   OH213121   5.647   1.953   4.517
 4386TIP3    H113122   5.559   1.921   4.499
 4386TIP3    H213123   5.643   2.047   4.498
 4387TIP3   OH213124   6.900   5.359   1.449
 4387TIP3    H113125   6.822   5.406   1.418
 4387TIP3    H213126   6.865   5.290   1.506
 4388TIP3   OH213127   7.019   5.902   3.519
 4388TIP3    H113128   6.996   5.837   3.453
 4388TIP3    H213129   7.086   5.957   3.478
 4389TIP3   OH213130   1.766   5.460   4.821
 4389TIP3    H113131   1.705   5.392   4.848
 4389TIP3    H213132   1.832   5.463   4.890
 4390TIP3   OH213133   3.873   2.978   1.588
 4390TIP3    H113134   3.961   2.960   1.555
 4390TIP3    H213135   3.814   2.930   1.530
 4391TIP3   OH213136   4.751   5.389   5.244
 4391TIP3    H113137   4.680   5.358   5.301
 4391TIP3    H213138   4.812   5.315   5.239
 4392TIP3   OH213139   4.577   1.745   4.688
 4392TIP3    H113140   4.542   1.676   4.631
 4392TIP3    H213141   4.511   1.755   4.756
 4393TIP3   OH213142   3.386   2.684   2.024
 4393TIP3    H113143   3.417   2.769   2.058
 4393TIP3    H213144   3.321   2.655   2.088
 4394TIP3   OH213145   6.606   4.855   3.916
 4394TIP3    H113146   6.599   4.870   4.010
 4394TIP3    H213147   6.684   4.800   3.906
 4395TIP3   OH213148   1.902   4.599   4.459
 4395TIP3    H113149   1.995   4.578   4.459
 4395TIP3    H213150   1.897   4.688   4.426
 4396TIP3   OH213151   2.597   4.891   1.642
 4396TIP3    H113152   2.572   4.804   1.674
 4396TIP3    H213153   2.664   4.873   1.576
 4397TIP3   OH213154   3.523   6.560   5.555
 4397TIP3    H113155   3.552   6.626   5.618
 4397TIP3    H213156   3.490   6.488   5.609
 4398TIP3   OH213157   5.821   1.734   0.231
 4398TIP3    H113158   5.916   1.731   0.223
 4398TIP3    H213159   5.792   1.789   0.158
 4399TIP3   OH213160   0.547   3.429   4.679
 4399TIP3    H113161   0.607   3.355   4.678
 4399TIP3    H213162   0.498   3.419   4.761
 4400TIP3   OH213163   2.952   1.482   4.972
 4400TIP3    H113164   2.869   1.527   4.955
 4400TIP3    H213165   2.937   1.433   5.053
 4401TIP3   OH213166   6.081   3.461   1.998
 4401TIP3    H113167   5.986   3.469   2.001
 4401TIP3    H213168   6.111   3.507   2.077
 4402TIP3   OH213169   2.065   6.721   2.501
 4402TIP3    H113170   2.026   6.644   2.542
 4402TIP3    H213171   2.079   6.696   2.410
 4403TIP3   OH213172   1.731   4.992   5.431
 4403TIP3    H113173   1.782   4.913   5.451
 4403TIP3    H213174   1.740   5.002   5.336
 4404TIP3   OH213175   5.393   0.858   4.849
 4404TIP3    H113176   5.304   0.830   4.869
 4404TIP3    H213177   5.399   0.855   4.754
 4405TIP3   OH213178   1.026   2.082   2.348
 4405TIP3    H113179   1.002   2.008   2.404
 4405TIP3    H213180   1.121   2.089   2.358
 4406TIP3   OH213181   1.432   1.593   1.472
 4406TIP3    H113182   1.419   1.659   1.403
 4406TIP3    H213183   1.497   1.533   1.436
 4407TIP3   OH213184   5.853   2.727   2.382
 4407TIP3    H113185   5.821   2.766   2.463
 4407TIP3    H213186   5.947   2.744   2.381
 4408TIP3   OH213187   0.474   0.037   5.170
 4408TIP3    H113188   0.522   0.045   5.253
 4408TIP3    H213189   0.527   0.084   5.106
 4409TIP3   OH213190   3.671   3.264   0.487
 4409TIP3    H113191   3.633   3.339   0.442
 4409TIP3    H213192   3.616   3.190   0.461
 4410TIP3   OH213193   5.655   0.474   4.139
 4410TIP3    H113194   5.723   0.538   4.161
 4410TIP3    H213195   5.574   0.525   4.137
 4411TIP3   OH213196   0.830   5.312   2.185
 4411TIP3    H113197   0.863   5.384   2.239
 4411TIP3    H213198   0.869   5.326   2.099
 4412TIP3   OH213199   4.819   1.180   0.330
 4412TIP3    H113200   4.822   1.085   0.334
 4412TIP3    H213201   4.907   1.208   0.355
 4413TIP3   OH213202   6.888   3.541   2.729
 4413TIP3    H113203   6.882   3.489   2.649
 4413TIP3    H213204   6.982   3.556   2.741
 4414TIP3   OH213205   6.271   3.046   0.467
 4414TIP3    H113206   6.254   3.072   0.557
 4414TIP3    H213207   6.296   3.127   0.423
 4415TIP3   OH213208   2.673   2.498   4.466
 4415TIP3    H113209   2.677   2.408   4.436
 4415TIP3    H213210   2.680   2.550   4.386
 4416TIP3   OH213211   1.632   4.500   3.811
 4416TIP3    H113212   1.718   4.532   3.838
 4416TIP3    H213213   1.603   4.444   3.883
 4417TIP3   OH213214   0.027   2.821   3.437
 4417TIP3    H113215   0.101   2.760   3.431
 4417TIP3    H213216   0.067   2.907   3.438
 4418TIP3   OH213217   2.451   3.207   2.341
 4418TIP3    H113218   2.455   3.298   2.312
 4418TIP3    H213219   2.357   3.188   2.346
 4419TIP3   OH213220   1.235   4.138   3.616
 4419TIP3    H113221   1.182   4.058   3.615
 4419TIP3    H213222   1.260   4.151   3.524
 4420TIP3   OH213223   3.087   2.712   4.371
 4420TIP3    H113224   3.168   2.755   4.399
 4420TIP3    H213225   3.025   2.783   4.358
 4421TIP3   OH213226   1.654   4.354   4.619
 4421TIP3    H113227   1.656   4.448   4.637
 4421TIP3    H213228   1.562   4.335   4.603
 4422TIP3   OH213229   1.835   2.501   0.883
 4422TIP3    H113230   1.925   2.487   0.856
 4422TIP3    H213231   1.833   2.591   0.916
 4423TIP3   OH213232   1.879   4.012   1.472
 4423TIP3    H113233   1.851   4.047   1.557
 4423TIP3    H213234   1.805   4.028   1.414
 4424TIP3   OH213235   1.480   0.942   0.443
 4424TIP3    H113236   1.535   0.928   0.365
 4424TIP3    H213237   1.399   0.979   0.409
 4425TIP3   OH213238   2.795   2.749   2.983
 4425TIP3    H113239   2.727   2.709   3.038
 4425TIP3    H213240   2.833   2.676   2.935
 4426TIP3   OH213241   1.148   3.881   1.850
 4426TIP3    H113242   1.184   3.793   1.851
 4426TIP3    H213243   1.180   3.921   1.932
 4427TIP3   OH213244   1.234   1.424   0.845
 4427TIP3    H113245   1.277   1.402   0.762
 4427TIP3    H213246   1.191   1.507   0.828
 4428TIP3   OH213247   1.527   1.778   5.407
 4428TIP3    H113248   1.577   1.696   5.399
 4428TIP3    H213249   1.572   1.826   5.477
 4429TIP3   OH213250   0.840   2.122   0.549
 4429TIP3    H113251   0.834   2.202   0.600
 4429TIP3    H213252   0.844   2.052   0.614
 4430TIP3   OH213253   0.138   2.519   1.720
 4430TIP3    H113254   0.048   2.546   1.737
 4430TIP3    H213255   0.161   2.465   1.795
 4431TIP3   OH213256   3.622   2.310   0.094
 4431TIP3    H113257   3.531   2.312   0.121
 4431TIP3    H213258   3.626   2.366   0.017
 4432TIP3   OH213259   3.150   6.408   1.712
 4432TIP3    H113260   3.110   6.399   1.625
 4432TIP3    H213261   3.140   6.322   1.752
 4433TIP3   OH213262   0.989   5.378   3.660
 4433TIP3    H113263   0.935   5.397   3.583
 4433TIP3    H213264   0.936   5.407   3.734
 4434TIP3   OH213265   1.021   1.918   5.488
 4434TIP3    H113266   1.087   1.866   5.443
 4434TIP3    H213267   0.984   1.859   5.554
 4435TIP3   OH213268   5.913   6.738   4.573
 4435TIP3    H113269   5.959   6.816   4.604
 4435TIP3    H213270   5.927   6.673   4.642
 4436TIP3   OH213271   4.535   0.682   0.129
 4436TIP3    H113272   4.530   0.762   0.077
 4436TIP3    H213273   4.450   0.677   0.173
 4437TIP3   OH213274   3.716   2.945   4.192
 4437TIP3    H113275   3.811   2.933   4.204
 4437TIP3    H213276   3.704   3.040   4.195
 4438TIP3   OH213277   6.516   2.673   5.108
 4438TIP3    H113278   6.605   2.708   5.105
 4438TIP3    H213279   6.462   2.748   5.131
 4439TIP3   OH213280   7.155   1.258   0.697
 4439TIP3    H113281   7.135   1.260   0.790
 4439TIP3    H213282   7.072   1.236   0.655
 4440TIP3   OH213283   3.206   2.481   0.307
 4440TIP3    H113284   3.268   2.441   0.369
 4440TIP3    H213285   3.120   2.451   0.336
 4441TIP3   OH213286   5.465   3.233   0.958
 4441TIP3    H113287   5.423   3.157   0.998
 4441TIP3    H213288   5.558   3.224   0.980
 4442TIP3   OH213289   1.849   0.514   4.201
 4442TIP3    H113290   1.788   0.540   4.132
 4442TIP3    H213291   1.795   0.465   4.263
 4443TIP3   OH213292   3.267   4.443   4.221
 4443TIP3    H113293   3.347   4.485   4.252
 4443TIP3    H213294   3.282   4.349   4.235
 4444TIP3   OH213295   6.107   5.335   2.730
 4444TIP3    H113296   6.093   5.427   2.753
 4444TIP3    H213297   6.161   5.301   2.801
 4445TIP3   OH213298   5.050   4.837   2.501
 4445TIP3    H113299   5.040   4.744   2.482
 4445TIP3    H213300   5.046   4.880   2.415
 4446TIP3   OH213301   5.168   4.757   3.065
 4446TIP3    H113302   5.252   4.755   3.111
 4446TIP3    H213303   5.143   4.664   3.058
 4447TIP3   OH213304   6.609   1.412   2.008
 4447TIP3    H113305   6.552   1.476   1.967
 4447TIP3    H213306   6.550   1.341   2.035
 4448TIP3   OH213307   1.939   3.753   1.466
 4448TIP3    H113308   1.981   3.736   1.381
 4448TIP3    H213309   1.910   3.844   1.460
 4449TIP3   OH213310   7.083   2.776   4.906
 4449TIP3    H113311   7.095   2.788   4.812
 4449TIP3    H213312   7.157   2.822   4.945
 4450TIP3   OH213313   0.865   5.337   2.619
 4450TIP3    H113314   0.874   5.282   2.540
 4450TIP3    H213315   0.893   5.424   2.591
 4451TIP3   OH213316   2.515   3.122   3.247
 4451TIP3    H113317   2.487   3.111   3.156
 4451TIP3    H213318   2.608   3.144   3.241
 4452TIP3   OH213319   6.804   1.227   2.009
 4452TIP3    H113320   6.841   1.229   1.920
 4452TIP3    H213321   6.748   1.304   2.013
 4453TIP3   OH213322   4.256   2.807   2.444
 4453TIP3    H113323   4.315   2.876   2.473
 4453TIP3    H213324   4.170   2.833   2.476
 4454TIP3   OH213325   5.049   4.773   1.449
 4454TIP3    H113326   4.956   4.769   1.469
 4454TIP3    H213327   5.073   4.683   1.430
 4455TIP3   OH213328   0.504   5.770   5.346
 4455TIP3    H113329   0.441   5.745   5.279
 4455TIP3    H213330   0.564   5.829   5.302
 4456TIP3   OH213331   3.860   5.077   5.233
 4456TIP3    H113332   3.954   5.082   5.249
 4456TIP3    H213333   3.852   5.079   5.137
 4457TIP3   OH213334   0.084   0.324   3.052
 4457TIP3    H113335   0.164   0.341   3.001
 4457TIP3    H213336   0.018   0.301   2.986
 4458TIP3   OH213337   4.632   6.454   2.042
 4458TIP3    H113338   4.637   6.390   1.972
 4458TIP3    H213339   4.541   6.451   2.071
 4459TIP3   OH213340   1.024   0.969   1.808
 4459TIP3    H113341   1.107   0.950   1.764
 4459TIP3    H213342   1.037   1.056   1.847
 4460TIP3   OH213343   2.391   5.928   0.067
 4460TIP3    H113344   2.430   5.881   0.141
 4460TIP3    H213345   2.355   6.008   0.106
 4461TIP3   OH213346   0.159   1.974   2.592
 4461TIP3    H113347   0.175   1.917   2.667
 4461TIP3    H213348   0.177   2.062   2.625
 4462TIP3   OH213349   7.147   5.115   3.754
 4462TIP3    H113350   7.163   5.021   3.749
 4462TIP3    H213351   7.158   5.146   3.663
 4463TIP3   OH213352   0.262   4.290   1.353
 4463TIP3    H113353   0.292   4.342   1.278
 4463TIP3    H213354   0.180   4.331   1.379
 4464TIP3   OH213355   6.440   2.590   4.297
 4464TIP3    H113356   6.516   2.637   4.261
 4464TIP3    H213357   6.399   2.652   4.356
 4465TIP3   OH213358   0.527   5.863   0.649
 4465TIP3    H113359   0.446   5.904   0.620
 4465TIP3    H213360   0.575   5.843   0.569
 4466TIP3   OH213361   6.518   3.572   1.131
 4466TIP3    H113362   6.567   3.549   1.052
 4466TIP3    H213363   6.454   3.501   1.142
 4467TIP3   OH213364   0.783   0.486   3.931
 4467TIP3    H113365   0.821   0.405   3.898
 4467TIP3    H213366   0.807   0.487   4.024
 4468TIP3   OH213367   4.563   4.008   4.787
 4468TIP3    H113368   4.492   4.071   4.780
 4468TIP3    H213369   4.520   3.924   4.797
 4469TIP3   OH213370   2.198   4.125   5.155
 4469TIP3    H113371   2.183   4.216   5.129
 4469TIP3    H213372   2.130   4.107   5.220
 4470TIP3   OH213373   5.080   6.063   0.416
 4470TIP3    H113374   5.159   6.075   0.363
 4470TIP3    H213375   5.106   6.002   0.485
 4471TIP3   OH213376   0.625   0.633   2.859
 4471TIP3    H113377   0.713   0.639   2.897
 4471TIP3    H213378   0.619   0.543   2.827
 4472TIP3   OH213379   4.956   3.008   2.704
 4472TIP3    H113380   5.004   2.963   2.774
 4472TIP3    H213381   4.962   3.100   2.727
 4473TIP3   OH213382   1.748   1.411   1.972
 4473TIP3    H113383   1.798   1.339   1.935
 4473TIP3    H213384   1.807   1.451   2.036
 4474TIP3   OH213385   4.013   2.148   3.565
 4474TIP3    H113386   3.935   2.186   3.606
 4474TIP3    H213387   3.979   2.092   3.495
 4475TIP3   OH213388   3.385   0.923   3.100
 4475TIP3    H113389   3.333   0.921   3.019
 4475TIP3    H213390   3.351   0.850   3.152
 4476TIP3   OH213391   6.203   1.121   1.268
 4476TIP3    H113392   6.157   1.198   1.233
 4476TIP3    H213393   6.277   1.108   1.209
 4477TIP3   OH213394   5.219   4.956   5.379
 4477TIP3    H113395   5.242   5.049   5.382
 4477TIP3    H213396   5.185   4.942   5.291
 4478TIP3   OH213397   6.469   2.278   4.260
 4478TIP3    H113398   6.427   2.292   4.175
 4478TIP3    H213399   6.490   2.366   4.291
 4479TIP3   OH213400   0.645   5.657   3.950
 4479TIP3    H113401   0.639   5.732   4.009
 4479TIP3    H213402   0.712   5.682   3.886
 4480TIP3   OH213403   5.581   1.460   5.656
 4480TIP3    H113404   5.526   1.520   5.606
 4480TIP3    H213405   5.572   1.489   5.747
 4481TIP3   OH213406   1.820   6.159   5.094
 4481TIP3    H113407   1.786   6.143   5.006
 4481TIP3    H213408   1.879   6.086   5.110
 4482TIP3   OH213409   6.484   1.653   2.916
 4482TIP3    H113410   6.415   1.682   2.975
 4482TIP3    H213411   6.563   1.651   2.969
 4483TIP3   OH213412   3.113   6.634   5.395
 4483TIP3    H113413   3.179   6.621   5.463
 4483TIP3    H213414   3.050   6.696   5.433
 4484TIP3   OH213415   7.205   3.558   1.270
 4484TIP3    H113416   7.183   3.646   1.298
 4484TIP3    H213417   7.145   3.539   1.198
 4485TIP3   OH213418   4.912   3.297   4.701
 4485TIP3    H113419   4.856   3.348   4.760
 4485TIP3    H213420   4.987   3.274   4.755
 4486TIP3   OH213421   0.932   2.727   2.313
 4486TIP3    H113422   0.881   2.646   2.312
 4486TIP3    H213423   0.945   2.749   2.220
 4487TIP3   OH213424   6.291   6.171   2.319
 4487TIP3    H113425   6.279   6.256   2.278
 4487TIP3    H213426   6.317   6.113   2.247
 4488TIP3   OH213427   2.215   3.289   4.575
 4488TIP3    H113428   2.204   3.315   4.667
 4488TIP3    H213429   2.130   3.253   4.550
 4489TIP3   OH213430   3.403   3.457   1.553
 4489TIP3    H113431   3.328   3.413   1.512
 4489TIP3    H213432   3.459   3.385   1.583
 4490TIP3   OH213433   0.596   2.731   2.269
 4490TIP3    H113434   0.637   2.810   2.234
 4490TIP3    H213435   0.540   2.699   2.199
 4491TIP3   OH213436   2.764   4.305   4.735
 4491TIP3    H113437   2.774   4.369   4.805
 4491TIP3    H213438   2.670   4.287   4.734
 4492TIP3   OH213439   3.089   0.018   5.082
 4492TIP3    H113440   3.105  -0.040   5.007
 4492TIP3    H213441   3.163   0.079   5.081
 4493TIP3   OH213442   3.445   3.879   2.915
 4493TIP3    H113443   3.468   3.798   2.961
 4493TIP3    H213444   3.376   3.918   2.968
 4494TIP3   OH213445   2.660   4.553   4.206
 4494TIP3    H113446   2.627   4.465   4.224
 4494TIP3    H213447   2.755   4.545   4.213
 4495TIP3   OH213448   1.083   5.882   3.646
 4495TIP3    H113449   1.031   5.924   3.578
 4495TIP3    H213450   1.104   5.796   3.609
 4496TIP3   OH213451   3.245   5.903   1.247
 4496TIP3    H113452   3.196   5.901   1.329
 4496TIP3    H213453   3.324   5.954   1.267
 4497TIP3   OH213454   4.097   3.764   4.114
 4497TIP3    H113455   4.155   3.840   4.121
 4497TIP3    H213456   4.050   3.762   4.197
 4498TIP3   OH213457   0.937   3.315   5.576
 4498TIP3    H113458   1.027   3.345   5.593
 4498TIP3    H213459   0.891   3.330   5.659
 4499TIP3   OH213460   0.842   2.555   0.653
 4499TIP3    H113461   0.823   2.471   0.695
 4499TIP3    H213462   0.889   2.532   0.573
 4500TIP3   OH213463   5.239   3.598   4.226
 4500TIP3    H113464   5.150   3.586   4.192
 4500TIP3    H213465   5.227   3.646   4.308
 4501TIP3   OH213466   4.747   5.892   2.919
 4501TIP3    H113467   4.717   5.905   3.008
 4501TIP3    H213468   4.710   5.965   2.870
 4502TIP3   OH213469   2.742   4.366   2.059
 4502TIP3    H113470   2.720   4.457   2.079
 4502TIP3    H213471   2.838   4.362   2.068
 4503TIP3   OH213472   7.057   2.135   1.049
 4503TIP3    H113473   7.108   2.054   1.049
 4503TIP3    H213474   6.966   2.106   1.050
 4504TIP3   OH213475   5.174   5.396   2.893
 4504TIP3    H113476   5.181   5.368   2.801
 4504TIP3    H213477   5.080   5.408   2.907
 4505TIP3   OH213478   1.088   3.255   3.932
 4505TIP3    H113479   1.077   3.285   4.022
 4505TIP3    H213480   1.086   3.159   3.939
 4506TIP3   OH213481   2.904   2.280   1.024
 4506TIP3    H113482   2.901   2.232   0.941
 4506TIP3    H213483   2.923   2.371   0.999
 4507TIP3   OH213484   3.923   5.124   1.510
 4507TIP3    H113485   3.919   5.187   1.581
 4507TIP3    H213486   3.908   5.176   1.431
 4508TIP3   OH213487   4.685   0.428   2.913
 4508TIP3    H113488   4.679   0.520   2.938
 4508TIP3    H213489   4.779   0.409   2.915
 4509TIP3   OH213490   6.688   1.542   0.188
 4509TIP3    H113491   6.778   1.576   0.194
 4509TIP3    H213492   6.640   1.610   0.141
 4510TIP3   OH213493   5.245   6.209   4.234
 4510TIP3    H113494   5.218   6.256   4.312
 4510TIP3    H213495   5.202   6.123   4.241
 4511TIP3   OH213496   1.408   2.402   2.248
 4511TIP3    H113497   1.358   2.327   2.280
 4511TIP3    H213498   1.422   2.384   2.155
 4512TIP3   OH213499   6.090   2.789   4.110
 4512TIP3    H113500   6.069   2.788   4.016
 4512TIP3    H213501   6.005   2.804   4.152
 4513TIP3   OH213502   6.402   0.345   0.598
 4513TIP3    H113503   6.408   0.250   0.586
 4513TIP3    H213504   6.457   0.364   0.674
 4514TIP3   OH213505   0.762   6.448   2.512
 4514TIP3    H113506   0.825   6.444   2.440
 4514TIP3    H213507   0.811   6.489   2.584
 4515TIP3   OH213508   2.881   4.673   4.680
 4515TIP3    H113509   2.941   4.601   4.701
 4515TIP3    H213510   2.935   4.752   4.688
 4516TIP3   OH213511   2.719   5.080   0.184
 4516TIP3    H113512   2.739   5.124   0.101
 4516TIP3    H213513   2.627   5.100   0.200
 4517TIP3   OH213514   0.261   4.164   4.513
 4517TIP3    H113515   0.303   4.249   4.528
 4517TIP3    H213516   0.169   4.179   4.532
 4518TIP3   OH213517   1.855   2.727   1.651
 4518TIP3    H113518   1.803   2.699   1.726
 4518TIP3    H213519   1.860   2.822   1.659
 4519TIP3   OH213520   3.084   3.470   4.083
 4519TIP3    H113521   2.992   3.448   4.069
 4519TIP3    H213522   3.086   3.565   4.086
 4520TIP3   OH213523   1.294   1.041   5.890
 4520TIP3    H113524   1.258   1.129   5.877
 4520TIP3    H213525   1.266   0.992   5.812
 4521TIP3   OH213526   7.209   0.181   1.679
 4521TIP3    H113527   7.157   0.169   1.759
 4521TIP3    H213528   7.148   0.221   1.617
 4522TIP3   OH213529   5.220   6.122   3.886
 4522TIP3    H113530   5.178   6.205   3.909
 4522TIP3    H213531   5.275   6.144   3.810
 4523TIP3   OH213532   0.801   5.812   3.319
 4523TIP3    H113533   0.775   5.732   3.365
 4523TIP3    H213534   0.851   5.862   3.384
 4524TIP3   OH213535   1.218   1.140   3.949
 4524TIP3    H113536   1.157   1.072   3.977
 4524TIP3    H213537   1.189   1.219   3.995
 4525TIP3   OH213538   1.313   6.717   2.784
 4525TIP3    H113539   1.294   6.811   2.782
 4525TIP3    H213540   1.301   6.691   2.875
 4526TIP3   OH213541   1.551   4.916   2.185
 4526TIP3    H113542   1.617   4.848   2.171
 4526TIP3    H213543   1.577   4.958   2.267
 4527TIP3   OH213544   6.391   1.373   4.497
 4527TIP3    H113545   6.339   1.304   4.538
 4527TIP3    H213546   6.480   1.338   4.496
 4528TIP3   OH213547   4.234   0.901   4.023
 4528TIP3    H113548   4.149   0.868   3.997
 4528TIP3    H213549   4.269   0.835   4.083
 4529TIP3   OH213550   1.200   5.270   2.360
 4529TIP3    H113551   1.178   5.352   2.314
 4529TIP3    H213552   1.122   5.251   2.412
 4530TIP3   OH213553   5.592   6.128   4.477
 4530TIP3    H113554   5.579   6.085   4.393
 4530TIP3    H213555   5.597   6.056   4.540
 4531TIP3   OH213556   3.506   5.965   0.148
 4531TIP3    H113557   3.543   5.918   0.222
 4531TIP3    H213558   3.560   5.939   0.073
 4532TIP3   OH213559   5.220   0.365   1.683
 4532TIP3    H113560   5.237   0.362   1.589
 4532TIP3    H213561   5.130   0.396   1.691
 4533TIP3   OH213562   4.897   2.129   4.928
 4533TIP3    H113563   4.921   2.220   4.911
 4533TIP3    H213564   4.801   2.129   4.925
 4534TIP3   OH213565   1.436   1.926   2.247
 4534TIP3    H113566   1.500   1.992   2.274
 4534TIP3    H213567   1.392   1.901   2.328
 4535TIP3   OH213568   0.411   4.992   3.772
 4535TIP3    H113569   0.496   5.008   3.814
 4535TIP3    H213570   0.398   4.898   3.780
 4536TIP3   OH213571   0.312   0.528   2.070
 4536TIP3    H113572   0.292   0.463   2.137
 4536TIP3    H213573   0.229   0.543   2.025
 4537TIP3   OH213574   0.355   6.087   0.737
 4537TIP3    H113575   0.287   6.092   0.805
 4537TIP3    H213576   0.309   6.109   0.656
 4538TIP3   OH213577   4.275   5.463   1.463
 4538TIP3    H113578   4.359   5.497   1.495
 4538TIP3    H213579   4.210   5.526   1.495
 4539TIP3   OH213580   0.982   5.036   3.513
 4539TIP3    H113581   0.891   5.059   3.534
 4539TIP3    H213582   1.025   5.120   3.498
 4540TIP3   OH213583   5.840   4.960   0.089
 4540TIP3    H113584   5.846   5.055   0.096
 4540TIP3    H213585   5.753   4.944   0.053
 4541TIP3   OH213586   4.446   1.509   3.772
 4541TIP3    H113587   4.393   1.561   3.833
 4541TIP3    H213588   4.399   1.513   3.689
 4542TIP3   OH213589   6.193   4.911   0.106
 4542TIP3    H113590   6.200   4.932   0.199
 4542TIP3    H213591   6.127   4.970   0.073
 4543TIP3   OH213592   6.300   2.149   1.441
 4543TIP3    H113593   6.228   2.199   1.403
 4543TIP3    H213594   6.309   2.184   1.530
 4544TIP3   OH213595   2.361   6.450   4.722
 4544TIP3    H113596   2.436   6.427   4.776
 4544TIP3    H213597   2.360   6.383   4.653
 4545TIP3   OH213598   5.673   6.519   0.965
 4545TIP3    H113599   5.668   6.594   1.025
 4545TIP3    H213600   5.761   6.483   0.978
 4546TIP3   OH213601   2.459   3.722   5.401
 4546TIP3    H113602   2.399   3.771   5.346
 4546TIP3    H213603   2.423   3.633   5.404
 4547TIP3   OH213604   3.720   1.253   0.111
 4547TIP3    H113605   3.775   1.305   0.171
 4547TIP3    H213606   3.663   1.318   0.070
 4548TIP3   OH213607   1.828   0.921   3.921
 4548TIP3    H113608   1.741   0.895   3.951
 4548TIP3    H213609   1.866   0.969   3.994
 4549TIP3   OH213610   6.262   0.135   0.881
 4549TIP3    H113611   6.355   0.154   0.886
 4549TIP3    H213612   6.254   0.067   0.813
 4550TIP3   OH213613   5.185   3.266   1.694
 4550TIP3    H113614   5.099   3.234   1.668
 4550TIP3    H213615   5.178   3.362   1.690
 4551TIP3   OH213616   3.051   0.573   3.189
 4551TIP3    H113617   2.973   0.529   3.220
 4551TIP3    H213618   3.018   0.648   3.139
 4552TIP3   OH213619   6.378   5.691   1.087
 4552TIP3    H113620   6.362   5.601   1.059
 4552TIP3    H213621   6.380   5.742   1.007
 4553TIP3   OH213622   4.839   1.977   3.229
 4553TIP3    H113623   4.811   1.931   3.309
 4553TIP3    H213624   4.797   2.062   3.235
 4554TIP3   OH213625   0.982   1.313   2.651
 4554TIP3    H113626   1.041   1.356   2.712
 4554TIP3    H213627   0.933   1.251   2.704
 4555TIP3   OH213628   1.678   0.294   0.292
 4555TIP3    H113629   1.754   0.248   0.255
 4555TIP3    H213630   1.605   0.269   0.235
 4556TIP3   OH213631   0.197   3.629   0.139
 4556TIP3    H113632   0.172   3.540   0.117
 4556TIP3    H213633   0.274   3.647   0.085
 4557TIP3   OH213634   3.813   1.375   5.097
 4557TIP3    H113635   3.857   1.315   5.036
 4557TIP3    H213636   3.826   1.462   5.058
 4558TIP3   OH213637   6.802   4.918   2.798
 4558TIP3    H113638   6.821   4.964   2.881
 4558TIP3    H213639   6.888   4.907   2.758
 4559TIP3   OH213640   0.573   0.927   4.751
 4559TIP3    H113641   0.488   0.887   4.772
 4559TIP3    H213642   0.596   0.976   4.830
 4560TIP3   OH213643   2.856   1.728   0.053
 4560TIP3    H113644   2.885   1.757   0.139
 4560TIP3    H213645   2.936   1.715   0.003
 4561TIP3   OH213646   1.186   4.445   0.683
 4561TIP3    H113647   1.143   4.424   0.600
 4561TIP3    H213648   1.183   4.363   0.732
 4562TIP3   OH213649   3.132   5.719   2.510
 4562TIP3    H113650   3.180   5.720   2.427
 4562TIP3    H213651   3.157   5.801   2.554
 4563TIP3   OH213652   2.364   5.259   3.032
 4563TIP3    H113653   2.396   5.305   2.954
 4563TIP3    H213654   2.443   5.234   3.079
 4564TIP3   OH213655   0.527   6.602   2.600
 4564TIP3    H113656   0.600   6.540   2.594
 4564TIP3    H213657   0.539   6.646   2.684
 4565TIP3   OH213658   2.308   4.196   1.022
 4565TIP3    H113659   2.379   4.179   0.959
 4565TIP3    H213660   2.353   4.222   1.102
 4566TIP3   OH213661   3.338   2.251   0.150
 4566TIP3    H113662   3.308   2.160   0.152
 4566TIP3    H213663   3.372   2.267   0.238
 4567TIP3   OH213664   2.349   4.594   3.033
 4567TIP3    H113665   2.346   4.565   2.942
 4567TIP3    H213666   2.269   4.645   3.045
 4568TIP3   OH213667   3.419   4.387   5.318
 4568TIP3    H113668   3.476   4.460   5.297
 4568TIP3    H213669   3.368   4.418   5.393
 4569TIP3   OH213670   5.004   2.465   0.554
 4569TIP3    H113671   5.023   2.449   0.462
 4569TIP3    H213672   5.081   2.510   0.589
 4570TIP3   OH213673   4.716   2.315   1.859
 4570TIP3    H113674   4.796   2.322   1.910
 4570TIP3    H213675   4.672   2.399   1.870
 4571TIP3   OH213676   1.272   0.689   1.533
 4571TIP3    H113677   1.307   0.604   1.563
 4571TIP3    H213678   1.226   0.668   1.452
 4572TIP3   OH213679   0.545   1.926   2.469
 4572TIP3    H113680   0.551   1.905   2.562
 4572TIP3    H213681   0.523   2.019   2.466
 4573TIP3   OH213682   4.134   0.181   3.458
 4573TIP3    H113683   4.222   0.210   3.484
 4573TIP3    H213684   4.148   0.134   3.376
 4574TIP3   OH213685   2.894   5.471   4.141
 4574TIP3    H113686   2.923   5.552   4.184
 4574TIP3    H213687   2.938   5.401   4.191
 4575TIP3   OH213688   4.944   5.362   4.484
 4575TIP3    H113689   5.033   5.328   4.470
 4575TIP3    H213690   4.887   5.294   4.450
 4576TIP3   OH213691   6.721   1.331   1.209
 4576TIP3    H113692   6.786   1.261   1.206
 4576TIP3    H213693   6.730   1.377   1.125
 4577TIP3   OH213694   3.770   0.696   0.302
 4577TIP3    H113695   3.708   0.727   0.369
 4577TIP3    H213696   3.746   0.745   0.223
 4578TIP3   OH213697   4.980   6.335   4.937
 4578TIP3    H113698   4.950   6.347   4.848
 4578TIP3    H213699   4.932   6.400   4.988
 4579TIP3   OH213700   1.823   5.632   2.374
 4579TIP3    H113701   1.812   5.594   2.287
 4579TIP3    H213702   1.738   5.673   2.392
 4580TIP3   OH213703   6.778   2.221   2.184
 4580TIP3    H113704   6.830   2.269   2.119
 4580TIP3    H213705   6.786   2.274   2.264
 4581TIP3   OH213706   2.732   2.331   4.106
 4581TIP3    H113707   2.699   2.271   4.173
 4581TIP3    H213708   2.778   2.399   4.155
 4582TIP3   OH213709   2.237   2.411   1.749
 4582TIP3    H113710   2.218   2.499   1.784
 4582TIP3    H213711   2.165   2.357   1.782
 4583TIP3   OH213712   2.839   2.803   4.799
 4583TIP3    H113713   2.849   2.868   4.729
 4583TIP3    H213714   2.785   2.735   4.760
 4584TIP3   OH213715   5.527   2.799   1.059
 4584TIP3    H113716   5.502   2.772   1.148
 4584TIP3    H213717   5.478   2.880   1.044
 4585TIP3   OH213718   1.936   2.527   1.846
 4585TIP3    H113719   2.019   2.566   1.874
 4585TIP3    H213720   1.929   2.552   1.754
 4586TIP3   OH213721   3.433   4.728   0.270
 4586TIP3    H113722   3.506   4.738   0.332
 4586TIP3    H213723   3.476   4.709   0.186
 4587TIP3   OH213724   3.128   0.911   4.629
 4587TIP3    H113725   3.085   0.849   4.570
 4587TIP3    H213726   3.102   0.997   4.597
 4588TIP3   OH213727   6.932   5.974   0.582
 4588TIP3    H113728   6.904   5.907   0.645
 4588TIP3    H213729   6.850   6.008   0.547
 4589TIP3   OH213730   6.524   3.134   3.126
 4589TIP3    H113731   6.578   3.118   3.049
 4589TIP3    H213732   6.567   3.206   3.172
 4590TIP3   OH213733   5.008   3.783   0.779
 4590TIP3    H113734   5.023   3.770   0.873
 4590TIP3    H213735   4.948   3.857   0.774
 4591TIP3   OH213736   0.006   3.161   5.898
 4591TIP3    H113737   0.060   3.173   5.820
 4591TIP3    H213738  -0.047   3.240   5.903
 4592TIP3   OH213739   5.417   0.344   1.173
 4592TIP3    H113740   5.348   0.406   1.151
 4592TIP3    H213741   5.463   0.329   1.090
 4593TIP3   OH213742   6.090   2.995   5.135
 4593TIP3    H113743   6.107   3.072   5.189
 4593TIP3    H213744   6.006   3.014   5.093
 4594TIP3   OH213745   5.333   2.707   1.618
 4594TIP3    H113746   5.330   2.803   1.620
 4594TIP3    H213747   5.242   2.680   1.631
 4595TIP3   OH213748   0.301   3.936   4.334
 4595TIP3    H113749   0.295   4.015   4.388
 4595TIP3    H213750   0.362   3.879   4.382
 4596TIP3   OH213751   6.882   1.049   3.624
 4596TIP3    H113752   6.964   1.000   3.622
 4596TIP3    H213753   6.887   1.106   3.547
 4597TIP3   OH213754   2.211   1.717   0.329
 4597TIP3    H113755   2.238   1.757   0.246
 4597TIP3    H213756   2.284   1.733   0.388
 4598TIP3   OH213757   1.651   0.108   5.946
 4598TIP3    H113758   1.623   0.031   5.896
 4598TIP3    H213759   1.744   0.116   5.928
 4599TIP3   OH213760   3.379   0.019   5.416
 4599TIP3    H113761   3.426   0.091   5.373
 4599TIP3    H213762   3.306   0.062   5.461
 4600TIP3   OH213763   1.445   5.954   4.946
 4600TIP3    H113764   1.494   5.937   4.866
 4600TIP3    H213765   1.400   6.037   4.929
 4601TIP3   OH213766   6.822   1.883   4.968
 4601TIP3    H113767   6.842   1.950   4.903
 4601TIP3    H213768   6.770   1.930   5.034
 4602TIP3   OH213769   0.407   0.025   3.675
 4602TIP3    H113770   0.370   0.108   3.647
 4602TIP3    H213771   0.351  -0.004   3.747
 4603TIP3   OH213772   0.335  -0.008   1.407
 4603TIP3    H113773   0.315  -0.025   1.499
 4603TIP3    H213774   0.257   0.035   1.372
 4604TIP3   OH213775   1.846   5.313   4.411
 4604TIP3    H113776   1.900   5.340   4.485
 4604TIP3    H213777   1.907   5.305   4.338
 4605TIP3   OH213778   4.644   3.082   0.548
 4605TIP3    H113779   4.576   3.019   0.568
 4605TIP3    H213780   4.713   3.065   0.611
 4606TIP3   OH213781   6.259   2.712   2.090
 4606TIP3    H113782   6.224   2.654   2.022
 4606TIP3    H213783   6.213   2.795   2.077
 4607TIP3   OH213784   4.001   3.709   5.272
 4607TIP3    H113785   4.027   3.637   5.330
 4607TIP3    H213786   3.996   3.785   5.329
 4608TIP3   OH213787   2.528   6.147   0.600
 4608TIP3    H113788   2.518   6.226   0.547
 4608TIP3    H213789   2.610   6.160   0.648
 4609TIP3   OH213790   3.757   2.070   0.167
 4609TIP3    H113791   3.686   2.016   0.201
 4609TIP3    H213792   3.713   2.135   0.112
 4610TIP3   OH213793   5.115   2.835   4.262
 4610TIP3    H113794   5.149   2.884   4.336
 4610TIP3    H213795   5.098   2.901   4.195
 4611TIP3   OH213796   3.161   0.915   1.890
 4611TIP3    H113797   3.212   0.980   1.938
 4611TIP3    H213798   3.185   0.928   1.798
 4612TIP3   OH213799   2.010   5.890   4.477
 4612TIP3    H113800   2.065   5.894   4.399
 4612TIP3    H213801   2.070   5.868   4.548
 4613TIP3   OH213802   6.084   5.680   5.172
 4613TIP3    H113803   6.072   5.768   5.137
 4613TIP3    H213804   6.012   5.668   5.234
 4614TIP3   OH213805   5.248   5.893   5.292
 4614TIP3    H113806   5.208   5.807   5.301
 4614TIP3    H213807   5.176   5.950   5.265
 4615TIP3   OH213808   5.007   0.517   2.051
 4615TIP3    H113809   5.066   0.447   2.079
 4615TIP3    H213810   4.921   0.474   2.042
 4616TIP3   OH213811   6.015   2.488   3.355
 4616TIP3    H113812   5.972   2.437   3.286
 4616TIP3    H213813   5.952   2.556   3.377
 4617TIP3   OH213814   1.131   4.230   5.402
 4617TIP3    H113815   1.199   4.254   5.338
 4617TIP3    H213816   1.126   4.134   5.397
 4618TIP3   OH213817   5.266   5.893   0.489
 4618TIP3    H113818   5.276   5.830   0.560
 4618TIP3    H213819   5.291   5.845   0.410
 4619TIP3   OH213820   0.301   1.563   3.604
 4619TIP3    H113821   0.274   1.485   3.653
 4619TIP3    H213822   0.224   1.587   3.553
 4620TIP3   OH213823   6.814   0.354   0.373
 4620TIP3    H113824   6.881   0.417   0.349
 4620TIP3    H213825   6.742   0.407   0.407
 4621TIP3   OH213826   6.012   4.696   0.178
 4621TIP3    H113827   5.960   4.772   0.206
 4621TIP3    H213828   6.077   4.732   0.117
 4622TIP3   OH213829   0.339   4.917   4.780
 4622TIP3    H113830   0.357   4.892   4.689
 4622TIP3    H213831   0.406   4.983   4.800
 4623TIP3   OH213832   6.349   3.276   2.628
 4623TIP3    H113833   6.345   3.369   2.650
 4623TIP3    H213834   6.286   3.234   2.688
 4624TIP3   OH213835   0.707   3.470   0.464
 4624TIP3    H113836   0.776   3.535   0.472
 4624TIP3    H213837   0.626   3.520   0.462
 4625TIP3   OH213838   0.327   3.386   1.033
 4625TIP3    H113839   0.329   3.436   1.115
 4625TIP3    H213840   0.409   3.407   0.989
 4626TIP3   OH213841   3.309   5.535   0.990
 4626TIP3    H113842   3.258   5.571   1.063
 4626TIP3    H213843   3.291   5.441   0.992
 4627TIP3   OH213844   0.165   5.217   2.864
 4627TIP3    H113845   0.217   5.248   2.791
 4627TIP3    H213846   0.173   5.121   2.860
 4628TIP3   OH213847   2.034   4.441   0.599
 4628TIP3    H113848   1.986   4.491   0.532
 4628TIP3    H213849   1.968   4.386   0.640
 4629TIP3   OH213850   4.061   1.557   2.467
 4629TIP3    H113851   4.003   1.612   2.520
 4629TIP3    H213852   4.104   1.618   2.407
 4630TIP3   OH213853   7.025   2.564   0.635
 4630TIP3    H113854   7.070   2.497   0.583
 4630TIP3    H213855   7.096   2.612   0.678
 4631TIP3   OH213856   5.044   2.665   1.647
 4631TIP3    H113857   4.986   2.674   1.572
 4631TIP3    H213858   5.038   2.573   1.671
 4632TIP3   OH213859   3.008   2.390   3.450
 4632TIP3    H113860   3.059   2.401   3.530
 4632TIP3    H213861   2.982   2.298   3.450
 4633TIP3   OH213862   0.310   0.614   3.935
 4633TIP3    H113863   0.265   0.552   3.993
 4633TIP3    H213864   0.299   0.575   3.848
 4634TIP3   OH213865   1.919   6.460   5.238
 4634TIP3    H113866   1.866   6.438   5.315
 4634TIP3    H213867   1.856   6.496   5.175
 4635TIP3   OH213868   4.234   1.843   3.753
 4635TIP3    H113869   4.313   1.855   3.805
 4635TIP3    H213870   4.216   1.749   3.758
 4636TIP3   OH213871   2.540   4.524   0.558
 4636TIP3    H113872   2.475   4.465   0.520
 4636TIP3    H213873   2.489   4.595   0.597
 4637TIP3   OH213874   6.258   2.622   4.773
 4637TIP3    H113875   6.223   2.697   4.725
 4637TIP3    H213876   6.193   2.553   4.760
 4638TIP3   OH213877   0.681   1.549   4.358
 4638TIP3    H113878   0.590   1.577   4.365
 4638TIP3    H213879   0.695   1.495   4.435
 4639TIP3   OH213880   2.066   1.807   1.229
 4639TIP3    H113881   1.996   1.749   1.258
 4639TIP3    H213882   2.117   1.824   1.309
 4640TIP3   OH213883   5.848   2.462   1.740
 4640TIP3    H113884   5.798   2.511   1.675
 4640TIP3    H213885   5.884   2.529   1.798
 4641TIP3   OH213886   2.741   0.459   3.525
 4641TIP3    H113887   2.765   0.388   3.585
 4641TIP3    H213888   2.656   0.434   3.491
 4642TIP3   OH213889   3.265   0.416   1.897
 4642TIP3    H113890   3.230   0.404   1.986
 4642TIP3    H213891   3.228   0.499   1.867
 4643TIP3   OH213892   2.780   0.462   3.214
 4643TIP3    H113893   2.746   0.492   3.299
 4643TIP3    H213894   2.703   0.459   3.157
 4644TIP3   OH213895   0.781   2.119   0.269
 4644TIP3    H113896   0.819   2.036   0.241
 4644TIP3    H213897   0.758   2.104   0.361
 4645TIP3   OH213898   2.105   6.213   5.159
 4645TIP3    H113899   2.079   6.121   5.154
 4645TIP3    H213900   2.024   6.259   5.181
 4646TIP3   OH213901   7.090   1.834   2.372
 4646TIP3    H113902   7.101   1.850   2.466
 4646TIP3    H213903   7.026   1.899   2.344
 4647TIP3   OH213904   1.840   5.090   0.770
 4647TIP3    H113905   1.907   5.076   0.836
 4647TIP3    H213906   1.774   5.144   0.814
 4648TIP3   OH213907   0.510   4.348   3.832
 4648TIP3    H113908   0.544   4.315   3.916
 4648TIP3    H213909   0.415   4.338   3.840
 4649TIP3   OH213910   3.918   6.098   2.715
 4649TIP3    H113911   3.886   6.073   2.629
 4649TIP3    H213912   3.928   6.193   2.710
 4650TIP3   OH213913   4.684   4.084   2.188
 4650TIP3    H113914   4.670   4.167   2.143
 4650TIP3    H213915   4.600   4.038   2.182
 4651TIP3   OH213916   5.914   0.373   2.131
 4651TIP3    H113917   5.876   0.397   2.047
 4651TIP3    H213918   5.849   0.399   2.196
 4652TIP3   OH213919   3.237   6.509   2.092
 4652TIP3    H113920   3.265   6.575   2.029
 4652TIP3    H213921   3.142   6.503   2.081
 4653TIP3   OH213922   7.026   4.628   4.763
 4653TIP3    H113923   7.058   4.705   4.809
 4653TIP3    H213924   7.105   4.585   4.730
 4654TIP3   OH213925   5.227   1.449   4.523
 4654TIP3    H113926   5.214   1.355   4.511
 4654TIP3    H213927   5.222   1.486   4.435
 4655TIP3   OH213928   1.038   6.365   1.735
 4655TIP3    H113929   1.134   6.365   1.733
 4655TIP3    H213930   1.013   6.304   1.666
 4656TIP3   OH213931   5.594   4.035   5.828
 4656TIP3    H113932   5.541   3.996   5.759
 4656TIP3    H213933   5.668   3.975   5.839
 4657TIP3   OH213934   0.389   4.555   3.558
 4657TIP3    H113935   0.379   4.593   3.646
 4657TIP3    H213936   0.466   4.499   3.566
 4658TIP3   OH213937   1.283   3.104   5.791
 4658TIP3    H113938   1.269   3.124   5.883
 4658TIP3    H213939   1.350   3.036   5.791
 4659TIP3   OH213940   3.433   0.278   2.190
 4659TIP3    H113941   3.425   0.185   2.212
 4659TIP3    H213942   3.345   0.305   2.167
 4660TIP3   OH213943   2.669   5.768   5.366
 4660TIP3    H113944   2.758   5.735   5.379
 4660TIP3    H213945   2.619   5.690   5.340
 4661TIP3   OH213946   1.850   6.195   2.960
 4661TIP3    H113947   1.774   6.187   2.903
 4661TIP3    H213948   1.882   6.105   2.971
 4662TIP3   OH213949   6.365   5.332   1.446
 4662TIP3    H113950   6.318   5.251   1.466
 4662TIP3    H213951   6.298   5.400   1.451
 4663TIP3   OH213952   5.931   0.685   1.450
 4663TIP3    H113953   5.932   0.775   1.484
 4663TIP3    H213954   5.897   0.633   1.523
 4664TIP3   OH213955   3.606   4.428   0.906
 4664TIP3    H113956   3.645   4.386   0.829
 4664TIP3    H213957   3.652   4.390   0.980
 4665TIP3   OH213958   4.534   3.805   3.642
 4665TIP3    H113959   4.602   3.828   3.705
 4665TIP3    H213960   4.491   3.888   3.621
 4666TIP3   OH213961   6.050   4.265   4.771
 4666TIP3    H113962   6.106   4.187   4.767
 4666TIP3    H213963   6.112   4.338   4.782
 4667TIP3   OH213964   6.496   1.411   0.944
 4667TIP3    H113965   6.480   1.494   0.989
 4667TIP3    H213966   6.511   1.435   0.853
 4668TIP3   OH213967   4.874   1.238   2.364
 4668TIP3    H113968   4.824   1.172   2.316
 4668TIP3    H213969   4.871   1.316   2.309
 4669TIP3   OH213970   0.631   1.459   0.024
 4669TIP3    H113971   0.613   1.417   0.108
 4669TIP3    H213972   0.619   1.553   0.042
 4670TIP3   OH213973   5.725   3.784   1.654
 4670TIP3    H113974   5.658   3.727   1.615
 4670TIP3    H213975   5.807   3.735   1.641
 4671TIP3   OH213976   2.465   4.198   1.247
 4671TIP3    H113977   2.454   4.135   1.318
 4671TIP3    H213978   2.515   4.270   1.287
 4672TIP3   OH213979   1.274   3.025   2.903
 4672TIP3    H113980   1.285   2.996   2.994
 4672TIP3    H213981   1.180   3.039   2.894
 4673TIP3   OH213982   6.386   0.124   4.455
 4673TIP3    H113983   6.353   0.127   4.365
 4673TIP3    H213984   6.465   0.070   4.449
 4674TIP3   OH213985   1.737   3.305   3.869
 4674TIP3    H113986   1.801   3.364   3.828
 4674TIP3    H213987   1.684   3.362   3.925
 4675TIP3   OH213988   4.415   3.529   0.606
 4675TIP3    H113989   4.502   3.536   0.646
 4675TIP3    H213990   4.423   3.456   0.545
 4676TIP3   OH213991   4.504   4.275   5.860
 4676TIP3    H113992   4.480   4.262   5.768
 4676TIP3    H213993   4.426   4.313   5.900
 4677TIP3   OH213994   2.941   6.471   4.110
 4677TIP3    H113995   2.935   6.500   4.201
 4677TIP3    H213996   2.964   6.550   4.061
 4678TIP3   OH213997   2.128   4.540   5.840
 4678TIP3    H113998   2.214   4.558   5.801
 4678TIP3    H213999   2.106   4.620   5.887
 4679TIP3   OH214000   1.056   6.808   0.285
 4679TIP3    H114001   1.010   6.886   0.317
 4679TIP3    H214002   1.060   6.820   0.190
 4680TIP3   OH214003   1.124   0.122   5.274
 4680TIP3    H114004   1.111   0.191   5.208
 4680TIP3    H214005   1.052   0.061   5.258
 4681TIP3   OH214006   1.805   6.586   5.470
 4681TIP3    H114007   1.837   6.673   5.447
 4681TIP3    H214008   1.835   6.573   5.561
 4682TIP3   OH214009   3.283   3.964   4.622
 4682TIP3    H114010   3.202   3.979   4.573
 4682TIP3    H214011   3.269   4.010   4.705
 4683TIP3   OH214012   2.537   3.296   5.205
 4683TIP3    H114013   2.511   3.368   5.148
 4683TIP3    H214014   2.618   3.326   5.247
 4684TIP3   OH214015   0.582   1.672   3.920
 4684TIP3    H114016   0.646   1.741   3.901
 4684TIP3    H214017   0.549   1.646   3.834
 4685TIP3   OH214018   3.158   0.671   0.193
 4685TIP3    H114019   3.151   0.624   0.111
 4685TIP3    H214020   3.236   0.727   0.182
 4686TIP3   OH214021   3.205   5.034   3.035
 4686TIP3    H114022   3.214   5.120   3.075
 4686TIP3    H214023   3.111   5.023   3.019
 4687TIP3   OH214024   4.720   1.968   3.615
 4687TIP3    H114025   4.652   1.953   3.550
 4687TIP3    H214026   4.791   2.009   3.566
 4688TIP3   OH214027   1.939   2.168   2.316
 4688TIP3    H114028   1.984   2.200   2.238
 4688TIP3    H214029   1.918   2.077   2.296
 4689TIP3   OH214030   0.241   6.523   0.503
 4689TIP3    H114031   0.214   6.511   0.594
 4689TIP3    H214032   0.317   6.580   0.508
 4690TIP3   OH214033   4.934   2.736   0.138
 4690TIP3    H114034   4.925   2.824   0.102
 4690TIP3    H214035   4.877   2.735   0.215
 4691TIP3   OH214036   0.571   0.684   4.555
 4691TIP3    H114037   0.594   0.687   4.648
 4691TIP3    H214038   0.628   0.616   4.518
 4692TIP3   OH214039   2.208   5.884   4.675
 4692TIP3    H114040   2.169   5.944   4.738
 4692TIP3    H214041   2.288   5.853   4.718
 4693TIP3   OH214042   2.312   2.307   5.285
 4693TIP3    H114043   2.301   2.238   5.219
 4693TIP3    H214044   2.399   2.342   5.269
 4694TIP3   OH214045   3.138   1.692   1.856
 4694TIP3    H114046   3.220   1.651   1.829
 4694TIP3    H214047   3.070   1.632   1.825
 4695TIP3   OH214048   1.994   5.015   3.833
 4695TIP3    H114049   1.935   5.090   3.830
 4695TIP3    H214050   2.075   5.049   3.871
 4696TIP3   OH214051   1.613   3.009   1.371
 4696TIP3    H114052   1.570   2.924   1.358
 4696TIP3    H214053   1.705   2.987   1.386
 4697TIP3   OH214054   4.011   4.203   4.092
 4697TIP3    H114055   3.953   4.130   4.114
 4697TIP3    H214056   3.952   4.272   4.062
 4698TIP3   OH214057   5.542   4.918   5.327
 4698TIP3    H114058   5.572   4.834   5.362
 4698TIP3    H214059   5.557   4.980   5.399
 4699TIP3   OH214060   0.338   0.939   5.236
 4699TIP3    H114061   0.365   0.911   5.324
 4699TIP3    H214062   0.319   1.033   5.246
 4700TIP3   OH214063   1.494   4.159   0.756
 4700TIP3    H114064   1.448   4.194   0.833
 4700TIP3    H214065   1.424   4.140   0.693
 4701TIP3   OH214066   0.606   4.734   5.615
 4701TIP3    H114067   0.534   4.671   5.617
 4701TIP3    H214068   0.601   4.778   5.700
 4702TIP3   OH214069   6.237   4.966   4.655
 4702TIP3    H114070   6.288   5.043   4.678
 4702TIP3    H214071   6.208   4.981   4.565
 4703TIP3   OH214072   1.963   0.761   2.395
 4703TIP3    H114073   2.012   0.795   2.321
 4703TIP3    H214074   1.877   0.737   2.359
 4704TIP3   OH214075   3.889   6.698   2.379
 4704TIP3    H114076   3.980   6.728   2.385
 4704TIP3    H214077   3.865   6.712   2.287
 4705TIP3   OH214078   7.156   6.302   3.363
 4705TIP3    H114079   7.066   6.297   3.395
 4705TIP3    H214080   7.148   6.324   3.270
 4706TIP3   OH214081   4.571   1.162   5.548
 4706TIP3    H114082   4.542   1.088   5.494
 4706TIP3    H214083   4.492   1.215   5.560
 4707TIP3   OH214084   0.564   2.542   5.074
 4707TIP3    H114085   0.497   2.556   5.008
 4707TIP3    H214086   0.561   2.448   5.093
 4708TIP3   OH214087   0.144   3.368   4.816
 4708TIP3    H114088   0.103   3.432   4.758
 4708TIP3    H214089   0.070   3.321   4.856
 4709TIP3   OH214090   3.769   6.179   0.706
 4709TIP3    H114091   3.770   6.092   0.747
 4709TIP3    H214092   3.855   6.186   0.663
 4710TIP3   OH214093   4.215   5.543   5.305
 4710TIP3    H114094   4.173   5.511   5.225
 4710TIP3    H214095   4.149   5.532   5.373
 4711TIP3   OH214096   1.414   5.285   5.445
 4711TIP3    H114097   1.386   5.233   5.520
 4711TIP3    H214098   1.509   5.277   5.444
 4712TIP3   OH214099   4.030   1.323   3.032
 4712TIP3    H114100   4.036   1.349   2.940
 4712TIP3    H214101   4.112   1.278   3.050
 4713TIP3   OH214102   3.327   0.082   2.423
 4713TIP3    H114103   3.300   0.173   2.433
 4713TIP3    H214104   3.289   0.055   2.339
 4714TIP3   OH214105   5.529   4.524   3.459
 4714TIP3    H114106   5.438   4.529   3.429
 4714TIP3    H214107   5.526   4.472   3.538
 4715TIP3   OH214108   3.550   6.687   2.753
 4715TIP3    H114109   3.618   6.661   2.690
 4715TIP3    H214110   3.580   6.648   2.836
 4716TIP3   OH214111   4.196   2.206   5.465
 4716TIP3    H114112   4.276   2.258   5.463
 4716TIP3    H214113   4.164   2.215   5.555
 4717TIP3   OH214114   2.723   4.681   3.677
 4717TIP3    H114115   2.663   4.645   3.743
 4717TIP3    H214116   2.698   4.637   3.596
 4718TIP3   OH214117   4.408   1.466   4.769
 4718TIP3    H114118   4.411   1.427   4.857
 4718TIP3    H214119   4.491   1.440   4.729
 4719TIP3   OH214120   2.427   5.553   3.971
 4719TIP3    H114121   2.437   5.481   3.909
 4719TIP3    H214122   2.424   5.510   4.057
 4720TIP3   OH214123   4.224   0.262   0.885
 4720TIP3    H114124   4.177   0.321   0.944
 4720TIP3    H214125   4.172   0.181   0.886
 4721TIP3   OH214126   2.441   6.466   3.408
 4721TIP3    H114127   2.510   6.518   3.450
 4721TIP3    H214128   2.434   6.503   3.320
 4722TIP3   OH214129   0.721   6.610   1.032
 4722TIP3    H114130   0.799   6.561   1.058
 4722TIP3    H214131   0.677   6.553   0.970
 4723TIP3   OH214132   1.311   6.427   1.685
 4723TIP3    H114133   1.388   6.373   1.670
 4723TIP3    H214134   1.344   6.502   1.735
 4724TIP3   OH214135   5.114   4.157   4.242
 4724TIP3    H114136   5.049   4.143   4.311
 4724TIP3    H214137   5.124   4.071   4.201
 4725TIP3   OH214138   2.697   3.984   1.526
 4725TIP3    H114139   2.614   4.032   1.532
 4725TIP3    H214140   2.693   3.922   1.599
 4726TIP3   OH214141   2.602   4.852   1.187
 4726TIP3    H114142   2.671   4.901   1.233
 4726TIP3    H214143   2.640   4.833   1.101
 4727TIP3   OH214144   4.015   0.092   2.043
 4727TIP3    H114145   4.068   0.014   2.058
 4727TIP3    H214146   3.969   0.075   1.961
 4728TIP3   OH214147   4.952   5.229   2.895
 4728TIP3    H114148   4.879   5.225   2.833
 4728TIP3    H214149   4.939   5.156   2.954
 4729TIP3   OH214150   0.552   6.654   2.067
 4729TIP3    H114151   0.633   6.624   2.027
 4729TIP3    H214152   0.561   6.633   2.160
 4730TIP3   OH214153   1.300   4.582   0.481
 4730TIP3    H114154   1.271   4.671   0.504
 4730TIP3    H214155   1.308   4.537   0.565
 4731TIP3   OH214156   0.405   0.109   2.288
 4731TIP3    H114157   0.324   0.109   2.340
 4731TIP3    H214158   0.454   0.184   2.321
 4732TIP3   OH214159   5.652   6.063   0.986
 4732TIP3    H114160   5.611   5.976   0.994
 4732TIP3    H214161   5.721   6.064   1.052
 4733TIP3   OH214162   6.223   5.849   4.259
 4733TIP3    H114163   6.284   5.776   4.253
 4733TIP3    H214164   6.278   5.925   4.281
 4734TIP3   OH214165   0.873   2.891   0.510
 4734TIP3    H114166   0.823   2.931   0.581
 4734TIP3    H214167   0.956   2.866   0.550
 4735TIP3   OH214168   1.820   0.346   4.755
 4735TIP3    H114169   1.840   0.388   4.671
 4735TIP3    H214170   1.837   0.253   4.740
 4736TIP3   OH214171   2.981   4.248   0.451
 4736TIP3    H114172   2.935   4.293   0.523
 4736TIP3    H214173   2.967   4.304   0.375
 4737TIP3   OH214174   0.487   3.831   4.508
 4737TIP3    H114175   0.463   3.882   4.585
 4737TIP3    H214176   0.534   3.755   4.544
 4738TIP3   OH214177   0.585   5.311   3.329
 4738TIP3    H114178   0.575   5.314   3.424
 4738TIP3    H214179   0.676   5.336   3.314
 4739TIP3   OH214180   5.521   5.285   2.966
 4739TIP3    H114181   5.564   5.213   3.014
 4739TIP3    H214182   5.466   5.328   3.032
 4740TIP3   OH214183   0.946   4.097   3.325
 4740TIP3    H114184   0.979   4.185   3.343
 4740TIP3    H214185   1.004   4.064   3.256
 4741TIP3   OH214186   4.920   0.077   1.815
 4741TIP3    H114187   5.001   0.125   1.797
 4741TIP3    H214188   4.889   0.049   1.729
 4742TIP3   OH214189   2.812   3.105   5.870
 4742TIP3    H114190   2.784   3.085   5.960
 4742TIP3    H214191   2.793   3.026   5.820
 4743TIP3   OH214192   6.104   1.089   3.222
 4743TIP3    H114193   6.126   1.057   3.134
 4743TIP3    H214194   6.056   1.171   3.205
 4744TIP3   OH214195   3.965   4.232   1.615
 4744TIP3    H114196   3.974   4.295   1.543
 4744TIP3    H214197   3.919   4.158   1.576
 4745TIP3   OH214198   4.790   5.899   3.462
 4745TIP3    H114199   4.697   5.906   3.440
 4745TIP3    H214200   4.796   5.818   3.513
 4746TIP3   OH214201   5.535   4.074   3.593
 4746TIP3    H114202   5.461   4.089   3.651
 4746TIP3    H214203   5.511   3.996   3.542
 4747TIP3   OH214204   6.815   0.687   3.458
 4747TIP3    H114205   6.832   0.665   3.366
 4747TIP3    H214206   6.744   0.751   3.454
 4748TIP3   OH214207   1.008   0.367   3.232
 4748TIP3    H114208   0.926   0.400   3.269
 4748TIP3    H214209   1.059   0.446   3.213
 4749TIP3   OH214210   5.496   4.572   1.147
 4749TIP3    H114211   5.536   4.577   1.060
 4749TIP3    H214212   5.421   4.631   1.143
 4750TIP3   OH214213   6.279   0.710   3.909
 4750TIP3    H114214   6.340   0.781   3.925
 4750TIP3    H214215   6.311   0.668   3.829
 4751TIP3   OH214216   3.728   1.512   4.187
 4751TIP3    H114217   3.649   1.535   4.235
 4751TIP3    H214218   3.727   1.569   4.110
 4752TIP3   OH214219   5.456   5.200   2.049
 4752TIP3    H114220   5.533   5.144   2.054
 4752TIP3    H214221   5.390   5.156   2.103
 4753TIP3   OH214222   5.580   0.987   4.989
 4753TIP3    H114223   5.513   0.947   4.933
 4753TIP3    H214224   5.537   0.995   5.075
 4754TIP3   OH214225   2.629   2.198   4.589
 4754TIP3    H114226   2.555   2.143   4.616
 4754TIP3    H214227   2.684   2.203   4.667
 4755TIP3   OH214228   1.611   4.283   0.376
 4755TIP3    H114229   1.571   4.210   0.425
 4755TIP3    H214230   1.606   4.357   0.437
 4756TIP3   OH214231   1.793   5.888   3.461
 4756TIP3    H114232   1.733   5.908   3.533
 4756TIP3    H214233   1.747   5.822   3.409
 4757TIP3   OH214234   2.341   0.469   1.826
 4757TIP3    H114235   2.407   0.441   1.762
 4757TIP3    H214236   2.292   0.538   1.781
 4758TIP3   OH214237   0.328   2.399   1.061
 4758TIP3    H114238   0.405   2.344   1.075
 4758TIP3    H214239   0.257   2.337   1.044
 4759TIP3   OH214240   1.906   1.056   2.204
 4759TIP3    H114241   1.820   1.034   2.170
 4759TIP3    H214242   1.958   0.977   2.192
 4760TIP3   OH214243   5.037   4.952   1.236
 4760TIP3    H114244   4.967   4.968   1.173
 4760TIP3    H214245   5.015   4.868   1.276
 4761TIP3   OH214246   5.480   2.830   5.462
 4761TIP3    H114247   5.393   2.861   5.488
 4761TIP3    H214248   5.491   2.864   5.373
 4762TIP3   OH214249   6.940   2.327   1.972
 4762TIP3    H114250   6.929   2.418   1.944
 4762TIP3    H214251   6.889   2.276   1.908
 4763TIP3   OH214252   4.441   4.252   0.905
 4763TIP3    H114253   4.363   4.205   0.933
 4763TIP3    H214254   4.437   4.250   0.809
 4764TIP3   OH214255   6.271   5.863   2.416
 4764TIP3    H114256   6.339   5.797   2.399
 4764TIP3    H214257   6.318   5.936   2.456
 4765TIP3   OH214258   5.680   2.022   4.813
 4765TIP3    H114259   5.598   2.040   4.859
 4765TIP3    H214260   5.656   2.024   4.720
 4766TIP3   OH214261   2.811   1.464   5.735
 4766TIP3    H114262   2.868   1.455   5.811
 4766TIP3    H214263   2.726   1.489   5.771
 4767TIP3   OH214264   1.965   1.796  -0.023
 4767TIP3    H114265   1.905   1.772   0.048
 4767TIP3    H214266   2.051   1.801   0.019
 4768TIP3   OH214267   5.498   0.212   2.499
 4768TIP3    H114268   5.543   0.133   2.529
 4768TIP3    H214269   5.407   0.200   2.527
 4769TIP3   OH214270   1.605   0.322   4.971
 4769TIP3    H114271   1.668   0.283   5.031
 4769TIP3    H214272   1.655   0.341   4.892
 4770TIP3   OH214273   0.244   4.029   0.845
 4770TIP3    H114274   0.251   4.065   0.933
 4770TIP3    H214275   0.247   4.106   0.787
 4771TIP3   OH214276   5.978   1.888   4.879
 4771TIP3    H114277   5.933   1.804   4.872
 4771TIP3    H214278   6.057   1.869   4.930
 4772TIP3   OH214279   2.611   6.804   3.080
 4772TIP3    H114280   2.633   6.841   3.165
 4772TIP3    H214281   2.516   6.792   3.083
 4773TIP3   OH214282   3.582   1.024   2.283
 4773TIP3    H114283   3.503   0.986   2.245
 4773TIP3    H214284   3.629   1.060   2.208
 4774TIP3   OH214285   5.292   5.838   1.407
 4774TIP3    H114286   5.262   5.798   1.326
 4774TIP3    H214287   5.294   5.767   1.470
 4775TIP3   OH214288   4.025   3.895   5.473
 4775TIP3    H114289   3.965   3.964   5.445
 4775TIP3    H214290   4.026   3.901   5.568
 4776TIP3   OH214291   4.673   1.592   1.666
 4776TIP3    H114292   4.755   1.637   1.645
 4776TIP3    H214293   4.618   1.660   1.704
 4777TIP3   OH214294   1.357   2.697   1.071
 4777TIP3    H114295   1.351   2.623   1.011
 4777TIP3    H214296   1.448   2.726   1.065
 4778TIP3   OH214297   4.863   1.753   1.969
 4778TIP3    H114298   4.914   1.767   1.890
 4778TIP3    H214299   4.772   1.760   1.941
 4779TIP3   OH214300   3.220   4.875   4.937
 4779TIP3    H114301   3.245   4.794   4.981
 4779TIP3    H214302   3.169   4.846   4.861
 4780TIP3   OH214303   3.242   5.822   3.587
 4780TIP3    H114304   3.177   5.892   3.594
 4780TIP3    H214305   3.234   5.790   3.497
 4781TIP3   OH214306   6.559   1.233   0.411
 4781TIP3    H114307   6.585   1.320   0.443
 4781TIP3    H214308   6.497   1.252   0.340
 4782TIP3   OH214309   6.358   4.636   2.970
 4782TIP3    H114310   6.393   4.706   2.915
 4782TIP3    H214311   6.436   4.590   3.002
 4783TIP3   OH214312   3.928   4.537   2.441
 4783TIP3    H114313   3.843   4.574   2.466
 4783TIP3    H214314   3.929   4.451   2.482
 4784TIP3   OH214315   4.243   2.064   4.929
 4784TIP3    H114316   4.149   2.067   4.911
 4784TIP3    H214317   4.275   2.150   4.903
 4785TIP3   OH214318   5.295   0.945   3.917
 4785TIP3    H114319   5.240   0.879   3.875
 4785TIP3    H214320   5.256   0.957   4.004
 4786TIP3   OH214321   2.638   4.841   5.615
 4786TIP3    H114322   2.664   4.932   5.623
 4786TIP3    H214323   2.685   4.796   5.686
 4787TIP3   OH214324   4.201   3.068   1.111
 4787TIP3    H114325   4.182   3.156   1.144
 4787TIP3    H214326   4.297   3.062   1.112
 4788TIP3   OH214327   1.308   4.985   0.129
 4788TIP3    H114328   1.349   5.035   0.058
 4788TIP3    H214329   1.285   4.901   0.089
 4789TIP3   OH214330   6.667   6.036   4.204
 4789TIP3    H114331   6.678   6.046   4.109
 4789TIP3    H214332   6.663   6.125   4.238
 4790TIP3   OH214333   4.432   2.651   5.659
 4790TIP3    H114334   4.478   2.633   5.741
 4790TIP3    H214335   4.468   2.734   5.628
 4791TIP3   OH214336   3.951   1.499   2.782
 4791TIP3    H114337   4.011   1.452   2.724
 4791TIP3    H214338   3.951   1.589   2.749
 4792TIP3   OH214339   3.597   2.274   0.890
 4792TIP3    H114340   3.578   2.368   0.901
 4792TIP3    H214341   3.662   2.272   0.820
 4793TIP3   OH214342   4.935   2.996   2.086
 4793TIP3    H114343   4.910   3.042   2.006
 4793TIP3    H214344   5.023   3.029   2.106
 4794TIP3   OH214345   0.560   3.679   4.932
 4794TIP3    H114346   0.540   3.587   4.918
 4794TIP3    H214347   0.655   3.684   4.925
 4795TIP3   OH214348   4.110   4.536   5.486
 4795TIP3    H114349   4.127   4.484   5.408
 4795TIP3    H214350   4.046   4.602   5.458
 4796TIP3   OH214351   6.305   0.288   2.975
 4796TIP3    H114352   6.283   0.267   2.884
 4796TIP3    H214353   6.400   0.299   2.975
 4797TIP3   OH214354   4.746   1.593   2.612
 4797TIP3    H114355   4.734   1.546   2.695
 4797TIP3    H214356   4.665   1.575   2.563
 4798TIP3   OH214357   2.047   6.183   5.610
 4798TIP3    H114358   1.958   6.204   5.582
 4798TIP3    H214359   2.102   6.211   5.537
 4799TIP3   OH214360   5.358   1.632   3.759
 4799TIP3    H114361   5.398   1.545   3.762
 4799TIP3    H214362   5.276   1.619   3.711
 4800TIP3   OH214363   1.737   3.604   1.880
 4800TIP3    H114364   1.810   3.648   1.837
 4800TIP3    H214365   1.665   3.610   1.817
 4801TIP3   OH214366   2.307   5.944   3.477
 4801TIP3    H114367   2.324   5.870   3.419
 4801TIP3    H214368   2.215   5.965   3.463
 4802TIP3   OH214369   6.195   2.185   4.446
 4802TIP3    H114370   6.231   2.108   4.401
 4802TIP3    H214371   6.266   2.248   4.448
 4803TIP3   OH214372   5.939   4.955   2.805
 4803TIP3    H114373   5.925   5.048   2.788
 4803TIP3    H214374   5.861   4.927   2.853
 4804TIP3   OH214375   4.653   6.394   3.564
 4804TIP3    H114376   4.584   6.460   3.562
 4804TIP3    H214377   4.643   6.347   3.481
 4805TIP3   OH214378   0.904   3.192   1.062
 4805TIP3    H114379   0.947   3.273   1.033
 4805TIP3    H214380   0.843   3.221   1.130
 4806TIP3   OH214381   4.811   4.635   2.796
 4806TIP3    H114382   4.719   4.636   2.767
 4806TIP3    H214383   4.806   4.628   2.891
 4807TIP3   OH214384   3.803   4.056   4.140
 4807TIP3    H114385   3.763   4.015   4.063
 4807TIP3    H214386   3.729   4.086   4.193
 4808TIP3   OH214387   1.978   5.665   0.818
 4808TIP3    H114388   2.022   5.677   0.902
 4808TIP3    H214389   1.889   5.695   0.833
 4809TIP3   OH214390   4.218   1.867   0.304
 4809TIP3    H114391   4.246   1.944   0.355
 4809TIP3    H214392   4.151   1.901   0.245
 4810TIP3   OH214393   5.296   2.231   5.095
 4810TIP3    H114394   5.226   2.297   5.090
 4810TIP3    H214395   5.251   2.151   5.122
 4811TIP3   OH214396   4.273   1.094   1.477
 4811TIP3    H114397   4.324   1.031   1.527
 4811TIP3    H214398   4.246   1.047   1.398
 4812TIP3   OH214399   1.670   0.136   4.106
 4812TIP3    H114400   1.674   0.199   4.034
 4812TIP3    H214401   1.737   0.071   4.085
 4813TIP3   OH214402   5.967   3.762   2.253
 4813TIP3    H114403   5.977   3.851   2.286
 4813TIP3    H214404   5.964   3.772   2.158
 4814TIP3   OH214405   6.065   5.977   3.686
 4814TIP3    H114406   5.980   6.015   3.711
 4814TIP3    H214407   6.044   5.888   3.658
 4815TIP3   OH214408   1.723   3.202   1.148
 4815TIP3    H114409   1.710   3.134   1.081
 4815TIP3    H214410   1.649   3.192   1.207
 4816TIP3   OH214411   5.618   0.452   0.381
 4816TIP3    H114412   5.560   0.377   0.367
 4816TIP3    H214413   5.678   0.449   0.306
 4817TIP3   OH214414   3.512   2.613   4.368
 4817TIP3    H114415   3.473   2.630   4.454
 4817TIP3    H214416   3.555   2.696   4.345
 4818TIP3   OH214417   3.573   1.093   2.004
 4818TIP3    H114418   3.621   1.019   1.967
 4818TIP3    H214419   3.639   1.163   2.012
 4819TIP3   OH214420   3.393   0.685   4.373
 4819TIP3    H114421   3.421   0.629   4.300
 4819TIP3    H214422   3.311   0.646   4.403
 4820TIP3   OH214423   6.362   1.709   1.959
 4820TIP3    H114424   6.360   1.638   1.895
 4820TIP3    H214425   6.273   1.745   1.958
 4821TIP3   OH214426   1.968   2.699   3.889
 4821TIP3    H114427   1.873   2.687   3.889
 4821TIP3    H214428   1.981   2.787   3.852
 4822TIP3   OH214429   0.913   5.163   2.423
 4822TIP3    H114430   0.917   5.075   2.460
 4822TIP3    H214431   0.899   5.149   2.329
 4823TIP3   OH214432   6.777   5.837   5.522
 4823TIP3    H114433   6.809   5.861   5.436
 4823TIP3    H214434   6.799   5.744   5.531
 4824TIP3   OH214435   6.053   0.935   2.295
 4824TIP3    H114436   6.024   0.869   2.232
 4824TIP3    H214437   6.058   0.887   2.378
 4825TIP3   OH214438   4.461   0.635   1.449
 4825TIP3    H114439   4.466   0.729   1.466
 4825TIP3    H214440   4.496   0.595   1.528
 4826TIP3   OH214441   1.540   4.329   3.280
 4826TIP3    H114442   1.612   4.366   3.229
 4826TIP3    H214443   1.511   4.400   3.336
 4827TIP3   OH214444   1.659   5.536   0.713
 4827TIP3    H114445   1.575   5.544   0.669
 4827TIP3    H214446   1.654   5.453   0.760
 4828TIP3   OH214447   4.379   4.697   4.040
 4828TIP3    H114448   4.348   4.731   3.956
 4828TIP3    H214449   4.389   4.603   4.026
 4829TIP3   OH214450   6.078   3.043   3.881
 4829TIP3    H114451   6.108   3.066   3.793
 4829TIP3    H214452   6.036   2.957   3.871
 4830TIP3   OH214453   2.674   0.250   4.015
 4830TIP3    H114454   2.635   0.337   4.017
 4830TIP3    H214455   2.765   0.263   4.041
 4831TIP3   OH214456   6.150   4.786   3.089
 4831TIP3    H114457   6.240   4.754   3.088
 4831TIP3    H214458   6.138   4.822   3.178
 4832TIP3   OH214459   1.934   5.174   5.653
 4832TIP3    H114460   1.992   5.245   5.627
 4832TIP3    H214461   1.981   5.094   5.630
 4833TIP3   OH214462   2.446   1.423   4.028
 4833TIP3    H114463   2.471   1.331   4.016
 4833TIP3    H214464   2.528   1.470   4.034
 4834TIP3   OH214465   1.396   4.080   0.489
 4834TIP3    H114466   1.429   3.990   0.489
 4834TIP3    H214467   1.301   4.070   0.482
 4835TIP3   OH214468   2.875   6.314   2.925
 4835TIP3    H114469   2.810   6.315   2.855
 4835TIP3    H214470   2.853   6.389   2.980
 4836TIP3   OH214471   0.578   3.728   5.197
 4836TIP3    H114472   0.504   3.677   5.230
 4836TIP3    H214473   0.570   3.723   5.102
 4837TIP3   OH214474   1.745   5.764   3.859
 4837TIP3    H114475   1.799   5.713   3.798
 4837TIP3    H214476   1.691   5.819   3.802
 4838TIP3   OH214477   2.469   0.770   3.948
 4838TIP3    H114478   2.528   0.764   4.023
 4838TIP3    H214479   2.386   0.798   3.986
 4839TIP3   OH214480   6.274   3.051   4.306
 4839TIP3    H114481   6.242   3.105   4.378
 4839TIP3    H214482   6.211   3.066   4.236
 4840TIP3   OH214483   1.509   0.708   5.194
 4840TIP3    H114484   1.556   0.764   5.133
 4840TIP3    H214485   1.459   0.648   5.139
 4841TIP3   OH214486   6.582   5.318   5.578
 4841TIP3    H114487   6.568   5.231   5.541
 4841TIP3    H214488   6.616   5.301   5.666
 4842TIP3   OH214489   5.184   6.525   3.487
 4842TIP3    H114490   5.115   6.482   3.537
 4842TIP3    H214491   5.211   6.460   3.422
 4843TIP3   OH214492   2.877   3.794   4.925
 4843TIP3    H114493   2.820   3.740   4.979
 4843TIP3    H214494   2.956   3.742   4.915
 4844TIP3   OH214495   2.270   3.777   2.258
 4844TIP3    H114496   2.312   3.757   2.342
 4844TIP3    H214497   2.333   3.830   2.211
 4845TIP3   OH214498   0.227   2.050   1.775
 4845TIP3    H114499   0.224   2.132   1.724
 4845TIP3    H214500   0.146   2.005   1.752
 4846TIP3   OH214501   2.514   2.807   1.840
 4846TIP3    H114502   2.431   2.816   1.886
 4846TIP3    H214503   2.490   2.796   1.748
 4847TIP3   OH214504   4.287   2.987   3.803
 4847TIP3    H114505   4.232   2.934   3.745
 4847TIP3    H214506   4.229   3.054   3.837
 4848TIP3   OH214507   3.988   3.580   2.137
 4848TIP3    H114508   3.924   3.641   2.176
 4848TIP3    H214509   3.987   3.504   2.195
 4849TIP3   OH214510   1.115   1.209   5.062
 4849TIP3    H114511   1.050   1.224   5.131
 4849TIP3    H214512   1.114   1.290   5.011
 4850TIP3   OH214513   1.218   1.249   4.358
 4850TIP3    H114514   1.167   1.183   4.311
 4850TIP3    H214515   1.156   1.320   4.375
 4851TIP3   OH214516   6.718   2.197   3.786
 4851TIP3    H114517   6.785   2.265   3.792
 4851TIP3    H214518   6.704   2.186   3.692
 4852TIP3   OH214519   6.310   3.995   1.738
 4852TIP3    H114520   6.248   3.923   1.749
 4852TIP3    H214521   6.277   4.064   1.796
 4853TIP3   OH214522   0.175   2.066   4.270
 4853TIP3    H114523   0.123   2.027   4.340
 4853TIP3    H214524   0.174   2.001   4.200
 4854TIP3   OH214525   0.676   5.045   5.097
 4854TIP3    H114526   0.720   5.126   5.075
 4854TIP3    H214527   0.681   5.041   5.193
 4855TIP3   OH214528   2.414   0.044   3.537
 4855TIP3    H114529   2.387   0.102   3.607
 4855TIP3    H214530   2.370   0.078   3.459
 4856TIP3   OH214531   3.841   4.885   1.987
 4856TIP3    H114532   3.876   4.950   2.047
 4856TIP3    H214533   3.887   4.804   2.010
 4857TIP3   OH214534   2.399   3.717   1.803
 4857TIP3    H114535   2.330   3.651   1.811
 4857TIP3    H214536   2.381   3.762   1.721
 4858TIP3   OH214537   3.055   2.990   5.342
 4858TIP3    H114538   3.005   3.028   5.270
 4858TIP3    H214539   3.138   3.037   5.340
 4859TIP3   OH214540   4.321   1.096   0.489
 4859TIP3    H114541   4.333   1.009   0.451
 4859TIP3    H214542   4.408   1.120   0.521
 4860TIP3   OH214543   2.828   3.579   2.814
 4860TIP3    H114544   2.807   3.504   2.871
 4860TIP3    H214545   2.816   3.545   2.725
 4861TIP3   OH214546   5.112   3.062   4.119
 4861TIP3    H114547   5.173   3.121   4.163
 4861TIP3    H214548   5.027   3.105   4.126
 4862TIP3   OH214549   2.541   0.642   3.291
 4862TIP3    H114550   2.544   0.692   3.209
 4862TIP3    H214551   2.561   0.706   3.359
 4863TIP3   OH214552   1.047   1.130   0.830
 4863TIP3    H114553   1.032   1.196   0.897
 4863TIP3    H214554   1.128   1.087   0.856
 4864TIP3   OH214555   6.785   4.118   5.414
 4864TIP3    H114556   6.786   4.178   5.339
 4864TIP3    H214557   6.693   4.100   5.429
 4865TIP3   OH214558   1.015   6.681   5.657
 4865TIP3    H114559   0.924   6.656   5.666
 4865TIP3    H214560   1.023   6.711   5.566
 4866TIP3   OH214561   0.898   2.912   1.909
 4866TIP3    H114562   0.887   2.830   1.860
 4866TIP3    H214563   0.984   2.903   1.951
 4867TIP3   OH214564   3.858   3.047   3.363
 4867TIP3    H114565   3.856   3.141   3.379
 4867TIP3    H214566   3.824   3.037   3.274
 4868TIP3   OH214567   2.761   6.275   3.504
 4868TIP3    H114568   2.674   6.237   3.513
 4868TIP3    H214569   2.754   6.361   3.544
 4869TIP3   OH214570   3.059   5.269   1.900
 4869TIP3    H114571   2.991   5.204   1.888
 4869TIP3    H214572   3.111   5.265   1.820
 4870TIP3   OH214573   6.146   1.486   4.509
 4870TIP3    H114574   6.235   1.462   4.483
 4870TIP3    H214575   6.122   1.556   4.449
 4871TIP3   OH214576   1.326   0.731   4.052
 4871TIP3    H114577   1.417   0.747   4.027
 4871TIP3    H214578   1.313   0.786   4.129
 4872TIP3   OH214579   1.991   1.436   5.216
 4872TIP3    H114580   1.964   1.517   5.173
 4872TIP3    H214581   1.913   1.380   5.211
 4873TIP3   OH214582   6.338   3.568   5.236
 4873TIP3    H114583   6.377   3.607   5.158
 4873TIP3    H214584   6.412   3.551   5.294
 4874TIP3   OH214585   4.300   6.094   2.145
 4874TIP3    H114586   4.209   6.125   2.148
 4874TIP3    H214587   4.301   6.029   2.075
 4875TIP3   OH214588   5.527   3.869   0.429
 4875TIP3    H114589   5.495   3.912   0.349
 4875TIP3    H214590   5.452   3.872   0.488
 4876TIP3   OH214591   3.635   2.572   1.875
 4876TIP3    H114592   3.662   2.486   1.905
 4876TIP3    H214593   3.681   2.633   1.932
 4877TIP3   OH214594   2.084   6.198   3.198
 4877TIP3    H114595   2.147   6.266   3.173
 4877TIP3    H214596   1.999   6.235   3.174
 4878TIP3   OH214597   0.869   3.100   3.505
 4878TIP3    H114598   0.780   3.077   3.480
 4878TIP3    H214599   0.881   3.189   3.471
 4879TIP3   OH214600   0.221   3.547   4.262
 4879TIP3    H114601   0.308   3.562   4.299
 4879TIP3    H214602   0.166   3.525   4.337
 4880TIP3   OH214603   5.460   1.131   0.242
 4880TIP3    H114604   5.499   1.195   0.183
 4880TIP3    H214605   5.395   1.085   0.188
 4881TIP3   OH214606   4.720   0.697   2.977
 4881TIP3    H114607   4.811   0.725   2.980
 4881TIP3    H214608   4.669   0.777   2.988
 4882TIP3   OH214609   5.945   5.315   1.823
 4882TIP3    H114610   5.991   5.252   1.767
 4882TIP3    H214611   5.877   5.351   1.767
 4883TIP3   OH214612   1.719   6.271   1.041
 4883TIP3    H114613   1.753   6.360   1.050
 4883TIP3    H214614   1.639   6.270   1.094
 4884TIP3   OH214615   3.012   3.146   3.912
 4884TIP3    H114616   3.015   3.213   3.980
 4884TIP3    H214617   2.967   3.072   3.954
 4885TIP3   OH214618   6.905   4.561   1.121
 4885TIP3    H114619   6.834   4.497   1.110
 4885TIP3    H214620   6.900   4.616   1.043
 4886TIP3   OH214621   2.006   2.451   2.668
 4886TIP3    H114622   2.085   2.488   2.706
 4886TIP3    H214623   2.034   2.369   2.628
 4887TIP3   OH214624   3.022   3.275   2.731
 4887TIP3    H114625   3.028   3.348   2.670
 4887TIP3    H214626   3.048   3.312   2.815
 4888TIP3   OH214627   2.447   4.230   3.876
 4888TIP3    H114628   2.514   4.220   3.808
 4888TIP3    H214629   2.424   4.140   3.900
 4889TIP3   OH214630   2.689   5.105   5.655
 4889TIP3    H114631   2.758   5.087   5.719
 4889TIP3    H214632   2.700   5.197   5.633
 4890TIP3   OH214633   1.418   6.600   3.522
 4890TIP3    H114634   1.481   6.577   3.591
 4890TIP3    H214635   1.421   6.695   3.518
 4891TIP3   OH214636   2.567   0.369  -0.021
 4891TIP3    H114637   2.599   0.360   0.069
 4891TIP3    H214638   2.518   0.289  -0.037
 4892TIP3   OH214639   2.910   5.167   5.888
 4892TIP3    H114640   2.856   5.106   5.939
 4892TIP3    H214641   2.950   5.224   5.953
 4893TIP3   OH214642   2.203   6.502   5.251
 4893TIP3    H114643   2.202   6.551   5.333
 4893TIP3    H214644   2.111   6.479   5.236
 4894TIP3   OH214645   5.487   1.743   4.785
 4894TIP3    H114646   5.445   1.753   4.870
 4894TIP3    H214647   5.415   1.741   4.722
 4895TIP3   OH214648   5.114   6.751   1.674
 4895TIP3    H114649   5.107   6.819   1.740
 4895TIP3    H214650   5.025   6.714   1.668
 4896TIP3   OH214651   4.196   5.703   2.863
 4896TIP3    H114652   4.218   5.691   2.771
 4896TIP3    H214653   4.107   5.738   2.862
 4897TIP3   OH214654   5.068   1.288   0.376
 4897TIP3    H114655   5.115   1.371   0.385
 4897TIP3    H214656   5.118   1.226   0.429
 4898TIP3   OH214657   2.638   4.563   2.811
 4898TIP3    H114658   2.639   4.488   2.870
 4898TIP3    H214659   2.612   4.528   2.726
 4899TIP3   OH214660   6.969   1.893   5.837
 4899TIP3    H114661   6.893   1.952   5.840
 4899TIP3    H214662   6.950   1.833   5.765
 4900TIP3   OH214663   0.807   3.857   3.983
 4900TIP3    H114664   0.866   3.831   3.913
 4900TIP3    H214665   0.833   3.947   4.005
 4901TIP3   OH214666   4.536   3.532   3.729
 4901TIP3    H114667   4.559   3.526   3.822
 4901TIP3    H214668   4.525   3.626   3.714
 4902TIP3   OH214669   4.054   5.288   4.515
 4902TIP3    H114670   4.067   5.231   4.439
 4902TIP3    H214671   4.105   5.366   4.495
 4903TIP3   OH214672   4.654   4.801   0.050
 4903TIP3    H114673   4.680   4.891   0.071
 4903TIP3    H214674   4.681   4.750   0.127
 4904TIP3   OH214675   5.339   6.088   1.545
 4904TIP3    H114676   5.315   6.057   1.632
 4904TIP3    H214677   5.324   6.013   1.488
 4905TIP3   OH214678   6.999   4.756   0.459
 4905TIP3    H114679   7.047   4.813   0.399
 4905TIP3    H214680   6.914   4.744   0.417
 4906TIP3   OH214681   3.352   0.507   3.408
 4906TIP3    H114682   3.277   0.518   3.466
 4906TIP3    H214683   3.325   0.438   3.347
 4907TIP3   OH214684   0.318   2.040   1.415
 4907TIP3    H114685   0.286   2.068   1.330
 4907TIP3    H214686   0.266   2.090   1.478
 4908TIP3   OH214687   2.583   4.494   3.873
 4908TIP3    H114688   2.511   4.438   3.903
 4908TIP3    H214689   2.624   4.445   3.801
 4909TIP3   OH214690   3.913   4.848   4.413
 4909TIP3    H114691   3.935   4.856   4.321
 4909TIP3    H214692   3.995   4.862   4.459
 4910TIP3   OH214693   2.519   1.033   0.457
 4910TIP3    H114694   2.432   1.067   0.479
 4910TIP3    H214695   2.509   1.000   0.367
 4911TIP3   OH214696   5.066   2.871   1.019
 4911TIP3    H114697   5.037   2.933   0.953
 4911TIP3    H214698   5.121   2.809   0.971
 4912TIP3   OH214699   0.304   2.993   1.257
 4912TIP3    H114700   0.259   3.014   1.339
 4912TIP3    H214701   0.397   3.011   1.275
 4913TIP3   OH214702   1.066   6.281   4.751
 4913TIP3    H114703   0.991   6.252   4.699
 4913TIP3    H214704   1.027   6.333   4.822
 4914TIP3   OH214705   2.824   6.353   1.188
 4914TIP3    H114706   2.878   6.432   1.192
 4914TIP3    H214707   2.739   6.380   1.222
 4915TIP3   OH214708   6.969   2.443   4.797
 4915TIP3    H114709   6.891   2.419   4.748
 4915TIP3    H214710   6.995   2.528   4.760
 4916TIP3   OH214711   5.415   6.384   2.183
 4916TIP3    H114712   5.331   6.365   2.224
 4916TIP3    H214713   5.478   6.382   2.255
 4917TIP3   OH214714   4.844   4.426   1.689
 4917TIP3    H114715   4.815   4.441   1.599
 4917TIP3    H214716   4.815   4.338   1.710
 4918TIP3   OH214717   6.680   3.578   0.814
 4918TIP3    H114718   6.671   3.664   0.855
 4918TIP3    H214719   6.590   3.547   0.803
 4919TIP3   OH214720   2.373   5.273   5.723
 4919TIP3    H114721   2.337   5.189   5.752
 4919TIP3    H214722   2.297   5.323   5.694
 4920TIP3   OH214723   2.780   5.892   4.948
 4920TIP3    H114724   2.693   5.878   4.986
 4920TIP3    H214725   2.840   5.873   5.019
 4921TIP3   OH214726   7.259   6.345   4.830
 4921TIP3    H114727   7.189   6.376   4.773
 4921TIP3    H214728   7.266   6.251   4.812
 4922TIP3   OH214729   0.728   3.863   3.157
 4922TIP3    H114730   0.736   3.953   3.126
 4922TIP3    H214731   0.712   3.871   3.251
 4923TIP3   OH214732   5.572   2.047   1.073
 4923TIP3    H114733   5.538   2.011   0.992
 4923TIP3    H214734   5.643   2.105   1.046
 4924TIP3   OH214735   5.240   4.746   2.686
 4924TIP3    H114736   5.262   4.824   2.737
 4924TIP3    H214737   5.151   4.761   2.656
 4925TIP3   OH214738   0.554   4.843   5.881
 4925TIP3    H114739   0.557   4.882   5.968
 4925TIP3    H214740   0.478   4.784   5.884
 4926TIP3   OH214741   1.165   0.232   3.421
 4926TIP3    H114742   1.258   0.225   3.399
 4926TIP3    H214743   1.131   0.300   3.362
 4927TIP3   OH214744   4.292   5.101   4.640
 4927TIP3    H114745   4.278   5.175   4.698
 4927TIP3    H214746   4.339   5.138   4.565
 4928TIP3   OH214747   6.445   2.055   5.534
 4928TIP3    H114748   6.505   2.030   5.605
 4928TIP3    H214749   6.444   2.150   5.536
 4929TIP3   OH214750   1.712   3.174   1.931
 4929TIP3    H114751   1.731   3.112   1.861
 4929TIP3    H214752   1.793   3.176   1.983
 4930TIP3   OH214753   7.151   5.280   1.873
 4930TIP3    H114754   7.160   5.348   1.806
 4930TIP3    H214755   7.153   5.198   1.823
 4931TIP3   OH214756   2.887   4.274   2.744
 4931TIP3    H114757   2.937   4.258   2.824
 4931TIP3    H214758   2.946   4.247   2.674
 4932TIP3   OH214759   3.376   1.765   5.296
 4932TIP3    H114760   3.392   1.686   5.347
 4932TIP3    H214761   3.364   1.834   5.361
 4933TIP3   OH214762   3.008   1.987   4.870
 4933TIP3    H114763   3.072   2.054   4.845
 4933TIP3    H214764   3.032   1.964   4.960
 4934TIP3   OH214765   6.833   2.508   3.167
 4934TIP3    H114766   6.922   2.543   3.171
 4934TIP3    H214767   6.811   2.511   3.074
 4935TIP3   OH214768   5.097   3.643   3.424
 4935TIP3    H114769   5.063   3.558   3.401
 4935TIP3    H214770   5.126   3.682   3.342
 4936TIP3   OH214771   2.617   2.047   5.262
 4936TIP3    H114772   2.621   2.052   5.358
 4936TIP3    H214773   2.595   1.956   5.244
 4937TIP3   OH214774   3.307   1.412   1.858
 4937TIP3    H114775   3.317   1.400   1.952
 4937TIP3    H214776   3.244   1.345   1.831
 4938TIP3   OH214777   3.873   3.415   4.390
 4938TIP3    H114778   3.966   3.435   4.401
 4938TIP3    H214779   3.841   3.402   4.480
 4939TIP3   OH214780   4.844   2.619   3.997
 4939TIP3    H114781   4.910   2.605   4.065
 4939TIP3    H214782   4.788   2.689   4.031
 4940TIP3   OH214783   7.155   3.114   5.402
 4940TIP3    H114784   7.158   3.070   5.487
 4940TIP3    H214785   7.178   3.046   5.339
 4941TIP3   OH214786   4.535   2.921   5.606
 4941TIP3    H114787   4.595   2.909   5.679
 4941TIP3    H214788   4.496   3.007   5.621
 4942TIP3   OH214789   2.023   5.411   2.463
 4942TIP3    H114790   1.945   5.448   2.422
 4942TIP3    H214791   2.095   5.463   2.427
 4943TIP3   OH214792   2.673   4.891   4.549
 4943TIP3    H114793   2.756   4.860   4.513
 4943TIP3    H214794   2.628   4.812   4.579
 4944TIP3   OH214795   1.502   1.497   3.160
 4944TIP3    H114796   1.424   1.502   3.215
 4944TIP3    H214797   1.527   1.589   3.145
 4945TIP3   OH214798   0.277   5.156   3.602
 4945TIP3    H114799   0.294   5.097   3.675
 4945TIP3    H214800   0.321   5.115   3.528
 4946TIP3   OH214801   2.534   6.069   3.565
 4946TIP3    H114802   2.459   6.030   3.521
 4946TIP3    H214803   2.501   6.096   3.651
 4947TIP3   OH214804   4.621   4.842   4.935
 4947TIP3    H114805   4.681   4.783   4.889
 4947TIP3    H214806   4.545   4.849   4.877
 4948TIP3   OH214807   2.141   6.168   0.824
 4948TIP3    H114808   2.172   6.079   0.806
 4948TIP3    H214809   2.201   6.224   0.775
 4949TIP3   OH214810   0.791   2.049   1.867
 4949TIP3    H114811   0.696   2.034   1.865
 4949TIP3    H214812   0.818   2.023   1.955
 4950TIP3   OH214813   2.943   2.848   0.560
 4950TIP3    H114814   3.021   2.864   0.508
 4950TIP3    H214815   2.952   2.906   0.636
 4951TIP3   OH214816   6.924   0.161   1.795
 4951TIP3    H114817   6.935   0.216   1.718
 4951TIP3    H214818   6.902   0.222   1.865
 4952TIP3   OH214819   4.688   3.891   2.535
 4952TIP3    H114820   4.634   3.968   2.516
 4952TIP3    H214821   4.626   3.827   2.569
 4953TIP3   OH214822   5.909   3.579   5.134
 4953TIP3    H114823   5.878   3.546   5.049
 4953TIP3    H214824   5.900   3.674   5.128
 4954TIP3   OH214825   3.174   5.916   4.810
 4954TIP3    H114826   3.133   5.975   4.873
 4954TIP3    H214827   3.267   5.919   4.831
 4955TIP3   OH214828   1.544   0.070   0.430
 4955TIP3    H114829   1.577   0.158   0.412
 4955TIP3    H214830   1.450   0.076   0.413
 4956TIP3   OH214831   6.677   5.572   5.534
 4956TIP3    H114832   6.606   5.614   5.583
 4956TIP3    H214833   6.649   5.480   5.526
 4957TIP3   OH214834   0.762   0.061   1.662
 4957TIP3    H114835   0.797   0.130   1.605
 4957TIP3    H214836   0.788  -0.020   1.619
 4958TIP3   OH214837   4.325   3.766   1.314
 4958TIP3    H114838   4.412   3.733   1.335
 4958TIP3    H214839   4.341   3.850   1.272
 4959TIP3   OH214840   0.537   1.307   0.230
 4959TIP3    H114841   0.443   1.312   0.217
 4959TIP3    H214842   0.557   1.213   0.222
 4960TIP3   OH214843   1.384   1.909   1.437
 4960TIP3    H114844   1.370   1.941   1.348
 4960TIP3    H214845   1.308   1.855   1.456
 4961TIP3   OH214846   7.012   5.669   4.446
 4961TIP3    H114847   6.925   5.685   4.484
 4961TIP3    H214848   7.072   5.674   4.521
 4962TIP3   OH214849   3.918   6.112   4.781
 4962TIP3    H114850   4.011   6.128   4.764
 4962TIP3    H214851   3.916   6.070   4.867
 4963TIP3   OH214852   5.643   2.975   4.422
 4963TIP3    H114853   5.682   3.045   4.475
 4963TIP3    H214854   5.570   3.018   4.376
 4964TIP3   OH214855   3.582   3.559   0.679
 4964TIP3    H114856   3.517   3.627   0.697
 4964TIP3    H214857   3.554   3.521   0.595
 4965TIP3   OH214858   2.372   6.387   0.203
 4965TIP3    H114859   2.375   6.458   0.139
 4965TIP3    H214860   2.292   6.339   0.181
 4966TIP3   OH214861   3.737   3.628   4.942
 4966TIP3    H114862   3.672   3.596   5.004
 4966TIP3    H214863   3.687   3.652   4.864
 4967TIP3   OH214864   3.820   3.761   0.862
 4967TIP3    H114865   3.761   3.804   0.800
 4967TIP3    H214866   3.766   3.743   0.939
 4968TIP3   OH214867   0.252   5.384   0.333
 4968TIP3    H114868   0.292   5.345   0.255
 4968TIP3    H214869   0.218   5.468   0.302
 4969TIP3   OH214870   4.196   4.739   1.486
 4969TIP3    H114871   4.125   4.799   1.509
 4969TIP3    H214872   4.187   4.726   1.391
 4970TIP3   OH214873   0.505   4.021   2.098
 4970TIP3    H114874   0.473   4.063   2.018
 4970TIP3    H214875   0.426   4.002   2.149
 4971TIP3   OH214876   1.908   6.250   0.678
 4971TIP3    H114877   1.914   6.261   0.583
 4971TIP3    H214878   1.996   6.226   0.705
 4972TIP3   OH214879   2.565   2.704   4.317
 4972TIP3    H114880   2.476   2.738   4.331
 4972TIP3    H214881   2.618   2.783   4.304
 4973TIP3   OH214882   2.781   4.947   4.804
 4973TIP3    H114883   2.874   4.936   4.787
 4973TIP3    H214884   2.738   4.923   4.722
 4974TIP3   OH214885   1.799   5.686   1.144
 4974TIP3    H114886   1.785   5.705   1.051
 4974TIP3    H214887   1.886   5.723   1.163
 4975TIP3   OH214888   4.790   2.689   0.350
 4975TIP3    H114889   4.819   2.691   0.441
 4975TIP3    H214890   4.696   2.674   0.356
 4976TIP3   OH214891   5.471   3.247   2.749
 4976TIP3    H114892   5.473   3.203   2.664
 4976TIP3    H214893   5.378   3.267   2.764
 4977TIP3   OH214894   5.080   2.060   2.690
 4977TIP3    H114895   5.042   2.143   2.719
 4977TIP3    H214896   5.004   2.006   2.668
 4978TIP3   OH214897   3.508   1.403   1.577
 4978TIP3    H114898   3.419   1.368   1.589
 4978TIP3    H214899   3.526   1.450   1.659
 4979TIP3   OH214900   5.897   1.086   1.323
 4979TIP3    H114901   5.872   1.019   1.387
 4979TIP3    H214902   5.992   1.093   1.331
 4980TIP3   OH214903   2.202   5.790   5.089
 4980TIP3    H114904   2.244   5.852   5.029
 4980TIP3    H214905   2.265   5.780   5.161
 4981TIP3   OH214906   4.301   4.682   1.148
 4981TIP3    H114907   4.312   4.776   1.132
 4981TIP3    H214908   4.207   4.668   1.143
 4982TIP3   OH214909   4.870   1.060   2.150
 4982TIP3    H114910   4.963   1.039   2.155
 4982TIP3    H214911   4.864   1.122   2.077
 4983TIP3   OH214912   3.728   5.877   5.141
 4983TIP3    H114913   3.693   5.793   5.109
 4983TIP3    H214914   3.773   5.914   5.066
 4984TIP3   OH214915   0.054   1.720   3.503
 4984TIP3    H114916  -0.002   1.734   3.579
 4984TIP3    H214917  -0.002   1.738   3.428
 4985TIP3   OH214918   5.203   6.339   1.530
 4985TIP3    H114919   5.257   6.261   1.542
 4985TIP3    H214920   5.127   6.309   1.481
 4986TIP3   OH214921   0.883   3.757   3.724
 4986TIP3    H114922   0.976   3.744   3.742
 4986TIP3    H214923   0.859   3.688   3.663
 4987TIP3   OH214924   6.319   2.333   5.492
 4987TIP3    H114925   6.357   2.359   5.408
 4987TIP3    H214926   6.276   2.249   5.474
 4988TIP3   OH214927   7.033   2.823   3.594
 4988TIP3    H114928   6.957   2.857   3.548
 4988TIP3    H214929   7.104   2.828   3.531
 4989TIP3   OH214930   1.824   0.126   0.115
 4989TIP3    H114931   1.879   0.116   0.037
 4989TIP3    H214932   1.843   0.047   0.167
 4990TIP3   OH214933   5.672   0.414   2.536
 4990TIP3    H114934   5.640   0.359   2.464
 4990TIP3    H214935   5.679   0.354   2.610
 4991TIP3   OH214936   4.694   2.902   5.839
 4991TIP3    H114937   4.788   2.899   5.820
 4991TIP3    H214938   4.687   2.958   5.916
 4992TIP3   OH214939   6.213   5.841   0.622
 4992TIP3    H114940   6.189   5.934   0.625
 4992TIP3    H214941   6.242   5.827   0.532
 4993TIP3   OH214942   1.891   2.444   2.325
 4993TIP3    H114943   1.909   2.356   2.358
 4993TIP3    H214944   1.878   2.432   2.231
 4994TIP3   OH214945   5.954   5.113   5.408
 4994TIP3    H114946   5.933   5.187   5.351
 4994TIP3    H214947   5.872   5.095   5.455
 4995TIP3   OH214948   3.144   4.705   0.288
 4995TIP3    H114949   3.144   4.636   0.222
 4995TIP3    H214950   3.233   4.740   0.287
 4996TIP3   OH214951   6.670   5.958   4.730
 4996TIP3    H114952   6.719   5.883   4.697
 4996TIP3    H214953   6.648   5.934   4.820
 4997TIP3   OH214954   2.356   4.632   4.405
 4997TIP3    H114955   2.281   4.690   4.404
 4997TIP3    H214956   2.363   4.599   4.316
 4998TIP3   OH214957   7.128   2.622   2.433
 4998TIP3    H114958   7.033   2.628   2.419
 4998TIP3    H214959   7.166   2.650   2.350
 4999TIP3   OH214960   4.696   6.477   0.436
 4999TIP3    H114961   4.716   6.386   0.414
 4999TIP3    H214962   4.611   6.473   0.480
 5000TIP3   OH214963   2.494   2.086   4.139
 5000TIP3    H114964   2.519   2.016   4.079
 5000TIP3    H214965   2.408   2.059   4.171
 5001TIP3   OH214966   5.997   1.364   5.863
 5001TIP3    H114967   5.957   1.426   5.802
 5001TIP3    H214968   6.042   1.301   5.807
 5002TIP3   OH214969   0.345   5.913   4.050
 5002TIP3    H114970   0.408   5.967   4.099
 5002TIP3    H214971   0.363   5.932   3.958
 5003TIP3   OH214972   5.491   3.972   2.562
 5003TIP3    H114973   5.554   3.903   2.540
 5003TIP3    H214974   5.478   3.964   2.656
 5004TIP3   OH214975   2.006   4.506   4.761
 5004TIP3    H114976   2.018   4.473   4.672
 5004TIP3    H214977   2.095   4.510   4.798
 5005TIP3   OH214978   7.145   1.546   1.463
 5005TIP3    H114979   7.103   1.474   1.416
 5005TIP3    H214980   7.191   1.504   1.535
 5006TIP3   OH214981   1.780   5.427   1.272
 5006TIP3    H114982   1.817   5.509   1.239
 5006TIP3    H214983   1.780   5.437   1.367
 5007TIP3   OH214984   0.800   6.390   1.200
 5007TIP3    H114985   0.796   6.462   1.263
 5007TIP3    H214986   0.894   6.375   1.187
 5008TIP3   OH214987   1.911   1.085   0.305
 5008TIP3    H114988   1.898   1.093   0.211
 5008TIP3    H214989   1.956   1.002   0.317
 5009TIP3   OH214990   5.528   6.426   4.241
 5009TIP3    H114991   5.527   6.386   4.154
 5009TIP3    H214992   5.588   6.373   4.292
 5010TIP3   OH214993   7.051   2.949   3.091
 5010TIP3    H114994   7.108   2.943   3.014
 5010TIP3    H214995   7.094   3.013   3.148
 5011TIP3   OH214996   1.819   5.812   1.828
 5011TIP3    H114997   1.884   5.765   1.776
 5011TIP3    H214998   1.865   5.836   1.909
 5012TIP3   OH214999   5.730   0.362   1.390
 5012TIP3    H115000   5.768   0.299   1.451
 5012TIP3    H215001   5.746   0.325   1.303
 5013TIP3   OH215002   0.324   2.411   3.359
 5013TIP3    H115003   0.386   2.400   3.287
 5013TIP3    H215004   0.303   2.322   3.387
 5014TIP3   OH215005   0.853   1.983  -0.008
 5014TIP3    H115006   0.867   1.902  -0.057
 5014TIP3    H215007   0.941   2.009   0.021
 5015TIP3   OH215008   0.208   1.719   0.844
 5015TIP3    H115009   0.139   1.759   0.792
 5015TIP3    H215010   0.179   1.629   0.858
 5016TIP3   OH215011   7.129   4.027   0.740
 5016TIP3    H115012   7.143   3.970   0.664
 5016TIP3    H215013   7.176   3.983   0.811
 5017TIP3   OH215014   1.256   3.995   2.105
 5017TIP3    H115015   1.235   4.059   2.172
 5017TIP3    H215016   1.313   3.932   2.149
 5018TIP3   OH215017   6.640   2.498   1.580
 5018TIP3    H115018   6.727   2.525   1.608
 5018TIP3    H215019   6.631   2.536   1.492
 5019TIP3   OH215020   3.585   1.430   0.337
 5019TIP3    H115021   3.674   1.430   0.373
 5019TIP3    H215022   3.538   1.495   0.388
 5020TIP3   OH215023   0.634   4.039   2.389
 5020TIP3    H115024   0.675   3.953   2.394
 5020TIP3    H215025   0.619   4.053   2.295
 5021TIP3   OH215026   1.581   5.114   5.005
 5021TIP3    H115027   1.575   5.207   4.985
 5021TIP3    H215028   1.501   5.095   5.054
 5022TIP3   OH215029   4.199   4.060   0.419
 5022TIP3    H115030   4.265   4.007   0.463
 5022TIP3    H215031   4.229   4.067   0.328
 5023TIP3   OH215032   3.201   3.559   0.670
 5023TIP3    H115033   3.221   3.640   0.622
 5023TIP3    H215034   3.143   3.511   0.612
 5024TIP3   OH215035   2.233   1.875   2.320
 5024TIP3    H115036   2.163   1.813   2.299
 5024TIP3    H215037   2.308   1.820   2.341
 5025TIP3   OH215038   0.692   4.425   5.455
 5025TIP3    H115039   0.751   4.380   5.515
 5025TIP3    H215040   0.615   4.447   5.508
 5026TIP3   OH215041   4.795   6.089   4.925
 5026TIP3    H115042   4.851   6.134   4.987
 5026TIP3    H215043   4.834   6.002   4.916
 5027TIP3   OH215044   6.993   0.671   4.114
 5027TIP3    H115045   7.074   0.651   4.066
 5027TIP3    H215046   6.933   0.701   4.046
 5028TIP3   OH215047   3.309   1.192   2.893
 5028TIP3    H115048   3.372   1.260   2.868
 5028TIP3    H215049   3.312   1.191   2.989
 5029TIP3   OH215050   1.278   2.946   2.580
 5029TIP3    H115051   1.335   2.944   2.503
 5029TIP3    H215052   1.259   3.039   2.594
 5030TIP3   OH215053   4.904   5.855   1.758
 5030TIP3    H115054   4.923   5.918   1.689
 5030TIP3    H215055   4.808   5.855   1.766
 5031TIP3   OH215056   2.988   4.534   3.961
 5031TIP3    H115057   3.079   4.504   3.968
 5031TIP3    H215058   2.936   4.454   3.963
 5032TIP3   OH215059   6.920   1.113   1.229
 5032TIP3    H115060   6.984   1.043   1.244
 5032TIP3    H215061   6.836   1.068   1.224
 5033TIP3   OH215062   1.631   6.305   3.731
 5033TIP3    H115063   1.667   6.393   3.730
 5033TIP3    H215064   1.707   6.248   3.745
 5034TIP3   OH215065   2.260   2.685   4.158
 5034TIP3    H115066   2.293   2.772   4.182
 5034TIP3    H215067   2.324   2.651   4.095
 5035TIP3   OH215068   2.649   5.209   2.527
 5035TIP3    H115069   2.614   5.185   2.613
 5035TIP3    H215070   2.729   5.258   2.546
 5036TIP3   OH215071   3.224   2.496   4.521
 5036TIP3    H115072   3.198   2.532   4.436
 5036TIP3    H215073   3.265   2.570   4.566
 5037TIP3   OH215074   6.844   1.830   0.216
 5037TIP3    H115075   6.935   1.801   0.212
 5037TIP3    H215076   6.844   1.914   0.169
 5038TIP3   OH215077   5.019   0.167   0.232
 5038TIP3    H115078   4.958   0.224   0.279
 5038TIP3    H215079   5.099   0.168   0.285
 5039TIP3   OH215080   0.601   5.775   2.340
 5039TIP3    H115081   0.689   5.756   2.307
 5039TIP3    H215082   0.543   5.726   2.281
 5040TIP3   OH215083   1.041   1.097   4.225
 5040TIP3    H115084   0.971   1.106   4.290
 5040TIP3    H215085   0.995   1.092   4.141
 5041TIP3   OH215086   6.337   6.694   4.396
 5041TIP3    H115087   6.381   6.618   4.434
 5041TIP3    H215088   6.248   6.663   4.376
 5042TIP3   OH215089   2.322   5.742   5.627
 5042TIP3    H115090   2.278   5.822   5.598
 5042TIP3    H215091   2.352   5.701   5.547
 5043TIP3   OH215092   3.510   6.405   1.221
 5043TIP3    H115093   3.592   6.409   1.271
 5043TIP3    H215094   3.457   6.341   1.268
 5044TIP3   OH215095   1.461   0.190   5.443
 5044TIP3    H115096   1.387   0.217   5.497
 5044TIP3    H215097   1.444   0.228   5.357
 5045TIP3   OH215098   6.894   0.811   5.402
 5045TIP3    H115099   6.960   0.751   5.437
 5045TIP3    H215100   6.899   0.800   5.307
 5046TIP3   OH215101   3.879   4.985   3.492
 5046TIP3    H115102   3.890   5.032   3.410
 5046TIP3    H215103   3.802   4.930   3.478
 5047TIP3   OH215104   2.118   4.398   5.174
 5047TIP3    H115105   2.063   4.423   5.248
 5047TIP3    H215106   2.175   4.474   5.160
 5048TIP3   OH215107   0.291   0.340   1.185
 5048TIP3    H115108   0.288   0.252   1.147
 5048TIP3    H215109   0.325   0.326   1.274
 5049TIP3   OH215110   7.141   6.557   1.419
 5049TIP3    H115111   7.121   6.464   1.430
 5049TIP3    H215112   7.101   6.599   1.495
 5050TIP3   OH215113   1.588   0.360   1.116
 5050TIP3    H115114   1.631   0.378   1.200
 5050TIP3    H215115   1.649   0.396   1.051
 5051TIP3   OH215116   4.183   3.183   0.210
 5051TIP3    H115117   4.198   3.160   0.118
 5051TIP3    H215118   4.207   3.104   0.258
 5052TIP3   OH215119   1.559   2.398   4.398
 5052TIP3    H115120   1.489   2.445   4.352
 5052TIP3    H215121   1.640   2.434   4.362
 5053TIP3   OH215122   5.417   3.444   5.201
 5053TIP3    H115123   5.364   3.432   5.280
 5053TIP3    H215124   5.441   3.536   5.202
 5054TIP3   OH215125   6.080   1.110   5.720
 5054TIP3    H115126   6.003   1.088   5.774
 5054TIP3    H215127   6.055   1.085   5.632
 5055TIP3   OH215128   6.975   0.580   5.245
 5055TIP3    H115129   7.019   0.517   5.302
 5055TIP3    H215130   7.045   0.617   5.192
 5056TIP3   OH215131   4.619   0.338   0.215
 5056TIP3    H115132   4.658   0.341   0.302
 5056TIP3    H215133   4.691   0.359   0.156
 5057TIP3   OH215134   3.538   3.903   2.664
 5057TIP3    H115135   3.535   3.883   2.758
 5057TIP3    H215136   3.456   3.949   2.647
 5058TIP3   OH215137   1.370   4.387   2.279
 5058TIP3    H115138   1.317   4.417   2.205
 5058TIP3    H215139   1.308   4.380   2.352
 5059TIP3   OH215140   4.957   6.702   0.713
 5059TIP3    H115141   4.953   6.664   0.625
 5059TIP3    H215142   4.940   6.628   0.772
 5060TIP3   OH215143   5.914   5.711   3.938
 5060TIP3    H115144   6.001   5.751   3.939
 5060TIP3    H215145   5.891   5.702   4.031
 5061TIP3   OH215146   4.216   4.134   2.639
 5061TIP3    H115147   4.194   4.053   2.592
 5061TIP3    H215148   4.308   4.151   2.618
 5062TIP3   OH215149   0.485   4.288   0.084
 5062TIP3    H115150   0.564   4.269   0.034
 5062TIP3    H215151   0.452   4.202   0.110
 5063TIP3   OH215152   6.288   0.280   5.788
 5063TIP3    H115153   6.344   0.226   5.732
 5063TIP3    H215154   6.218   0.220   5.816
 5064TIP3   OH215155   6.885   6.510   4.530
 5064TIP3    H115156   6.865   6.591   4.576
 5064TIP3    H215157   6.941   6.537   4.457
 5065TIP3   OH215158   6.042   1.894   5.318
 5065TIP3    H115159   5.949   1.914   5.307
 5065TIP3    H215160   6.076   1.889   5.229
 5066TIP3   OH215161   2.897   5.249   3.122
 5066TIP3    H115162   2.890   5.254   3.026
 5066TIP3    H215163   2.844   5.173   3.145
 5067TIP3   OH215164   6.862   6.575   3.068
 5067TIP3    H115165   6.804   6.561   2.993
 5067TIP3    H215166   6.934   6.514   3.054
 5068TIP3   OH215167   2.834   2.313   0.334
 5068TIP3    H115168   2.828   2.351   0.247
 5068TIP3    H215169   2.770   2.362   0.387
 5069TIP3   OH215170   3.254   0.821   4.873
 5069TIP3    H115171   3.199   0.744   4.856
 5069TIP3    H215172   3.274   0.856   4.786
 5070TIP3   OH215173   2.715   4.291   5.592
 5070TIP3    H115174   2.640   4.259   5.642
 5070TIP3    H215175   2.763   4.213   5.566
 5071TIP3   OH215176   4.308   6.061   0.355
 5071TIP3    H115177   4.307   6.105   0.270
 5071TIP3    H215178   4.220   6.026   0.365
 5072TIP3   OH215179   1.551   1.188   0.999
 5072TIP3    H115180   1.554   1.209   0.906
 5072TIP3    H215181   1.599   1.105   1.006
 5073TIP3   OH215182   0.951   0.876   2.790
 5073TIP3    H115183   0.889   0.950   2.784
 5073TIP3    H215184   0.998   0.878   2.706
 5074TIP3   OH215185   4.952   4.657   3.948
 5074TIP3    H115186   4.903   4.739   3.947
 5074TIP3    H215187   5.022   4.669   3.883
 5075TIP3   OH215188   0.375   5.493   5.533
 5075TIP3    H115189   0.369   5.438   5.455
 5075TIP3    H215190   0.311   5.562   5.519
 5076TIP3   OH215191   5.222   4.580   4.802
 5076TIP3    H115192   5.305   4.626   4.818
 5076TIP3    H215193   5.227   4.502   4.857
 5077TIP3   OH215194   3.254   5.794   4.249
 5077TIP3    H115195   3.273   5.728   4.183
 5077TIP3    H215196   3.210   5.745   4.319
 5078TIP3   OH215197   4.769   6.723   3.294
 5078TIP3    H115198   4.846   6.666   3.286
 5078TIP3    H215199   4.804   6.812   3.294
 5079TIP3   OH215200   0.161   2.465   2.235
 5079TIP3    H115201   0.071   2.492   2.251
 5079TIP3    H215202   0.169   2.379   2.276
 5080TIP3   OH215203   4.039   2.769   0.279
 5080TIP3    H115204   3.983   2.735   0.348
 5080TIP3    H215205   4.037   2.864   0.292
 5081TIP3   OH215206   5.779   5.889   1.513
 5081TIP3    H115207   5.843   5.955   1.538
 5081TIP3    H215208   5.831   5.814   1.485
 5082TIP3   OH215209   1.787   2.270   3.999
 5082TIP3    H115210   1.867   2.306   3.961
 5082TIP3    H215211   1.811   2.248   4.090
 5083TIP3   OH215212   5.672   6.519   4.960
 5083TIP3    H115213   5.635   6.478   4.882
 5083TIP3    H215214   5.660   6.454   5.029
 5084TIP3   OH215215   5.461   5.487   1.759
 5084TIP3    H115216   5.404   5.545   1.709
 5084TIP3    H215217   5.417   5.402   1.757
 5085TIP3   OH215218   0.821   3.631   4.921
 5085TIP3    H115219   0.822   3.547   4.875
 5085TIP3    H215220   0.910   3.665   4.912
 5086TIP3   OH215221   3.757   5.798   4.800
 5086TIP3    H115222   3.677   5.747   4.812
 5086TIP3    H215223   3.739   5.852   4.723
 5087TIP3   OH215224   1.567   5.952   1.646
 5087TIP3    H115225   1.524   5.892   1.586
 5087TIP3    H215226   1.656   5.919   1.654
 5088TIP3   OH215227   5.774   2.826   5.830
 5088TIP3    H115228   5.708   2.804   5.765
 5088TIP3    H215229   5.813   2.742   5.855
 5089TIP3   OH215230   1.684   4.324   4.019
 5089TIP3    H115231   1.642   4.289   4.098
 5089TIP3    H215232   1.771   4.352   4.049
 5090TIP3   OH215233   0.841   2.756   3.168
 5090TIP3    H115234   0.893   2.750   3.088
 5090TIP3    H215235   0.829   2.666   3.196
 5091TIP3   OH215236   3.981   4.015   4.834
 5091TIP3    H115237   3.895   4.037   4.798
 5091TIP3    H215238   3.965   3.935   4.885
 5092TIP3   OH215239   0.723   4.275   0.805
 5092TIP3    H115240   0.727   4.190   0.760
 5092TIP3    H215241   0.726   4.340   0.735
 5093TIP3   OH215242   4.431   2.632   3.870
 5093TIP3    H115243   4.434   2.627   3.965
 5093TIP3    H215244   4.386   2.714   3.852
 5094TIP3   OH215245   4.460   3.127   1.424
 5094TIP3    H115246   4.415   3.094   1.501
 5094TIP3    H215247   4.482   3.049   1.373
 5095TIP3   OH215248   6.967   3.951   5.539
 5095TIP3    H115249   6.914   3.874   5.520
 5095TIP3    H215250   6.922   4.023   5.494
 5096TIP3   OH215251   5.607   5.892   2.330
 5096TIP3    H115252   5.622   5.798   2.321
 5096TIP3    H215253   5.636   5.913   2.419
 5097TIP3   OH215254   0.294   2.145   3.512
 5097TIP3    H115255   0.307   2.119   3.604
 5097TIP3    H215256   0.258   2.066   3.471
 5098TIP3   OH215257   0.332   4.457   2.477
 5098TIP3    H115258   0.274   4.508   2.420
 5098TIP3    H215259   0.315   4.492   2.565
 5099TIP3   OH215260   0.454   2.693   4.796
 5099TIP3    H115261   0.366   2.721   4.770
 5099TIP3    H215262   0.513   2.748   4.744
 5100TIP3   OH215263   4.320   1.928   3.212
 5100TIP3    H115264   4.367   2.004   3.178
 5100TIP3    H215265   4.237   1.926   3.165
 5101TIP3   OH215266   5.692   6.477   1.668
 5101TIP3    H115267   5.651   6.537   1.606
 5101TIP3    H215268   5.621   6.418   1.694
 5102TIP3   OH215269   5.319   1.600   5.325
 5102TIP3    H115270   5.295   1.508   5.338
 5102TIP3    H215271   5.246   1.637   5.274
 5103TIP3   OH215272   3.283   3.321   4.159
 5103TIP3    H115273   3.216   3.388   4.148
 5103TIP3    H215274   3.236   3.246   4.196
 5104TIP3   OH215275   4.896   3.035   0.096
 5104TIP3    H115276   4.974   3.073   0.137
 5104TIP3    H215277   4.825   3.095   0.119
 5105TIP3   OH215278   2.274   0.633   1.575
 5105TIP3    H115279   2.320   0.717   1.563
 5105TIP3    H215280   2.306   0.578   1.504
 5106TIP3   OH215281   5.910   6.141   4.849
 5106TIP3    H115282   5.834   6.109   4.897
 5106TIP3    H215283   5.950   6.206   4.907
 5107TIP3   OH215284   4.160   2.467   2.526
 5107TIP3    H115285   4.149   2.502   2.438
 5107TIP3    H215286   4.130   2.537   2.584
 5108TIP3   OH215287   6.583   4.762   1.105
 5108TIP3    H115288   6.629   4.846   1.101
 5108TIP3    H215289   6.599   4.730   1.194
 5109TIP3   OH215290   5.572   0.873   2.492
 5109TIP3    H115291   5.541   0.907   2.576
 5109TIP3    H215292   5.630   0.801   2.515
 5110TIP3   OH215293   4.457   2.676   1.127
 5110TIP3    H115294   4.445   2.599   1.071
 5110TIP3    H215295   4.383   2.674   1.187
 5111TIP3   OH215296   2.732   3.762   5.388
 5111TIP3    H115297   2.730   3.854   5.414
 5111TIP3    H215298   2.640   3.733   5.394
 5112TIP3   OH215299   0.955   4.275   0.944
 5112TIP3    H115300   0.924   4.320   1.022
 5112TIP3    H215301   0.877   4.266   0.889
 5113TIP3   OH215302   1.699   2.741   2.080
 5113TIP3    H115303   1.747   2.823   2.076
 5113TIP3    H215304   1.713   2.708   2.168
 5114TIP3   OH215305   5.511   1.027   4.426
 5114TIP3    H115306   5.514   1.065   4.514
 5114TIP3    H215307   5.511   1.103   4.368
 5115TIP3   OH215308   2.444   5.111   1.603
 5115TIP3    H115309   2.479   5.021   1.605
 5115TIP3    H215310   2.416   5.127   1.693
 5116TIP3   OH215311   7.178   5.773   0.198
 5116TIP3    H115312   7.190   5.867   0.192
 5116TIP3    H215313   7.167   5.756   0.292
 5117TIP3   OH215314   2.373   5.187   0.479
 5117TIP3    H115315   2.326   5.117   0.524
 5117TIP3    H215316   2.465   5.169   0.495
 5118TIP3   OH215317   1.691   0.044   1.540
 5118TIP3    H115318   1.674   0.037   1.634
 5118TIP3    H215319   1.751  -0.028   1.521
 5119TIP3   OH215320   4.813   6.348   1.673
 5119TIP3    H115321   4.778   6.424   1.719
 5119TIP3    H215322   4.794   6.365   1.580
 5120TIP3   OH215323   5.129   3.918   3.805
 5120TIP3    H115324   5.047   3.871   3.821
 5120TIP3    H215325   5.188   3.850   3.772
 5121TIP3   OH215326   2.595   6.069   1.201
 5121TIP3    H115327   2.676   6.021   1.184
 5121TIP3    H215328   2.557   6.083   1.114
 5122TIP3   OH215329   0.836   3.283   2.071
 5122TIP3    H115330   0.781   3.226   2.125
 5122TIP3    H215331   0.775   3.343   2.028
 5123TIP3   OH215332   3.421  -0.021   4.952
 5123TIP3    H115333   3.492   0.036   4.981
 5123TIP3    H215334   3.452  -0.056   4.868
 5124TIP3   OH215335   5.249   3.318   5.370
 5124TIP3    H115336   5.243   3.378   5.444
 5124TIP3    H215337   5.163   3.276   5.366
 5125TIP3   OH215338   6.877   5.575   3.018
 5125TIP3    H115339   6.904   5.496   3.064
 5125TIP3    H215340   6.853   5.637   3.087
 5126TIP3   OH215341   0.826   3.272   0.288
 5126TIP3    H115342   0.805   3.363   0.310
 5126TIP3    H215343   0.751   3.222   0.321
 5127TIP3   OH215344   5.063   1.524   0.561
 5127TIP3    H115345   5.048   1.598   0.619
 5127TIP3    H215346   5.132   1.473   0.603
 5128TIP3   OH215347   5.506   2.450   0.120
 5128TIP3    H115348   5.499   2.502   0.040
 5128TIP3    H215349   5.450   2.374   0.104
 5129TIP3   OH215350   4.273   1.635   0.134
 5129TIP3    H115351   4.259   1.693   0.209
 5129TIP3    H215352   4.358   1.594   0.151
 5130TIP3   OH215353  -0.023   5.313   5.923
 5130TIP3    H115354   0.039   5.315   5.997
 5130TIP3    H215355   0.025   5.353   5.851
 5131TIP3   OH215356   5.296   0.608   2.021
 5131TIP3    H115357   5.266   0.682   2.074
 5131TIP3    H215358   5.216   0.563   1.993
 5132TIP3   OH215359   3.291   2.950   1.258
 5132TIP3    H115360   3.347   3.020   1.225
 5132TIP3    H215361   3.352   2.880   1.281
 5133TIP3   OH215362   1.358   4.582   2.889
 5133TIP3    H115363   1.391   4.574   2.799
 5133TIP3    H215364   1.429   4.551   2.944
 5134TIP3   OH215365   4.621   1.416   1.474
 5134TIP3    H115366   4.526   1.408   1.467
 5134TIP3    H215367   4.635   1.476   1.547
 5135TIP3   OH215368   0.119   5.321   1.358
 5135TIP3    H115369   0.208   5.289   1.372
 5135TIP3    H215370   0.063   5.250   1.390
 5136TIP3   OH215371   1.374   6.154   3.059
 5136TIP3    H115372   1.444   6.116   3.005
 5136TIP3    H215373   1.398   6.246   3.068
 5137TIP3   OH215374   2.669   3.460   4.907
 5137TIP3    H115375   2.757   3.489   4.880
 5137TIP3    H215376   2.659   3.494   4.996
 5138TIP3   OH215377   5.878   6.568   1.263
 5138TIP3    H115378   5.883   6.580   1.358
 5138TIP3    H215379   5.795   6.522   1.249
 5139TIP3   OH215380   3.167   0.755   5.738
 5139TIP3    H115381   3.209   0.835   5.769
 5139TIP3    H215382   3.196   0.688   5.799
 5140TIP3   OH215383   3.075   2.199   0.415
 5140TIP3    H115384   3.099   2.173   0.504
 5140TIP3    H215385   3.000   2.257   0.426
 5141TIP3   OH215386   5.585   3.066   1.635
 5141TIP3    H115387   5.664   3.083   1.584
 5141TIP3    H215388   5.617   3.033   1.719
 5142TIP3   OH215389   2.912   0.079   3.874
 5142TIP3    H115390   2.989   0.093   3.930
 5142TIP3    H215391   2.852   0.028   3.929
 5143TIP3   OH215392   3.665   2.439   4.628
 5143TIP3    H115393   3.667   2.363   4.569
 5143TIP3    H215394   3.665   2.401   4.716
 5144TIP3   OH215395   3.607   5.352   1.086
 5144TIP3    H115396   3.593   5.286   1.018
 5144TIP3    H215397   3.546   5.423   1.063
 5145TIP3   OH215398   1.057   6.501   1.184
 5145TIP3    H115399   1.100   6.564   1.241
 5145TIP3    H215400   1.088   6.522   1.096
 5146TIP3   OH215401   6.122   5.649   0.921
 5146TIP3    H115402   6.202   5.597   0.922
 5146TIP3    H215403   6.144   5.726   0.868
 5147TIP3   OH215404   6.779   2.694   0.791
 5147TIP3    H115405   6.859   2.695   0.843
 5147TIP3    H215406   6.810   2.685   0.700
 5148TIP3   OH215407   1.309   4.610   3.709
 5148TIP3    H115408   1.381   4.617   3.772
 5148TIP3    H215409   1.304   4.697   3.669
 5149TIP3   OH215410   3.515   4.675   1.130
 5149TIP3    H115411   3.478   4.645   1.212
 5149TIP3    H215412   3.509   4.600   1.071
 5150TIP3   OH215413   6.816   4.956   2.383
 5150TIP3    H115414   6.788   4.896   2.453
 5150TIP3    H215415   6.755   5.029   2.389
 5151TIP3   OH215416   6.935   5.989   1.058
 5151TIP3    H115417   6.906   5.943   1.137
 5151TIP3    H215418   7.028   6.004   1.072
 5152TIP3   OH215419   0.388   6.624   4.979
 5152TIP3    H115420   0.324   6.679   5.024
 5152TIP3    H215421   0.358   6.534   4.997
 5153TIP3   OH215422   3.428   5.043   0.237
 5153TIP3    H115423   3.371   4.967   0.248
 5153TIP3    H215424   3.372   5.118   0.256
 5154TIP3   OH215425   3.484   2.148   5.623
 5154TIP3    H115426   3.445   2.193   5.548
 5154TIP3    H215427   3.429   2.173   5.697
 5155TIP3   OH215428   3.028   1.465   3.600
 5155TIP3    H115429   3.106   1.468   3.656
 5155TIP3    H215430   2.963   1.517   3.647
 5156TIP3   OH215431   0.106   5.659   0.525
 5156TIP3    H115432   0.152   5.690   0.447
 5156TIP3    H215433   0.175   5.647   0.590
 5157TIP3   OH215434   1.241   2.228   4.077
 5157TIP3    H115435   1.212   2.258   3.991
 5157TIP3    H215436   1.328   2.266   4.088
 5158TIP3   OH215437   6.213   6.078   3.152
 5158TIP3    H115438   6.250   6.100   3.238
 5158TIP3    H215439   6.245   5.989   3.134
 5159TIP3   OH215440   3.958   2.616   1.758
 5159TIP3    H115441   3.900   2.541   1.771
 5159TIP3    H215442   4.044   2.578   1.741
 5160TIP3   OH215443   2.283   2.535   2.253
 5160TIP3    H115444   2.219   2.598   2.221
 5160TIP3    H215445   2.353   2.589   2.290
 5161TIP3   OH215446   4.774   6.724   4.771
 5161TIP3    H115447   4.686   6.752   4.744
 5161TIP3    H215448   4.783   6.757   4.860
 5162TIP3   OH215449   4.107   5.906   2.571
 5162TIP3    H115450   4.030   5.850   2.566
 5162TIP3    H215451   4.179   5.846   2.589
 5163TIP3   OH215452   1.447   6.224   0.979
 5163TIP3    H115453   1.478   6.141   0.942
 5163TIP3    H215454   1.352   6.218   0.974
 5164TIP3   OH215455   4.563   1.469   0.442
 5164TIP3    H115456   4.652   1.468   0.407
 5164TIP3    H215457   4.527   1.553   0.413
 5165TIP3   OH215458   2.762   2.837   0.351
 5165TIP3    H115459   2.820   2.831   0.427
 5165TIP3    H215460   2.686   2.784   0.375
 5166TIP3   OH215461   2.071   5.150   4.957
 5166TIP3    H115462   2.134   5.195   5.013
 5166TIP3    H215463   1.987   5.158   5.004
 5167TIP3   OH215464   3.945   4.028   0.743
 5167TIP3    H115465   3.957   4.102   0.684
 5167TIP3    H215466   3.853   4.004   0.733
 5168TIP3   OH215467   7.007   3.734   3.788
 5168TIP3    H115468   7.056   3.668   3.836
 5168TIP3    H215469   6.958   3.685   3.722
 5169TIP3   OH215470   3.358   1.327   1.166
 5169TIP3    H115471   3.332   1.316   1.257
 5169TIP3    H215472   3.452   1.310   1.166
 5170TIP3   OH215473   4.573   2.358   4.692
 5170TIP3    H115474   4.627   2.281   4.708
 5170TIP3    H215475   4.514   2.361   4.767
 5171TIP3   OH215476   5.459   3.814   0.111
 5171TIP3    H115477   5.549   3.838   0.132
 5171TIP3    H215478   5.406   3.885   0.147
 5172TIP3   OH215479   5.877   4.990   0.387
 5172TIP3    H115480   5.852   4.952   0.303
 5172TIP3    H215481   5.973   4.995   0.384
 5173TIP3   OH215482   3.424   0.257   5.572
 5173TIP3    H115483   3.510   0.280   5.607
 5173TIP3    H215484   3.427   0.287   5.481
 5174TIP3   OH215485   1.250   4.723   0.745
 5174TIP3    H115486   1.228   4.630   0.738
 5174TIP3    H215487   1.177   4.760   0.795
 5175TIP3   OH215488   1.444   6.199   0.421
 5175TIP3    H115489   1.425   6.224   0.330
 5175TIP3    H215490   1.512   6.261   0.449
 5176TIP3   OH215491   5.138   0.747   3.881
 5176TIP3    H115492   5.052   0.789   3.890
 5176TIP3    H215493   5.131   0.665   3.931
 5177TIP3   OH215494   5.658   4.796   4.572
 5177TIP3    H115495   5.612   4.847   4.639
 5177TIP3    H215496   5.696   4.861   4.514
 5178TIP3   OH215497   0.382   6.399   5.630
 5178TIP3    H115498   0.301   6.374   5.675
 5178TIP3    H215499   0.401   6.325   5.572
 5179TIP3   OH215500   1.584   1.974   2.578
 5179TIP3    H115501   1.589   2.061   2.539
 5179TIP3    H215502   1.628   1.982   2.662
 5180TIP3   OH215503   5.724   6.750   2.383
 5180TIP3    H115504   5.724   6.833   2.431
 5180TIP3    H215505   5.801   6.755   2.326
 5181TIP3   OH215506   4.775   4.890   4.006
 5181TIP3    H115507   4.842   4.943   3.962
 5181TIP3    H215508   4.732   4.951   4.066
 5182TIP3   OH215509   3.747   2.148   2.919
 5182TIP3    H115510   3.732   2.215   2.853
 5182TIP3    H215511   3.700   2.179   2.996
 5183TIP3   OH215512   7.220   3.378   0.142
 5183TIP3    H115513   7.229   3.327   0.062
 5183TIP3    H215514   7.152   3.333   0.192
 5184TIP3   OH215515   7.154   4.077   5.686
 5184TIP3    H115516   7.168   4.165   5.652
 5184TIP3    H215517   7.069   4.051   5.651
 5185TIP3   OH215518  -0.055   1.348   3.386
 5185TIP3    H115519   0.035   1.357   3.355
 5185TIP3    H215520  -0.046   1.332   3.480
 5186TIP3   OH215521   2.903   1.334   5.189
 5186TIP3    H115522   2.942   1.314   5.273
 5186TIP3    H215523   2.870   1.250   5.156
 5187TIP3   OH215524   5.058   1.374   2.837
 5187TIP3    H115525   5.051   1.469   2.848
 5187TIP3    H215526   5.037   1.358   2.745
 5188TIP3   OH215527   0.763   4.057   2.697
 5188TIP3    H115528   0.733   3.975   2.737
 5188TIP3    H215529   0.858   4.054   2.705
 5189TIP3   OH215530   3.576   4.646   5.881
 5189TIP3    H115531   3.515   4.661   5.952
 5189TIP3    H215532   3.529   4.673   5.802
 5190TIP3   OH215533   2.962   5.512   1.967
 5190TIP3    H115534   3.006   5.545   2.045
 5190TIP3    H215535   2.992   5.421   1.959
 5191TIP3   OH215536   4.107   1.280   1.046
 5191TIP3    H115537   4.118   1.337   0.970
 5191TIP3    H215538   4.184   1.299   1.101
 5192TIP3   OH215539   5.514   6.058   3.858
 5192TIP3    H115540   5.549   6.147   3.848
 5192TIP3    H215541   5.583   6.001   3.824
 5193TIP3   OH215542   0.314   4.820   1.844
 5193TIP3    H115543   0.399   4.858   1.865
 5193TIP3    H215544   0.251   4.881   1.882
 5194TIP3   OH215545   1.070   5.361   4.473
 5194TIP3    H115546   1.098   5.385   4.385
 5194TIP3    H215547   0.997   5.420   4.492
 5195TIP3   OH215548   5.476   0.409   1.450
 5195TIP3    H115549   5.567   0.407   1.421
 5195TIP3    H215550   5.426   0.369   1.379
 5196TIP3   OH215551   1.244   5.074   2.131
 5196TIP3    H115552   1.270   5.148   2.187
 5196TIP3    H215553   1.204   5.115   2.055
 5197TIP3   OH215554   1.991   0.255   5.422
 5197TIP3    H115555   2.049   0.326   5.447
 5197TIP3    H215556   1.905   0.296   5.413
 5198TIP3   OH215557   3.457   1.005   1.762
 5198TIP3    H115558   3.445   1.063   1.838
 5198TIP3    H215559   3.535   0.953   1.784
 5199TIP3   OH215560   7.241   0.087   4.237
 5199TIP3    H115561   7.230   0.177   4.269
 5199TIP3    H215562   7.250   0.035   4.317
 5200TIP3   OH215563   6.855   3.854   5.049
 5200TIP3    H115564   6.901   3.921   4.997
 5200TIP3    H215565   6.774   3.897   5.077
 5201TIP3   OH215566   6.477   5.387   3.872
 5201TIP3    H115567   6.472   5.318   3.938
 5201TIP3    H215568   6.386   5.418   3.865
 5202TIP3   OH215569   4.620   4.052   0.509
 5202TIP3    H115570   4.592   4.013   0.426
 5202TIP3    H215571   4.630   3.977   0.568
 5203TIP3   OH215572   7.078   2.162   3.510
 5203TIP3    H115573   7.099   2.117   3.429
 5203TIP3    H215574   7.091   2.096   3.578
 5204TIP3   OH215575   2.514   3.231   2.594
 5204TIP3    H115576   2.504   3.228   2.499
 5204TIP3    H215577   2.454   3.164   2.627
 5205TIP3   OH215578   1.839   1.399   0.475
 5205TIP3    H115579   1.932   1.420   0.487
 5205TIP3    H215580   1.839   1.305   0.456
 5206TIP3   OH215581   5.817   0.824   4.960
 5206TIP3    H115582   5.751   0.891   4.943
 5206TIP3    H215583   5.825   0.821   5.055
 5207TIP3   OH215584   6.131   2.181   4.920
 5207TIP3    H115585   6.213   2.166   4.966
 5207TIP3    H215586   6.097   2.262   4.958
 5208TIP3   OH215587   2.572   1.117   3.672
 5208TIP3    H115588   2.580   1.119   3.577
 5208TIP3    H215589   2.489   1.070   3.688
 5209TIP3   OH215590   6.605   3.946   4.646
 5209TIP3    H115591   6.670   3.973   4.711
 5209TIP3    H215592   6.643   3.971   4.562
 5210TIP3   OH215593   4.279   2.140   0.380
 5210TIP3    H115594   4.371   2.144   0.355
 5210TIP3    H215595   4.242   2.222   0.347
 5211TIP3   OH215596   3.706   2.091   1.109
 5211TIP3    H115597   3.632   2.033   1.127
 5211TIP3    H215598   3.700   2.111   1.016
 5212TIP3   OH215599   4.254   1.168   2.343
 5212TIP3    H115600   4.245   1.084   2.388
 5212TIP3    H215601   4.275   1.145   2.252
 5213TIP3   OH215602   3.722   5.176   4.406
 5213TIP3    H115603   3.709   5.185   4.311
 5213TIP3    H215604   3.765   5.258   4.431
 5214TIP3   OH215605   1.819   1.242   2.572
 5214TIP3    H115606   1.872   1.174   2.531
 5214TIP3    H215607   1.799   1.208   2.659
 5215TIP3   OH215608   3.237   0.839   3.598
 5215TIP3    H115609   3.184   0.787   3.539
 5215TIP3    H215610   3.174   0.878   3.659
 5216TIP3   OH215611   0.619   2.037   5.359
 5216TIP3    H115612   0.633   2.132   5.360
 5216TIP3    H215613   0.681   2.005   5.294
 5217TIP3   OH215614   1.734   1.472   2.679
 5217TIP3    H115615   1.759   1.389   2.639
 5217TIP3    H215616   1.665   1.449   2.741
 5218TIP3   OH215617   0.163   4.089   1.121
 5218TIP3    H115618   0.146   4.150   1.193
 5218TIP3    H215619   0.257   4.074   1.124
 5219TIP3   OH215620   0.594   1.811   4.606
 5219TIP3    H115621   0.650   1.888   4.618
 5219TIP3    H215622   0.553   1.825   4.520
 5220TIP3   OH215623   3.762   0.496   1.443
 5220TIP3    H115624   3.715   0.459   1.369
 5220TIP3    H215625   3.852   0.507   1.411
 5221TIP3   OH215626   2.495   3.819   4.059
 5221TIP3    H115627   2.425   3.757   4.045
 5221TIP3    H215628   2.572   3.779   4.018
 5222TIP3   OH215629   3.084   3.578   3.773
 5222TIP3    H115630   3.016   3.630   3.816
 5222TIP3    H215631   3.083   3.608   3.682
 5223TIP3   OH215632   7.136   3.202   1.188
 5223TIP3    H115633   7.050   3.190   1.148
 5223TIP3    H215634   7.176   3.272   1.136
 5224TIP3   OH215635   6.290   6.412   3.088
 5224TIP3    H115636   6.219   6.348   3.083
 5224TIP3    H215637   6.334   6.392   3.171
 5225TIP3   OH215638   4.493   5.103   0.851
 5225TIP3    H115639   4.504   5.035   0.785
 5225TIP3    H215640   4.564   5.164   0.835
 5226TIP3   OH215641   3.081   3.742   4.074
 5226TIP3    H115642   3.109   3.815   4.128
 5226TIP3    H215643   2.996   3.770   4.038
 5227TIP3   OH215644   6.058   4.375   5.366
 5227TIP3    H115645   6.144   4.401   5.400
 5227TIP3    H215646   6.015   4.457   5.344
 5228TIP3   OH215647   1.146   1.953   0.054
 5228TIP3    H115648   1.171   1.914   0.138
 5228TIP3    H215649   1.132   1.877  -0.003
 5229TIP3   OH215650   1.110   0.615   4.807
 5229TIP3    H115651   1.097   0.664   4.888
 5229TIP3    H215652   1.038   0.644   4.750
 5230TIP3   OH215653   5.097   3.287   3.682
 5230TIP3    H115654   5.148   3.258   3.606
 5230TIP3    H215655   5.075   3.207   3.729
 5231TIP3   OH215656   5.744   3.834   5.111
 5231TIP3    H115657   5.747   3.850   5.017
 5231TIP3    H215658   5.832   3.856   5.142
 5232TIP3   OH215659   2.659   3.071   0.802
 5232TIP3    H115660   2.613   3.106   0.726
 5232TIP3    H215661   2.629   3.124   0.875
 5233TIP3   OH215662   5.228   5.305   3.691
 5233TIP3    H115663   5.255   5.279   3.604
 5233TIP3    H215664   5.152   5.362   3.677
 5234TIP3   OH215665   0.822   0.145   2.606
 5234TIP3    H115666   0.811   0.117   2.697
 5234TIP3    H215667   0.917   0.142   2.592
 5235TIP3   OH215668   0.683   3.603   1.711
 5235TIP3    H115669   0.643   3.682   1.674
 5235TIP3    H215670   0.747   3.576   1.645
 5236TIP3   OH215671   2.272   0.016   0.234
 5236TIP3    H115672   2.245  -0.046   0.302
 5236TIP3    H215673   2.367   0.024   0.246
 5237TIP3   OH215674   5.770   3.278   4.527
 5237TIP3    H115675   5.816   3.355   4.561
 5237TIP3    H215676   5.686   3.277   4.574
 5238TIP3   OH215677   1.323   2.543   4.270
 5238TIP3    H115678   1.281   2.629   4.270
 5238TIP3    H215679   1.254   2.482   4.295
 5239TIP3   OH215680   6.329   2.888   5.067
 5239TIP3    H115681   6.348   2.909   4.975
 5239TIP3    H215682   6.247   2.933   5.085
 5240TIP3   OH215683   4.490   2.341   2.543
 5240TIP3    H115684   4.565   2.355   2.484
 5240TIP3    H215685   4.445   2.425   2.545
 5241TIP3   OH215686   0.847   2.487   4.378
 5241TIP3    H115687   0.781   2.417   4.376
 5241TIP3    H215688   0.909   2.463   4.309
 5242TIP3   OH215689   5.566   2.899   1.892
 5242TIP3    H115690   5.481   2.910   1.935
 5242TIP3    H215691   5.630   2.924   1.959
 5243TIP3   OH215692   0.997   0.547   0.475
 5243TIP3    H115693   0.991   0.612   0.405
 5243TIP3    H215694   0.906   0.536   0.504
 5244TIP3   OH215695   7.183   0.641   5.091
 5244TIP3    H115696   7.169   0.570   5.028
 5244TIP3    H215697   7.277   0.638   5.109
 5245TIP3   OH215698   4.182   1.862   2.955
 5245TIP3    H115699   4.092   1.847   2.986
 5245TIP3    H215700   4.175   1.940   2.899
 5246TIP3   OH215701   1.088   4.539   4.430
 5246TIP3    H115702   1.066   4.618   4.480
 5246TIP3    H215703   1.101   4.570   4.340
 5247TIP3   OH215704   5.818   0.301   3.709
 5247TIP3    H115705   5.907   0.269   3.729
 5247TIP3    H215706   5.766   0.275   3.785
 5248TIP3   OH215707   0.170   0.766   4.662
 5248TIP3    H115708   0.217   0.733   4.585
 5248TIP3    H215709   0.230   0.751   4.735
 5249TIP3   OH215710   7.081   1.150   5.828
 5249TIP3    H115711   7.085   1.068   5.779
 5249TIP3    H215712   7.069   1.218   5.761
 5250TIP3   OH215713   0.646   0.192   3.742
 5250TIP3    H115714   0.679   0.166   3.828
 5250TIP3    H215715   0.572   0.133   3.727
 5251TIP3   OH215716   4.357   4.946   1.306
 5251TIP3    H115717   4.338   4.951   1.212
 5251TIP3    H215718   4.281   4.986   1.348
 5252TIP3   OH215719   0.509   2.416   4.802
 5252TIP3    H115720   0.596   2.415   4.764
 5252TIP3    H215721   0.471   2.500   4.776
 5253TIP3   OH215722   3.227   1.530   1.613
 5253TIP3    H115723   3.135   1.539   1.586
 5253TIP3    H215724   3.222   1.482   1.695
 5254TIP3   OH215725   1.670   5.834   0.458
 5254TIP3    H115726   1.750   5.784   0.473
 5254TIP3    H215727   1.678   5.910   0.515
 5255TIP3   OH215728   6.746   1.667   0.689
 5255TIP3    H115729   6.663   1.621   0.699
 5255TIP3    H215730   6.750   1.692   0.597
 5256TIP3   OH215731   1.339   1.375   3.817
 5256TIP3    H115732   1.417   1.417   3.853
 5256TIP3    H215733   1.283   1.360   3.893
 5257TIP3   OH215734   4.841   6.172   2.024
 5257TIP3    H115735   4.749   6.182   2.000
 5257TIP3    H215736   4.889   6.226   1.961
 5258TIP3   OH215737   6.032   1.275   1.041
 5258TIP3    H115738   6.093   1.349   1.050
 5258TIP3    H215739   6.063   1.228   0.963
 5259TIP3   OH215740   2.991   6.477   3.577
 5259TIP3    H115741   2.989   6.385   3.603
 5259TIP3    H215742   3.063   6.483   3.514
 5260TIP3   OH215743   2.621   6.471   0.845
 5260TIP3    H115744   2.695   6.531   0.842
 5260TIP3    H215745   2.653   6.391   0.802
 5261TIP3   OH215746   6.985   1.178   5.484
 5261TIP3    H115747   6.993   1.089   5.517
 5261TIP3    H215748   6.931   1.171   5.406
 5262TIP3   OH215749   4.641   4.908   5.339
 5262TIP3    H115750   4.682   4.897   5.425
 5262TIP3    H215751   4.622   4.818   5.311
 5263TIP3   OH215752   0.671   6.651   0.117
 5263TIP3    H115753   0.679   6.659   0.022
 5263TIP3    H215754   0.747   6.600   0.144
 5264TIP3   OH215755   1.301   5.072   1.592
 5264TIP3    H115756   1.218   5.039   1.626
 5264TIP3    H215757   1.296   5.057   1.497
 5265TIP3   OH215758   5.953   2.379   5.014
 5265TIP3    H115759   5.968   2.440   5.086
 5265TIP3    H215760   5.874   2.331   5.040
 5266TIP3   OH215761   2.214   2.867   0.896
 5266TIP3    H115762   2.162   2.940   0.929
 5266TIP3    H215763   2.166   2.789   0.923
 5267TIP3   OH215764   6.908   5.169   0.352
 5267TIP3    H115765   6.985   5.113   0.344
 5267TIP3    H215766   6.886   5.166   0.445
 5268TIP3   OH215767   5.285   2.546   0.416
 5268TIP3    H115768   5.268   2.497   0.497
 5268TIP3    H215769   5.380   2.558   0.414
 5269TIP3   OH215770   2.711   6.676   5.008
 5269TIP3    H115771   2.756   6.592   5.018
 5269TIP3    H215772   2.620   6.651   4.991
 5270TIP3   OH215773   4.206   3.890   2.157
 5270TIP3    H115774   4.262   3.919   2.085
 5270TIP3    H215775   4.124   3.937   2.144
 5271TIP3   OH215776   5.264   6.166   2.824
 5271TIP3    H115777   5.209   6.230   2.780
 5271TIP3    H215778   5.219   6.083   2.811
 5272TIP3   OH215779   5.020   2.753   4.845
 5272TIP3    H115780   4.963   2.700   4.789
 5272TIP3    H215781   5.026   2.703   4.927
 5273TIP3   OH215782   4.802   3.828   5.216
 5273TIP3    H115783   4.791   3.885   5.292
 5273TIP3    H215784   4.844   3.750   5.251
 5274TIP3   OH215785   4.168   2.623   0.550
 5274TIP3    H115786   4.108   2.665   0.488
 5274TIP3    H215787   4.133   2.646   0.637
 5275TIP3   OH215788   1.531   4.426   0.601
 5275TIP3    H115789   1.472   4.361   0.639
 5275TIP3    H215790   1.596   4.442   0.671
 5276TIP3   OH215791   0.856   1.485   4.671
 5276TIP3    H115792   0.925   1.550   4.665
 5276TIP3    H215793   0.786   1.528   4.720
 5277TIP3   OH215794   3.234   5.588   4.456
 5277TIP3    H115795   3.268   5.499   4.453
 5277TIP3    H215796   3.146   5.579   4.492
 5278TIP3   OH215797   2.346   4.265   4.887
 5278TIP3    H115798   2.413   4.282   4.953
 5278TIP3    H215799   2.306   4.351   4.870
 5279TIP3   OH215800   1.984   2.161   1.249
 5279TIP3    H115801   2.056   2.193   1.304
 5279TIP3    H215802   2.027   2.102   1.186
 5280TIP3   OH215803   6.137   1.037   1.759
 5280TIP3    H115804   6.088   1.057   1.839
 5280TIP3    H215805   6.203   1.107   1.753
 5281TIP3   OH215806   3.185   5.328   1.593
 5281TIP3    H115807   3.105   5.275   1.598
 5281TIP3    H215808   3.202   5.338   1.499
 5282TIP3   OH215809   0.093   2.513   3.208
 5282TIP3    H115810   0.151   2.464   3.267
 5282TIP3    H215811   0.037   2.564   3.267
 5283TIP3   OH215812   3.633   5.634   3.588
 5283TIP3    H115813   3.622   5.650   3.682
 5283TIP3    H215814   3.544   5.641   3.553
 5284TIP3   OH215815   3.056   1.426   4.717
 5284TIP3    H115816   3.036   1.456   4.806
 5284TIP3    H215817   3.111   1.349   4.730
 5285TIP3   OH215818   3.574   1.389   1.854
 5285TIP3    H115819   3.479   1.380   1.846
 5285TIP3    H215820   3.586   1.441   1.934
 5286TIP3   OH215821   6.732   3.619   3.795
 5286TIP3    H115822   6.732   3.713   3.776
 5286TIP3    H215823   6.729   3.614   3.890
 5287TIP3   OH215824   3.626   1.393   4.801
 5287TIP3    H115825   3.709   1.346   4.813
 5287TIP3    H215826   3.644   1.455   4.730
 5288TIP3   OH215827   4.873   0.329   0.389
 5288TIP3    H115828   4.840   0.374   0.467
 5288TIP3    H215829   4.935   0.391   0.349
 5289TIP3   OH215830   1.830   1.153   5.380
 5289TIP3    H115831   1.865   1.112   5.301
 5289TIP3    H215832   1.897   1.139   5.447
 5290TIP3   OH215833   1.894   1.715   4.502
 5290TIP3    H115834   1.933   1.672   4.426
 5290TIP3    H215835   1.967   1.728   4.563
 5291TIP3   OH215836   6.036   3.992   4.041
 5291TIP3    H115837   5.943   4.015   4.045
 5291TIP3    H215838   6.046   3.950   3.955
 5292TIP3   OH215839   5.311   4.348   4.242
 5292TIP3    H115840   5.376   4.311   4.302
 5292TIP3    H215841   5.245   4.279   4.232
 5293TIP3   OH215842   2.793   4.083   3.313
 5293TIP3    H115843   2.728   4.144   3.348
 5293TIP3    H215844   2.740   4.013   3.275
 5294TIP3   OH215845   6.215   0.849   3.443
 5294TIP3    H115846   6.142   0.791   3.465
 5294TIP3    H215847   6.199   0.928   3.495
 5295TIP3   OH215848   6.066   1.523   3.005
 5295TIP3    H115849   6.060   1.618   3.021
 5295TIP3    H215850   6.061   1.514   2.910
 5296TIP3   OH215851   6.978   6.681   1.622
 5296TIP3    H115852   6.988   6.755   1.682
 5296TIP3    H215853   6.939   6.612   1.675
 5297TIP3   OH215854   3.123   0.613   2.878
 5297TIP3    H115855   3.192   0.582   2.936
 5297TIP3    H215856   3.051   0.637   2.936
 5298TIP3   OH215857   6.701   0.174   5.270
 5298TIP3    H115858   6.674   0.162   5.179
 5298TIP3    H215859   6.639   0.238   5.305
 5299TIP3   OH215860   3.887   1.310   4.837
 5299TIP3    H115861   3.946   1.379   4.805
 5299TIP3    H215862   3.896   1.240   4.772
 5300TIP3   OH215863   4.780   0.474   5.931
 5300TIP3    H115864   4.688   0.457   5.947
 5300TIP3    H215865   4.816   0.389   5.905
 5301TIP3   OH215866   5.946   2.735   5.119
 5301TIP3    H115867   6.012   2.720   5.051
 5301TIP3    H215868   5.997   2.749   5.199
 5302TIP3   OH215869   0.935   2.789   5.520
 5302TIP3    H115870   1.025   2.781   5.487
 5302TIP3    H215871   0.942   2.850   5.593
 5303TIP3   OH215872   5.626   3.840   2.928
 5303TIP3    H115873   5.681   3.818   2.853
 5303TIP3    H215874   5.687   3.875   2.993
 5304TIP3   OH215875   3.607   1.980   5.811
 5304TIP3    H115876   3.675   1.916   5.788
 5304TIP3    H215877   3.595   2.032   5.732
 5305TIP3   OH215878   0.608   2.895   0.055
 5305TIP3    H115879   0.601   2.972   0.111
 5305TIP3    H215880   0.692   2.855   0.079
 5306TIP3   OH215881   6.508   2.829   1.254
 5306TIP3    H115882   6.485   2.912   1.295
 5306TIP3    H215883   6.476   2.837   1.164
 5307TIP3   OH215884   2.248   6.149   1.091
 5307TIP3    H115885   2.232   6.244   1.091
 5307TIP3    H215886   2.257   6.127   0.998
 5308TIP3   OH215887   3.474   6.414   0.371
 5308TIP3    H115888   3.450   6.330   0.409
 5308TIP3    H215889   3.444   6.479   0.435
 5309TIP3   OH215890   3.608   0.986   4.641
 5309TIP3    H115891   3.585   0.896   4.662
 5309TIP3    H215892   3.626   0.986   4.547
 5310TIP3   OH215893   5.525   2.412   2.244
 5310TIP3    H115894   5.561   2.381   2.160
 5310TIP3    H215895   5.561   2.500   2.254
 5311TIP3   OH215896   5.944   2.916   2.906
 5311TIP3    H115897   6.035   2.916   2.937
 5311TIP3    H215898   5.914   3.005   2.920
 5312TIP3   OH215899   0.488   6.819   4.467
 5312TIP3    H115900   0.472   6.774   4.550
 5312TIP3    H215901   0.414   6.796   4.412
 5313TIP3   OH215902   5.775   4.140   5.032
 5313TIP3    H115903   5.690   4.136   5.075
 5313TIP3    H215904   5.780   4.059   4.981
 5314TIP3   OH215905   1.848   5.939   0.110
 5314TIP3    H115906   1.786   5.996   0.156
 5314TIP3    H215907   1.793   5.882   0.057
 5315TIP3   OH215908   0.656   5.303   0.028
 5315TIP3    H115909   0.685   5.326   0.117
 5315TIP3    H215910   0.611   5.381  -0.004
 5316TIP3   OH215911   4.497   5.943   3.131
 5316TIP3    H115912   4.516   5.912   3.219
 5316TIP3    H215913   4.431   6.011   3.142
 5317TIP3   OH215914   7.198   3.875   2.282
 5317TIP3    H115915   7.158   3.920   2.358
 5317TIP3    H215916   7.129   3.877   2.215
 5318TIP3   OH215917   3.372   1.192   3.206
 5318TIP3    H115918   3.401   1.109   3.167
 5318TIP3    H215919   3.344   1.169   3.294
 5319TIP3   OH215920   1.673   4.036   2.013
 5319TIP3    H115921   1.719   4.111   2.050
 5319TIP3    H215922   1.715   3.959   2.053
 5320TIP3   OH215923   0.850   2.973   4.071
 5320TIP3    H115924   0.828   3.050   4.019
 5320TIP3    H215925   0.766   2.933   4.091
 5321TIP3   OH215926   1.191   1.771   4.856
 5321TIP3    H115927   1.219   1.837   4.793
 5321TIP3    H215928   1.271   1.727   4.883
 5322TIP3   OH215929   0.411   3.796   4.007
 5322TIP3    H115930   0.460   3.724   4.047
 5322TIP3    H215931   0.385   3.763   3.921
 5323TIP3   OH215932   4.133   4.427   4.790
 5323TIP3    H115933   4.149   4.521   4.785
 5323TIP3    H215934   4.139   4.396   4.700
 5324TIP3   OH215935   3.827   1.940   1.653
 5324TIP3    H115936   3.772   1.862   1.648
 5324TIP3    H215937   3.913   1.910   1.624
 5325TIP3   OH215938   1.888   4.757   1.204
 5325TIP3    H115939   1.824   4.809   1.253
 5325TIP3    H215940   1.972   4.777   1.244
 5326TIP3   OH215941   6.657   5.916   1.253
 5326TIP3    H115942   6.640   5.823   1.240
 5326TIP3    H215943   6.574   5.952   1.284
 5327TIP3   OH215944   6.719   0.216   4.077
 5327TIP3    H115945   6.797   0.172   4.045
 5327TIP3    H215946   6.655   0.209   4.006
 5328TIP3   OH215947   3.145   0.266   5.296
 5328TIP3    H115948   3.128   0.178   5.329
 5328TIP3    H215949   3.077   0.320   5.336
 5329TIP3   OH215950   2.607   0.936   0.803
 5329TIP3    H115951   2.513   0.942   0.820
 5329TIP3    H215952   2.613   0.878   0.727
 5330TIP3   OH215953   1.640   0.756   5.672
 5330TIP3    H115954   1.647   0.839   5.624
 5330TIP3    H215955   1.580   0.776   5.744
 5331TIP3   OH215956   0.527   1.096   1.033
 5331TIP3    H115957   0.533   1.108   0.939
 5331TIP3    H215958   0.438   1.063   1.048
 5332TIP3   OH215959   4.206   1.592   3.913
 5332TIP3    H115960   4.124   1.639   3.927
 5332TIP3    H215961   4.233   1.566   4.001
 5333TIP3   OH215962   6.086   1.832   1.953
 5333TIP3    H115963   6.055   1.910   1.999
 5333TIP3    H215964   6.009   1.799   1.908
 5334TIP3   OH215965   1.211   1.415   4.049
 5334TIP3    H115966   1.252   1.486   4.098
 5334TIP3    H215967   1.125   1.450   4.023
 5335TIP3   OH215968   6.610   1.531   4.648
 5335TIP3    H115969   6.626   1.623   4.626
 5335TIP3    H215970   6.518   1.517   4.627
 5336TIP3   OH215971   5.339   1.480   0.246
 5336TIP3    H115972   5.320   1.556   0.301
 5336TIP3    H215973   5.398   1.427   0.300
 5337TIP3   OH215974   1.892   2.936   2.106
 5337TIP3    H115975   1.870   2.962   2.195
 5337TIP3    H215976   1.984   2.960   2.095
 5338TIP3   OH215977   3.913   4.643   5.325
 5338TIP3    H115978   3.854   4.711   5.357
 5338TIP3    H215979   3.933   4.669   5.235
 5339TIP3   OH215980   0.121   4.525   3.571
 5339TIP3    H115981   0.216   4.524   3.561
 5339TIP3    H215982   0.099   4.435   3.596
 5340TIP3   OH215983   2.416   3.709   0.362
 5340TIP3    H115984   2.374   3.789   0.331
 5340TIP3    H215985   2.486   3.739   0.419
 5341TIP3   OH215986   5.216   2.832   2.551
 5341TIP3    H115987   5.152   2.887   2.506
 5341TIP3    H215988   5.227   2.756   2.494
 5342TIP3   OH215989   2.320   1.242   3.430
 5342TIP3    H115990   2.318   1.147   3.440
 5342TIP3    H215991   2.238   1.272   3.469
 5343TIP3   OH215992   4.133   1.856   4.100
 5343TIP3    H115993   4.115   1.935   4.048
 5343TIP3    H215994   4.202   1.883   4.161
 5344TIP3   OH215995   5.211   2.082   3.843
 5344TIP3    H115996   5.182   2.130   3.920
 5344TIP3    H215997   5.140   2.091   3.780
 5345TIP3   OH215998   4.236   5.234   5.475
 5345TIP3    H115999   4.254   5.305   5.537
 5345TIP3    H216000   4.220   5.158   5.531
 5346TIP3   OH216001   3.545   6.083   3.108
 5346TIP3    H116002   3.491   6.007   3.127
 5346TIP3    H216003   3.592   6.059   3.028
 5347TIP3   OH216004   2.156   1.412   5.646
 5347TIP3    H116005   2.240   1.379   5.616
 5347TIP3    H216006   2.163   1.413   5.742
 5348TIP3   OH216007   5.139   4.948   5.109
 5348TIP3    H116008   5.068   5.012   5.110
 5348TIP3    H216009   5.116   4.887   5.039
 5349TIP3   OH216010   2.561   5.855   5.122
 5349TIP3    H116011   2.520   5.781   5.166
 5349TIP3    H216012   2.621   5.891   5.187
 5350TIP3   OH216013   6.912   0.989   5.005
 5350TIP3    H116014   6.849   0.952   4.943
 5350TIP3    H216015   6.960   1.054   4.955
 5351TIP3   OH216016   6.554   1.797   4.615
 5351TIP3    H116017   6.480   1.763   4.665
 5351TIP3    H216018   6.523   1.880   4.579
 5352TIP3   OH216019   6.077   6.599   4.312
 5352TIP3    H116020   5.991   6.642   4.304
 5352TIP3    H216021   6.076   6.532   4.244
 5353TIP3   OH216022   4.118   3.172   5.413
 5353TIP3    H116023   4.055   3.107   5.443
 5353TIP3    H216024   4.070   3.224   5.348
 5354TIP3   OH216025   5.088   2.296   2.329
 5354TIP3    H116026   5.145   2.228   2.364
 5354TIP3    H216027   5.147   2.356   2.284
 5355TIP3   OH216028   7.108   1.467   4.824
 5355TIP3    H116029   7.045   1.479   4.896
 5355TIP3    H216030   7.146   1.380   4.841
 5356TIP3   OH216031   5.844   4.386   3.180
 5356TIP3    H116032   5.914   4.418   3.123
 5356TIP3    H216033   5.889   4.354   3.258
 5357TIP3   OH216034   3.856   3.028   3.778
 5357TIP3    H116035   3.820   2.973   3.848
 5357TIP3    H216036   3.805   3.004   3.701
 5358TIP3   OH216037   6.860   0.413   2.580
 5358TIP3    H116038   6.844   0.480   2.647
 5358TIP3    H216039   6.952   0.425   2.556
 5359TIP3   OH216040   5.865   6.468   5.439
 5359TIP3    H116041   5.821   6.389   5.471
 5359TIP3    H216042   5.814   6.494   5.362
 5360TIP3   OH216043   6.241   0.785   1.786
 5360TIP3    H116044   6.258   0.768   1.879
 5360TIP3    H216045   6.243   0.880   1.778
 5361TIP3   OH216046   1.203   0.442   2.380
 5361TIP3    H116047   1.196   0.473   2.471
 5361TIP3    H216048   1.252   0.511   2.335
 5362TIP3   OH216049   4.931   3.479   1.416
 5362TIP3    H116050   4.889   3.564   1.424
 5362TIP3    H216051   4.987   3.486   1.339
 5363TIP3   OH216052   4.048   2.388   5.107
 5363TIP3    H116053   4.020   2.452   5.171
 5363TIP3    H216054   4.102   2.437   5.045
 5364TIP3   OH216055   3.178   5.673   3.351
 5364TIP3    H116056   3.249   5.610   3.357
 5364TIP3    H216057   3.109   5.628   3.302
 5365TIP3   OH216058   4.952   4.496   4.311
 5365TIP3    H116059   5.030   4.533   4.270
 5365TIP3    H216060   4.887   4.495   4.242
 5366TIP3   OH216061   0.364   6.263   2.671
 5366TIP3    H116062   0.452   6.278   2.638
 5366TIP3    H216063   0.314   6.340   2.642
 5367TIP3   OH216064   0.199   6.125   0.517
 5367TIP3    H116065   0.207   6.204   0.463
 5367TIP3    H216066   0.124   6.078   0.481
 5368TIP3   OH216067   6.441   5.516   5.212
 5368TIP3    H116068   6.378   5.505   5.140
 5368TIP3    H216069   6.387   5.542   5.286
 5369TIP3   OH216070   4.951   2.681   2.354
 5369TIP3    H116071   4.913   2.740   2.419
 5369TIP3    H216072   4.886   2.675   2.285
 5370TIP3   OH216073   4.839   6.541   2.224
 5370TIP3    H116074   4.907   6.555   2.158
 5370TIP3    H216075   4.760   6.522   2.174
 5371TIP3   OH216076   1.591   1.565   0.487
 5371TIP3    H116077   1.667   1.507   0.497
 5371TIP3    H216078   1.629   1.653   0.482
 5372TIP3   OH216079   3.344   5.480   2.186
 5372TIP3    H116080   3.429   5.498   2.227
 5372TIP3    H216081   3.366   5.430   2.107
 5373TIP3   OH216082   3.173   1.283   2.212
 5373TIP3    H116083   3.248   1.311   2.265
 5373TIP3    H216084   3.130   1.216   2.266
 5374TIP3   OH216085   4.389   4.244   2.063
 5374TIP3    H116086   4.396   4.282   2.150
 5374TIP3    H216087   4.479   4.240   2.031
 5375TIP3   OH216088   6.296   1.993   4.258
 5375TIP3    H116089   6.378   2.013   4.212
 5375TIP3    H216090   6.231   1.982   4.189
 5376TIP3   OH216091   1.501   5.455   0.337
 5376TIP3    H116092   1.490   5.522   0.404
 5376TIP3    H216093   1.587   5.418   0.354
 5377TIP3   OH216094   4.250   0.429   1.612
 5377TIP3    H116095   4.200   0.367   1.666
 5377TIP3    H216096   4.318   0.461   1.671
 5378TIP3   OH216097   4.423   1.956   2.765
 5378TIP3    H116098   4.499   1.943   2.708
 5378TIP3    H216099   4.400   1.868   2.794
 5379TIP3   OH216100   3.087   2.103   3.400
 5379TIP3    H116101   3.144   2.115   3.325
 5379TIP3    H216102   3.063   2.011   3.399
 5380TIP3   OH216103   1.879   2.011   3.938
 5380TIP3    H116104   1.813   1.943   3.952
 5380TIP3    H216105   1.829   2.093   3.937
 5381TIP3   OH216106   2.880   2.132   0.800
 5381TIP3    H116107   2.949   2.129   0.733
 5381TIP3    H216108   2.811   2.185   0.761
 5382TIP3   OH216109   1.324   3.949   3.191
 5382TIP3    H116110   1.319   4.039   3.225
 5382TIP3    H216111   1.320   3.894   3.270
 5383TIP3   OH216112   0.421   1.907   2.119
 5383TIP3    H116113   0.393   1.818   2.098
 5383TIP3    H216114   0.368   1.931   2.196
 5384TIP3   OH216115   6.219   2.932   2.920
 5384TIP3    H116116   6.220   2.902   3.010
 5384TIP3    H216117   6.286   2.879   2.876
 5385TIP3   OH216118   1.679   1.642   4.363
 5385TIP3    H116119   1.641   1.722   4.327
 5385TIP3    H216120   1.740   1.673   4.431
 5386TIP3   OH216121   4.708   4.872   2.217
 5386TIP3    H116122   4.620   4.897   2.188
 5386TIP3    H216123   4.757   4.857   2.137
 5387TIP3   OH216124   0.699   2.447   3.477
 5387TIP3    H116125   0.684   2.395   3.398
 5387TIP3    H216126   0.744   2.525   3.446
 5388TIP3   OH216127   1.033   0.861   2.528
 5388TIP3    H116128   1.121   0.897   2.542
 5388TIP3    H216129   1.040   0.814   2.445
 5389TIP3   OH216130   2.946   5.748   4.196
 5389TIP3    H116131   2.914   5.814   4.134
 5389TIP3    H216132   3.000   5.797   4.258
 5390TIP3   OH216133   5.659   2.451   1.318
 5390TIP3    H116134   5.683   2.468   1.227
 5390TIP3    H216135   5.695   2.364   1.336
 5391TIP3   OH216136   6.608   5.408   3.551
 5391TIP3    H116137   6.643   5.476   3.493
 5391TIP3    H216138   6.537   5.451   3.598
 5392TIP3   OH216139   4.025   2.278   1.769
 5392TIP3    H116140   3.996   2.187   1.776
 5392TIP3    H216141   4.100   2.284   1.828
 5393TIP3   OH216142   2.344   4.756   4.716
 5393TIP3    H116143   2.379   4.818   4.779
 5393TIP3    H216144   2.420   4.706   4.686
 5394TIP3   OH216145   1.478   5.633   0.547
 5394TIP3    H116146   1.384   5.639   0.530
 5394TIP3    H216147   1.514   5.716   0.516
 5395TIP3   OH216148   3.801   5.913   0.781
 5395TIP3    H116149   3.895   5.895   0.780
 5395TIP3    H216150   3.783   5.942   0.871
 5396TIP3   OH216151   3.821   3.694   1.261
 5396TIP3    H116152   3.885   3.651   1.206
 5396TIP3    H216153   3.871   3.727   1.336
 5397TIP3   OH216154   6.789   1.760   4.456
 5397TIP3    H116155   6.719   1.786   4.515
 5397TIP3    H216156   6.869   1.769   4.508
 5398TIP3   OH216157   1.790   0.064   5.606
 5398TIP3    H116158   1.722   0.127   5.630
 5398TIP3    H216159   1.831   0.101   5.529
 5399TIP3   OH216160   0.044   4.509   5.657
 5399TIP3    H116161   0.100   4.452   5.710
 5399TIP3    H216162  -0.015   4.449   5.612
 5400TIP3   OH216163   4.160   3.598   1.147
 5400TIP3    H116164   4.110   3.674   1.116
 5400TIP3    H216165   4.215   3.633   1.217
 5401TIP3   OH216166   2.034   5.314   0.359
 5401TIP3    H116167   1.962   5.308   0.297
 5401TIP3    H216168   1.991   5.315   0.445
 5402TIP3   OH216169   4.436   2.220   3.746
 5402TIP3    H116170   4.427   2.146   3.686
 5402TIP3    H216171   4.526   2.215   3.779
 5403TIP3   OH216172   2.419   2.340   4.180
 5403TIP3    H116173   2.324   2.327   4.182
 5403TIP3    H216174   2.453   2.261   4.138
 5404TIP3   OH216175   4.731   1.849   0.969
 5404TIP3    H116176   4.802   1.901   0.929
 5404TIP3    H216177   4.697   1.906   1.039
 5405TIP3   OH216178   6.188   4.631   1.116
 5405TIP3    H116179   6.197   4.538   1.135
 5405TIP3    H216180   6.267   4.654   1.066
 5406TIP3   OH216181   5.222   1.295   1.569
 5406TIP3    H116182   5.148   1.233   1.564
 5406TIP3    H216183   5.183   1.376   1.601
 5407TIP3   OH216184   0.463   4.090   2.726
 5407TIP3    H116185   0.373   4.118   2.738
 5407TIP3    H216186   0.461   3.995   2.741
 5408TIP3   OH216187   3.663   4.209   2.957
 5408TIP3    H116188   3.633   4.124   2.987
 5408TIP3    H216189   3.618   4.272   3.014
 5409TIP3   OH216190   4.025   6.150   2.194
 5409TIP3    H116191   3.993   6.238   2.210
 5409TIP3    H216192   3.967   6.093   2.244
 5410TIP3   OH216193   1.160   4.806   3.953
 5410TIP3    H116194   1.170   4.852   3.869
 5410TIP3    H216195   1.248   4.783   3.979
 5411TIP3   OH216196   0.175   3.195   2.202
 5411TIP3    H116197   0.195   3.138   2.275
 5411TIP3    H216198   0.088   3.229   2.221
 5412TIP3   OH216199   2.412   2.479   4.713
 5412TIP3    H116200   2.322   2.468   4.746
 5412TIP3    H216201   2.404   2.473   4.618
 5413TIP3   OH216202   1.397   6.747   1.481
 5413TIP3    H116203   1.485   6.754   1.518
 5413TIP3    H216204   1.347   6.814   1.526
 5414TIP3   OH216205   7.195   1.368   2.150
 5414TIP3    H116206   7.283   1.406   2.140
 5414TIP3    H216207   7.137   1.444   2.154
 5415TIP3   OH216208   6.175   1.756   5.007
 5415TIP3    H116209   6.141   1.684   5.060
 5415TIP3    H216210   6.229   1.808   5.066
 5416TIP3   OH216211   5.006   1.765   3.787
 5416TIP3    H116212   4.945   1.837   3.799
 5416TIP3    H216213   5.060   1.791   3.713
 5417TIP3   OH216214   3.546   5.157   0.906
 5417TIP3    H116215   3.592   5.091   0.959
 5417TIP3    H216216   3.504   5.106   0.837
 5418TIP3   OH216217   2.677   5.157   5.291
 5418TIP3    H116218   2.613   5.222   5.320
 5418TIP3    H216219   2.662   5.149   5.197
 5419TIP3   OH216220   0.246   6.498   1.463
 5419TIP3    H116221   0.185   6.439   1.419
 5419TIP3    H216222   0.192   6.572   1.492
 5420TIP3   OH216223   4.901   4.120   4.392
 5420TIP3    H116224   4.918   4.071   4.473
 5420TIP3    H216225   4.817   4.088   4.362
 5421TIP3   OH216226   1.625   2.201   2.373
 5421TIP3    H116227   1.595   2.284   2.335
 5421TIP3    H216228   1.637   2.143   2.298
 5422TIP3   OH216229   4.753   2.974   2.347
 5422TIP3    H116230   4.760   3.009   2.258
 5422TIP3    H216231   4.662   2.993   2.372
 5423TIP3   OH216232   2.594   2.331   5.265
 5423TIP3    H116233   2.610   2.331   5.359
 5423TIP3    H216234   2.623   2.245   5.236
 5424TIP3   OH216235   3.595   1.363   3.085
 5424TIP3    H116236   3.606   1.274   3.120
 5424TIP3    H216237   3.519   1.398   3.132
 5425TIP3   OH216238   1.087   6.063   4.988
 5425TIP3    H116239   1.108   5.998   4.920
 5425TIP3    H216240   1.030   6.016   5.049
 5426TIP3   OH216241   5.271   2.414   4.896
 5426TIP3    H116242   5.239   2.388   4.810
 5426TIP3    H216243   5.300   2.331   4.936
 5427TIP3   OH216244   2.961   6.271   0.237
 5427TIP3    H116245   2.876   6.299   0.269
 5427TIP3    H216246   2.968   6.308   0.149
 5428TIP3   OH216247   5.839   2.935   2.067
 5428TIP3    H116248   5.923   2.963   2.103
 5428TIP3    H216249   5.782   2.926   2.143
 5429TIP3   OH216250   0.036   3.714   2.977
 5429TIP3    H116251   0.043   3.711   3.073
 5429TIP3    H216252   0.072   3.800   2.954
 5430TIP3   OH216253   4.740   2.502   0.586
 5430TIP3    H116254   4.689   2.575   0.550
 5430TIP3    H216255   4.825   2.509   0.543
 5431TIP3   OH216256   2.893   0.727   1.825
 5431TIP3    H116257   2.841   0.808   1.825
 5431TIP3    H216258   2.975   0.751   1.869
 5432TIP3   OH216259   5.562   0.878   5.455
 5432TIP3    H116260   5.475   0.885   5.492
 5432TIP3    H216261   5.605   0.809   5.506
 5433TIP3   OH216262   3.596   6.084   1.613
 5433TIP3    H116263   3.680   6.037   1.610
 5433TIP3    H216264   3.618   6.169   1.650
 5434TIP3   OH216265   5.152   4.427   5.463
 5434TIP3    H116266   5.131   4.499   5.403
 5434TIP3    H216267   5.166   4.470   5.548
 5435TIP3   OH216268   4.459   4.068   1.301
 5435TIP3    H116269   4.466   4.043   1.208
 5435TIP3    H216270   4.545   4.049   1.337
 5436TIP3   OH216271   6.459   5.562   0.613
 5436TIP3    H116272   6.495   5.587   0.528
 5436TIP3    H216273   6.486   5.632   0.673
 5437TIP3   OH216274   3.646   3.533   4.283
 5437TIP3    H116275   3.680   3.532   4.194
 5437TIP3    H216276   3.708   3.480   4.333
 5438TIP3   OH216277   2.268   6.554   2.616
 5438TIP3    H116278   2.345   6.549   2.559
 5438TIP3    H216279   2.239   6.644   2.608
 5439TIP3   OH216280   5.625   1.037   5.698
 5439TIP3    H116281   5.662   1.121   5.670
 5439TIP3    H216282   5.534   1.057   5.720
 5440TIP3   OH216283   3.426   5.687   0.587
 5440TIP3    H116284   3.359   5.738   0.633
 5440TIP3    H216285   3.390   5.598   0.583
 5441TIP3   OH216286   0.801   0.365   3.563
 5441TIP3    H116287   0.748   0.367   3.643
 5441TIP3    H216288   0.820   0.272   3.550
 5442TIP3   OH216289   6.345   3.714   3.923
 5442TIP3    H116290   6.398   3.645   3.962
 5442TIP3    H216291   6.319   3.769   3.997
 5443TIP3   OH216292   3.162   0.655   1.763
 5443TIP3    H116293   3.200   0.740   1.744
 5443TIP3    H216294   3.092   0.645   1.697
 5444TIP3   OH216295   0.836   1.231   0.464
 5444TIP3    H116296   0.855   1.217   0.371
 5444TIP3    H216297   0.804   1.321   0.469
 5445TIP3   OH216298   5.454   5.921   1.797
 5445TIP3    H116299   5.481   5.871   1.874
 5445TIP3    H216300   5.468   5.860   1.724
 5446TIP3   OH216301   1.832   0.665   0.727
 5446TIP3    H116302   1.841   0.755   0.760
 5446TIP3    H216303   1.764   0.672   0.660
 5447TIP3   OH216304   4.409   3.445   4.671
 5447TIP3    H116305   4.438   3.485   4.753
 5447TIP3    H216306   4.409   3.351   4.688
 5448TIP3   OH216307   4.978   4.286   3.156
 5448TIP3    H116308   4.932   4.276   3.073
 5448TIP3    H216309   5.047   4.221   3.153
 5449TIP3   OH216310   1.488   3.670   5.201
 5449TIP3    H116311   1.560   3.611   5.175
 5449TIP3    H216312   1.412   3.612   5.211
 5450TIP3   OH216313   2.893   3.661   5.563
 5450TIP3    H116314   2.832   3.701   5.501
 5450TIP3    H216315   2.974   3.709   5.552
 5451TIP3   OH216316   6.636   2.245   2.630
 5451TIP3    H116317   6.666   2.261   2.719
 5451TIP3    H216318   6.695   2.297   2.575
 5452TIP3   OH216319   0.410   6.225   4.508
 5452TIP3    H116320   0.336   6.183   4.465
 5452TIP3    H216321   0.436   6.296   4.449
 5453TIP3   OH216322   0.864   5.386   3.426
 5453TIP3    H116323   0.867   5.451   3.356
 5453TIP3    H216324   0.934   5.324   3.403
 5454TIP3   OH216325   4.377   0.549   5.195
 5454TIP3    H116326   4.452   0.521   5.248
 5454TIP3    H216327   4.412   0.621   5.142
 5455TIP3   OH216328   3.284   4.088   0.955
 5455TIP3    H116329   3.306   4.154   0.888
 5455TIP3    H216330   3.259   4.011   0.904
 5456TIP3   OH216331   3.776   4.747   2.768
 5456TIP3    H116332   3.713   4.676   2.764
 5456TIP3    H216333   3.724   4.827   2.755
 5457TIP3   OH216334   3.189   3.213   5.804
 5457TIP3    H116335   3.116   3.275   5.801
 5457TIP3    H216336   3.149   3.130   5.831
 5458TIP3   OH216337   1.159   1.983   4.316
 5458TIP3    H116338   1.095   2.005   4.384
 5458TIP3    H216339   1.236   2.036   4.337
 5459TIP3   OH216340   2.142   3.189   5.493
 5459TIP3    H116341   2.164   3.124   5.560
 5459TIP3    H216342   2.190   3.160   5.416
 5460TIP3   OH216343   1.002   6.560   0.061
 5460TIP3    H116344   1.031   6.493   0.123
 5460TIP3    H216345   0.922   6.524   0.023
 5461TIP3   OH216346   6.648   5.769   3.663
 5461TIP3    H116347   6.572   5.739   3.613
 5461TIP3    H216348   6.676   5.692   3.713
 5462TIP3   OH216349   6.025   2.440   0.800
 5462TIP3    H116350   6.013   2.498   0.724
 5462TIP3    H216351   6.005   2.353   0.766
 5463TIP3   OH216352   0.738   0.973   3.381
 5463TIP3    H116353   0.729   0.888   3.338
 5463TIP3    H216354   0.779   1.030   3.316
 5464TIP3   OH216355   5.760   5.410   4.128
 5464TIP3    H116356   5.783   5.500   4.149
 5464TIP3    H216357   5.681   5.393   4.180
 5465TIP3   OH216358   0.361   6.094   5.744
 5465TIP3    H116359   0.315   6.040   5.680
 5465TIP3    H216360   0.302   6.168   5.760
 5466TIP3   OH216361   1.128   1.593   2.770
 5466TIP3    H116362   1.124   1.572   2.864
 5466TIP3    H216363   1.045   1.637   2.752
 5467TIP3   OH216364   6.386   6.591   3.807
 5467TIP3    H116365   6.365   6.616   3.896
 5467TIP3    H216366   6.349   6.504   3.796
 5468TIP3   OH216367   6.664   0.061   1.723
 5468TIP3    H116368   6.752   0.097   1.728
 5468TIP3    H216369   6.633   0.061   1.814
 5469TIP3   OH216370   3.429   4.510   4.403
 5469TIP3    H116371   3.498   4.455   4.438
 5469TIP3    H216372   3.386   4.546   4.480
 5470TIP3   OH216373   1.525   5.410   0.040
 5470TIP3    H116374   1.554   5.411   0.131
 5470TIP3    H216375   1.448   5.468   0.039
 5471TIP3   OH216376   2.029   5.032   4.467
 5471TIP3    H116377   1.960   5.000   4.525
 5471TIP3    H216378   2.083   5.089   4.521
 5472TIP3   OH216379   5.694   6.728   1.139
 5472TIP3    H116380   5.669   6.817   1.166
 5472TIP3    H216381   5.785   6.720   1.165
 5473TIP3   OH216382   2.438   4.669   5.065
 5473TIP3    H116383   2.506   4.602   5.062
 5473TIP3    H216384   2.470   4.738   5.006
 5474TIP3   OH216385   1.859   0.621   4.475
 5474TIP3    H116386   1.808   0.540   4.475
 5474TIP3    H216387   1.927   0.606   4.409
 5475TIP3   OH216388   3.076   1.330   3.251
 5475TIP3    H116389   3.076   1.236   3.270
 5475TIP3    H216390   3.127   1.338   3.171
 5476TIP3   OH216391   3.211   2.081   1.474
 5476TIP3    H116392   3.298   2.081   1.433
 5476TIP3    H216393   3.168   2.004   1.438
 5477TIP3   OH216394   6.795   1.410   5.445
 5477TIP3    H116395   6.885   1.381   5.458
 5477TIP3    H216396   6.759   1.418   5.534
 5478TIP3   OH216397   4.107   5.001   2.458
 5478TIP3    H116398   4.041   5.063   2.427
 5478TIP3    H216399   4.079   4.917   2.421
 5479TIP3   OH216400   6.506   1.506   5.415
 5479TIP3    H116401   6.437   1.521   5.350
 5479TIP3    H216402   6.570   1.575   5.398
 5480TIP3   OH216403   4.305   2.462   3.192
 5480TIP3    H116404   4.253   2.435   3.267
 5480TIP3    H216405   4.338   2.549   3.215
 5481TIP3   OH216406   6.307  -0.091   1.604
 5481TIP3    H116407   6.221  -0.089   1.563
 5481TIP3    H216408   6.344  -0.004   1.588
 5482TIP3   OH216409   4.127   6.139   5.242
 5482TIP3    H116410   4.119   6.153   5.337
 5482TIP3    H216411   4.208   6.088   5.233
 5483TIP3   OH216412   2.566   4.547   3.287
 5483TIP3    H116413   2.486   4.568   3.239
 5483TIP3    H216414   2.635   4.546   3.220
 5484TIP3   OH216415   6.755   1.477   1.641
 5484TIP3    H116416   6.786   1.506   1.727
 5484TIP3    H216417   6.829   1.431   1.602
 5485TIP3   OH216418   5.523   4.711   4.314
 5485TIP3    H116419   5.575   4.635   4.339
 5485TIP3    H216420   5.467   4.728   4.389
 5486TIP3   OH216421   6.339   2.831   4.433
 5486TIP3    H116422   6.338   2.904   4.371
 5486TIP3    H216423   6.254   2.835   4.477
 5487TIP3   OH216424   3.279   3.638   0.249
 5487TIP3    H116425   3.224   3.622   0.172
 5487TIP3    H216426   3.230   3.702   0.301
 5488TIP3   OH216427   0.808   5.636   3.542
 5488TIP3    H116428   0.817   5.635   3.637
 5488TIP3    H216429   0.778   5.547   3.520
 5489TIP3   OH216430   0.399   5.253   5.727
 5489TIP3    H116431   0.393   5.296   5.641
 5489TIP3    H216432   0.365   5.164   5.711
 5490TIP3   OH216433   7.092   2.717   3.850
 5490TIP3    H116434   7.070   2.744   3.761
 5490TIP3    H216435   7.176   2.671   3.841
 5491TIP3   OH216436   3.427   0.451   0.091
 5491TIP3    H116437   3.416   0.357   0.080
 5491TIP3    H216438   3.428   0.486   0.001
 5492TIP3   OH216439   6.042   0.174   5.911
 5492TIP3    H116440   5.978   0.235   5.948
 5492TIP3    H216441   6.056   0.109   5.980
 5493TIP3   OH216442   0.718   2.546   4.679
 5493TIP3    H116443   0.741   2.617   4.619
 5493TIP3    H216444   0.706   2.588   4.764
 5494TIP3   OH216445   2.908   1.103   5.054
 5494TIP3    H116446   2.872   1.068   4.972
 5494TIP3    H216447   3.002   1.102   5.041
 5495TIP3   OH216448   0.123   1.079   2.565
 5495TIP3    H116449   0.098   0.987   2.564
 5495TIP3    H216450   0.059   1.122   2.508
 5496TIP3   OH216451  -0.041   4.399   2.540
 5496TIP3    H116452   0.038   4.360   2.576
 5496TIP3    H216453  -0.021   4.493   2.533
 5497TIP3   OH216454   6.187   4.219   4.085
 5497TIP3    H116455   6.236   4.180   4.158
 5497TIP3    H216456   6.125   4.151   4.059
 5498TIP3   OH216457   3.504   5.821   1.784
 5498TIP3    H116458   3.571   5.874   1.741
 5498TIP3    H216459   3.541   5.733   1.787
 5499TIP3   OH216460   3.363   5.818   2.948
 5499TIP3    H116461   3.354   5.905   2.909
 5499TIP3    H216462   3.340   5.830   3.040
 5500TIP3   OH216463   5.776   5.765   4.974
 5500TIP3    H116464   5.852   5.753   5.032
 5500TIP3    H216465   5.789   5.700   4.905
 5501TIP3   OH216466   1.605   2.802   3.715
 5501TIP3    H116467   1.642   2.889   3.725
 5501TIP3    H216468   1.571   2.800   3.626
 5502TIP3   OH216469   5.131   3.291   4.890
 5502TIP3    H116470   5.148   3.202   4.918
 5502TIP3    H216471   5.098   3.335   4.968
 5503TIP3   OH216472   4.101   5.192   5.221
 5503TIP3    H116473   4.142   5.219   5.303
 5503TIP3    H216474   4.076   5.274   5.178
 5504TIP3   OH216475   2.540   2.684   0.365
 5504TIP3    H116476   2.455   2.643   0.382
 5504TIP3    H216477   2.550   2.678   0.270
 5505TIP3   OH216478   5.905   4.481   5.849
 5505TIP3    H116479   5.886   4.499   5.941
 5505TIP3    H216480   5.869   4.393   5.833
 5506TIP3   OH216481   4.532   0.959   0.055
 5506TIP3    H116482   4.605   1.014   0.082
 5506TIP3    H216483   4.519   0.980  -0.038
 5507TIP3   OH216484   4.063   5.283   3.263
 5507TIP3    H116485   4.035   5.200   3.225
 5507TIP3    H216486   4.072   5.265   3.357
 5508TIP3   OH216487   6.704   2.581   3.941
 5508TIP3    H116488   6.772   2.648   3.949
 5508TIP3    H216489   6.671   2.591   3.852
 5509TIP3   OH216490   5.421   2.723   1.310
 5509TIP3    H116491   5.506   2.721   1.354
 5509TIP3    H216492   5.358   2.698   1.378
 5510TIP3   OH216493   0.263   1.900   3.425
 5510TIP3    H116494   0.187   1.851   3.456
 5510TIP3    H216495   0.256   1.898   3.330
 5511TIP3   OH216496   4.334   5.558   2.395
 5511TIP3    H116497   4.317   5.648   2.368
 5511TIP3    H216498   4.339   5.561   2.490
 5512TIP3   OH216499   2.909   6.587   3.053
 5512TIP3    H116500   2.971   6.618   3.119
 5512TIP3    H216501   2.834   6.556   3.103
 5513TIP3   OH216502   2.326   4.506   2.770
 5513TIP3    H116503   2.410   4.491   2.726
 5513TIP3    H216504   2.266   4.530   2.700
 5514TIP3   OH216505   4.563   5.187   3.700
 5514TIP3    H116506   4.497   5.136   3.747
 5514TIP3    H216507   4.518   5.215   3.620
 5515TIP3   OH216508   2.181   4.693   5.179
 5515TIP3    H116509   2.159   4.742   5.100
 5515TIP3    H216510   2.277   4.688   5.179
 5516TIP3   OH216511   4.795   6.263   2.264
 5516TIP3    H116512   4.819   6.356   2.272
 5516TIP3    H216513   4.827   6.238   2.178
 5517TIP3   OH216514   5.274   5.645   5.754
 5517TIP3    H116515   5.219   5.573   5.787
 5517TIP3    H216516   5.217   5.693   5.694
 5518TIP3   OH216517   1.568   1.256   0.474
 5518TIP3    H116518   1.590   1.285   0.385
 5518TIP3    H216519   1.484   1.210   0.465
 5519TIP3   OH216520   1.453   4.784   1.264
 5519TIP3    H116521   1.453   4.802   1.170
 5519TIP3    H216522   1.365   4.809   1.294
 5520TIP3   OH216523   1.570   1.340   2.434
 5520TIP3    H116524   1.577   1.326   2.339
 5520TIP3    H216525   1.649   1.300   2.470
 5521TIP3   OH216526   3.422   2.645   2.964
 5521TIP3    H116527   3.420   2.555   2.994
 5521TIP3    H216528   3.367   2.646   2.886
 5522TIP3   OH216529   4.521   6.084   5.415
 5522TIP3    H116530   4.612   6.054   5.410
 5522TIP3    H216531   4.487   6.042   5.494
 5523TIP3   OH216532   2.661   0.508   5.186
 5523TIP3    H116533   2.637   0.584   5.239
 5523TIP3    H216534   2.648   0.433   5.243
 5524TIP3   OH216535   4.446   3.976   1.051
 5524TIP3    H116536   4.371   3.980   0.991
 5524TIP3    H216537   4.523   3.983   0.995
 5525TIP3   OH216538   1.960   0.362   4.519
 5525TIP3    H116539   1.915   0.281   4.496
 5525TIP3    H216540   2.018   0.379   4.444
 5526TIP3   OH216541   2.402   3.097   1.988
 5526TIP3    H116542   2.383   3.191   1.986
 5526TIP3    H216543   2.494   3.090   1.962
 5527TIP3   OH216544   4.647   1.809   5.559
 5527TIP3    H116545   4.593   1.886   5.576
 5527TIP3    H216546   4.642   1.797   5.464
 5528TIP3   OH216547   1.844   0.685   2.001
 5528TIP3    H116548   1.806   0.667   2.087
 5528TIP3    H216549   1.809   0.617   1.944
 5529TIP3   OH216550   1.105   1.774   1.566
 5529TIP3    H116551   1.112   1.818   1.650
 5529TIP3    H216552   1.028   1.813   1.524
 5530TIP3   OH216553   6.197   6.488   0.137
 5530TIP3    H116554   6.148   6.468   0.217
 5530TIP3    H216555   6.242   6.570   0.157
 5531TIP3   OH216556   7.167   2.923   0.516
 5531TIP3    H116557   7.162   2.975   0.436
 5531TIP3    H216558   7.128   2.979   0.583
 5532TIP3   OH216559   4.975   0.212   0.675
 5532TIP3    H116560   5.038   0.273   0.638
 5532TIP3    H216561   4.964   0.145   0.608
 5533TIP3   OH216562   1.423   1.725   4.073
 5533TIP3    H116563   1.350   1.684   4.120
 5533TIP3    H216564   1.476   1.765   4.142
 5534TIP3   OH216565   3.006   3.047   1.981
 5534TIP3    H116566   3.087   3.005   1.952
 5534TIP3    H216567   2.978   2.995   2.057
 5535TIP3   OH216568   4.368   0.253   2.793
 5535TIP3    H116569   4.421   0.214   2.722
 5535TIP3    H216570   4.281   0.261   2.755
 5536TIP3   OH216571   7.082   3.900   3.480
 5536TIP3    H116572   7.080   3.966   3.411
 5536TIP3    H216573   6.997   3.855   3.472
 5537TIP3   OH216574   5.487   1.389   3.717
 5537TIP3    H116575   5.478   1.299   3.748
 5537TIP3    H216576   5.565   1.388   3.661
 5538TIP3   OH216577   0.551   0.628   2.361
 5538TIP3    H116578   0.597   0.620   2.277
 5538TIP3    H216579   0.553   0.540   2.399
 5539TIP3   OH216580   4.767   1.899   4.831
 5539TIP3    H116581   4.727   1.906   4.917
 5539TIP3    H216582   4.721   1.827   4.788
 5540TIP3   OH216583   3.649   5.616   5.085
 5540TIP3    H116584   3.703   5.554   5.037
 5540TIP3    H216585   3.563   5.611   5.043
 5541TIP3   OH216586   3.415   6.323   1.809
 5541TIP3    H116587   3.332   6.348   1.767
 5541TIP3    H216588   3.480   6.332   1.739
 5542TIP3   OH216589   1.230   4.995   4.825
 5542TIP3    H116590   1.245   4.972   4.917
 5542TIP3    H216591   1.140   5.026   4.822
 5543TIP3   OH216592   4.902   4.770   4.223
 5543TIP3    H116593   4.979   4.737   4.176
 5543TIP3    H216594   4.842   4.796   4.153
 5544TIP3   OH216595   1.190   2.559   3.345
 5544TIP3    H116596   1.200   2.650   3.372
 5544TIP3    H216597   1.230   2.554   3.259
 5545TIP3   OH216598   1.037   4.366   0.462
 5545TIP3    H116599   1.095   4.389   0.390
 5545TIP3    H216600   0.952   4.402   0.436
 5546TIP3   OH216601   2.044   0.140   4.975
 5546TIP3    H116602   2.099   0.216   4.990
 5546TIP3    H216603   2.105   0.066   4.970
 5547TIP3   OH216604   0.210   4.850   3.583
 5547TIP3    H116605   0.285   4.910   3.570
 5547TIP3    H216606   0.243   4.765   3.554
 5548TIP3   OH216607   2.487   5.792   1.619
 5548TIP3    H116608   2.440   5.845   1.554
 5548TIP3    H216609   2.568   5.766   1.575
 5549TIP3   OH216610   5.189   4.132   2.518
 5549TIP3    H116611   5.203   4.214   2.470
 5549TIP3    H216612   5.151   4.072   2.453
 5550TIP3   OH216613   4.301   6.417   3.306
 5550TIP3    H116614   4.269   6.327   3.316
 5550TIP3    H216615   4.224   6.466   3.275
 5551TIP3   OH216616   5.456   3.490   0.794
 5551TIP3    H116617   5.483   3.409   0.838
 5551TIP3    H216618   5.360   3.491   0.802
 5552TIP3   OH216619   3.300   5.872   5.324
 5552TIP3    H116620   3.225   5.915   5.367
 5552TIP3    H216621   3.262   5.831   5.246
 5553TIP3   OH216622   0.420   4.463   2.175
 5553TIP3    H116623   0.456   4.524   2.111
 5553TIP3    H216624   0.355   4.515   2.223
 5554TIP3   OH216625   4.673   1.538   1.963
 5554TIP3    H116626   4.762   1.571   1.975
 5554TIP3    H216627   4.650   1.564   1.874
 5555TIP3   OH216628   0.412   6.055   2.445
 5555TIP3    H116629   0.399   6.017   2.532
 5555TIP3    H216630   0.482   6.119   2.457
 5556TIP3   OH216631   6.004   1.983   5.821
 5556TIP3    H116632   6.035   2.011   5.908
 5556TIP3    H216633   5.997   2.065   5.771
 5557TIP3   OH216634   5.457   3.598   2.867
 5557TIP3    H116635   5.454   3.609   2.772
 5557TIP3    H216636   5.524   3.659   2.896
 5558TIP3   OH216637   2.463   2.609   5.305
 5558TIP3    H116638   2.423   2.592   5.220
 5558TIP3    H216639   2.550   2.643   5.285
 5559TIP3   OH216640   5.713   5.756   0.203
 5559TIP3    H116641   5.758   5.822   0.256
 5559TIP3    H216642   5.758   5.674   0.223
 5560TIP3   OH216643   0.243   2.197   0.212
 5560TIP3    H116644   0.291   2.201   0.129
 5560TIP3    H216645   0.289   2.258   0.269
 5561TIP3   OH216646   5.565   1.145   5.385
 5561TIP3    H116647   5.636   1.195   5.424
 5561TIP3    H216648   5.562   1.064   5.435
 5562TIP3   OH216649   4.251   1.517   0.583
 5562TIP3    H116650   4.297   1.599   0.563
 5562TIP3    H216651   4.264   1.464   0.505
 5563TIP3   OH216652   3.159   0.418   0.609
 5563TIP3    H116653   3.083   0.430   0.551
 5563TIP3    H216654   3.210   0.498   0.600
 5564TIP3   OH216655   3.645   5.887   2.299
 5564TIP3    H116656   3.575   5.884   2.364
 5564TIP3    H216657   3.602   5.918   2.219
 5565TIP3   OH216658   3.675   1.373   3.891
 5565TIP3    H116659   3.728   1.311   3.941
 5565TIP3    H216660   3.707   1.367   3.802
 5566TIP3   OH216661   6.582   1.971   3.504
 5566TIP3    H116662   6.634   2.050   3.491
 5566TIP3    H216663   6.592   1.922   3.422
 5567TIP3   OH216664   0.051   3.392   1.023
 5567TIP3    H116665   0.141   3.411   0.999
 5567TIP3    H216666   0.005   3.475   1.014
 5568TIP3   OH216667   0.151   0.579   3.149
 5568TIP3    H116668   0.181   0.620   3.068
 5568TIP3    H216669   0.111   0.496   3.120
 5569TIP3   OH216670   1.368   5.454   2.768
 5569TIP3    H116671   1.327   5.474   2.852
 5569TIP3    H216672   1.417   5.373   2.785
 5570TIP3   OH216673   7.158   0.891   0.709
 5570TIP3    H116674   7.208   0.972   0.701
 5570TIP3    H216675   7.222   0.826   0.738
 5571TIP3   OH216676   1.522   5.141   2.031
 5571TIP3    H116677   1.530   5.063   2.086
 5571TIP3    H216678   1.478   5.206   2.086
 5572TIP3   OH216679   2.960   5.602   4.545
 5572TIP3    H116680   2.934   5.674   4.603
 5572TIP3    H216681   2.879   5.555   4.528
 5573TIP3   OH216682   5.677   1.656   2.019
 5573TIP3    H116683   5.670   1.622   2.108
 5573TIP3    H216684   5.592   1.697   2.003
 5574TIP3   OH216685   6.091   6.622   5.799
 5574TIP3    H116686   6.052   6.535   5.797
 5574TIP3    H216687   6.046   6.671   5.729
 5575TIP3   OH216688   3.701   6.736   5.705
 5575TIP3    H116689   3.707   6.781   5.620
 5575TIP3    H216690   3.784   6.757   5.748
 5576TIP3   OH216691   2.577   4.072   4.159
 5576TIP3    H116692   2.529   3.993   4.134
 5576TIP3    H216693   2.667   4.055   4.132
 5577TIP3   OH216694   5.201   6.544   3.860
 5577TIP3    H116695   5.247   6.602   3.921
 5577TIP3    H216696   5.268   6.513   3.800
 5578TIP3   OH216697   1.317   1.642   5.650
 5578TIP3    H116698   1.287   1.626   5.561
 5578TIP3    H216699   1.387   1.578   5.664
 5579TIP3   OH216700   2.340   0.811   0.625
 5579TIP3    H116701   2.303   0.881   0.570
 5579TIP3    H216702   2.336   0.845   0.714
 5580TIP3   OH216703   3.986   1.024   4.168
 5580TIP3    H116704   4.078   1.021   4.194
 5580TIP3    H216705   3.972   1.113   4.137
 5581TIP3   OH216706   1.134   5.958   4.732
 5581TIP3    H116707   1.082   6.013   4.673
 5581TIP3    H216708   1.204   5.923   4.676
 5582TIP3   OH216709   1.788   3.748   5.085
 5582TIP3    H116710   1.747   3.662   5.081
 5582TIP3    H216711   1.742   3.794   5.155
 5583TIP3   OH216712   4.452   5.007   5.700
 5583TIP3    H116713   4.402   5.066   5.757
 5583TIP3    H216714   4.493   5.064   5.636
 5584TIP3   OH216715   3.802   1.179   2.490
 5584TIP3    H116716   3.735   1.121   2.453
 5584TIP3    H216717   3.874   1.175   2.427
 5585TIP3   OH216718   6.841   3.060   5.496
 5585TIP3    H116719   6.803   2.986   5.543
 5585TIP3    H216720   6.922   3.079   5.543
 5586TIP3   OH216721   6.334   4.528   5.839
 5586TIP3    H116722   6.354   4.590   5.770
 5586TIP3    H216723   6.258   4.566   5.884
 5587TIP3   OH216724   1.677   0.957   2.108
 5587TIP3    H116725   1.633   0.948   2.024
 5587TIP3    H216726   1.656   0.876   2.155
 5588TIP3   OH216727   0.718   3.496   1.939
 5588TIP3    H116728   0.698   3.543   1.858
 5588TIP3    H216729   0.743   3.565   2.001
 5589TIP3   OH216730   4.214   2.974   4.397
 5589TIP3    H116731   4.138   3.020   4.432
 5589TIP3    H216732   4.233   2.906   4.463
 5590TIP3   OH216733   6.214   0.793   3.168
 5590TIP3    H116734   6.255   0.873   3.135
 5590TIP3    H216735   6.197   0.811   3.260
 5591TIP3   OH216736   6.983   2.580   4.362
 5591TIP3    H116737   7.008   2.568   4.270
 5591TIP3    H216738   6.920   2.511   4.379
 5592TIP3   OH216739   5.682   5.587   3.241
 5592TIP3    H116740   5.663   5.654   3.174
 5592TIP3    H216741   5.597   5.547   3.258
 5593TIP3   OH216742   4.484   1.170   4.546
 5593TIP3    H116743   4.496   1.082   4.581
 5593TIP3    H216744   4.540   1.173   4.468
 5594TIP3   OH216745   6.067   4.893   3.393
 5594TIP3    H116746   6.161   4.871   3.398
 5594TIP3    H216747   6.066   4.986   3.372
 5595TIP3   OH216748   5.193   2.792   0.756
 5595TIP3    H116749   5.107   2.786   0.715
 5595TIP3    H216750   5.246   2.840   0.693
 5596TIP3   OH216751   1.432   4.320   5.446
 5596TIP3    H116752   1.417   4.232   5.480
 5596TIP3    H216753   1.415   4.312   5.352
 5597TIP3   OH216754   5.322   4.278   5.321
 5597TIP3    H116755   5.277   4.340   5.379
 5597TIP3    H216756   5.315   4.317   5.234
 5598TIP3   OH216757   1.066   0.978   3.275
 5598TIP3    H116758   1.091   0.967   3.367
 5598TIP3    H216759   1.062   1.073   3.262
 5599TIP3   OH216760   1.973   5.230   1.224
 5599TIP3    H116761   2.057   5.276   1.229
 5599TIP3    H216762   1.907   5.299   1.233
 5600TIP3   OH216763   2.565   2.194   1.085
 5600TIP3    H116764   2.646   2.161   1.124
 5600TIP3    H216765   2.496   2.137   1.120
 5601TIP3   OH216766   0.325   5.864   2.666
 5601TIP3    H116767   0.258   5.852   2.734
 5601TIP3    H216768   0.283   5.833   2.586
 5602TIP3   OH216769   3.743   0.987   1.437
 5602TIP3    H116770   3.796   0.909   1.453
 5602TIP3    H216771   3.665   0.954   1.392
 5603TIP3   OH216772   6.278   5.265   5.541
 5603TIP3    H116773   6.355   5.304   5.499
 5603TIP3    H216774   6.216   5.250   5.470
 5604TIP3   OH216775   3.203   4.137   0.318
 5604TIP3    H116776   3.275   4.154   0.380
 5604TIP3    H216777   3.124   4.136   0.372
 5605TIP3   OH216778   1.362   1.374   5.927
 5605TIP3    H116779   1.445   1.382   5.881
 5605TIP3    H216780   1.295   1.386   5.860
 5606TIP3   OH216781   5.031   4.748   4.928
 5606TIP3    H116782   4.990   4.672   4.970
 5606TIP3    H216783   5.101   4.711   4.875
 5607TIP3   OH216784   7.094   5.055   0.579
 5607TIP3    H116785   7.117   5.010   0.497
 5607TIP3    H216786   7.155   5.019   0.643
 5608TIP3   OH216787   6.907   1.990   1.683
 5608TIP3    H116788   6.916   1.908   1.635
 5608TIP3    H216789   6.884   2.055   1.616
 5609TIP3   OH216790   6.082   4.581   2.176
 5609TIP3    H116791   5.987   4.597   2.174
 5609TIP3    H216792   6.106   4.598   2.267
 5610TIP3   OH216793   2.875   2.573   4.266
 5610TIP3    H116794   2.877   2.494   4.321
 5610TIP3    H216795   2.947   2.626   4.299
 5611TIP3   OH216796   4.587   6.525   5.021
 5611TIP3    H116797   4.595   6.619   5.035
 5611TIP3    H216798   4.678   6.493   5.017
 5612TIP3   OH216799   3.980   1.566   5.804
 5612TIP3    H116800   4.060   1.528   5.841
 5612TIP3    H216801   3.916   1.558   5.875
 5613TIP3   OH216802   5.432   4.976   5.071
 5613TIP3    H116803   5.342   4.962   5.101
 5613TIP3    H216804   5.486   4.943   5.143
 5614TIP3   OH216805   1.865   3.632   3.867
 5614TIP3    H116806   1.952   3.650   3.903
 5614TIP3    H216807   1.850   3.704   3.805
 5615TIP3   OH216808   3.670   2.128   1.782
 5615TIP3    H116809   3.730   2.073   1.732
 5615TIP3    H216810   3.636   2.070   1.850
 5616TIP3   OH216811   1.366   0.143   4.231
 5616TIP3    H116812   1.393   0.099   4.312
 5616TIP3    H216813   1.439   0.200   4.210
 5617TIP3   OH216814   6.692   1.758   0.442
 5617TIP3    H116815   6.654   1.842   0.467
 5617TIP3    H216816   6.754   1.779   0.373
 5618TIP3   OH216817   6.355   6.107   5.630
 5618TIP3    H116818   6.443   6.104   5.594
 5618TIP3    H216819   6.352   6.188   5.680
 5619TIP3   OH216820   2.311   6.662   2.335
 5619TIP3    H116821   2.334   6.748   2.371
 5619TIP3    H216822   2.289   6.679   2.244
 5620TIP3   OH216823   4.726   4.225   5.191
 5620TIP3    H116824   4.771   4.224   5.106
 5620TIP3    H216825   4.662   4.154   5.185
 5621TIP3   OH216826   3.798   5.601   5.691
 5621TIP3    H116827   3.799   5.505   5.696
 5621TIP3    H216828   3.710   5.623   5.660
 5622TIP3   OH216829   6.325   1.208   1.705
 5622TIP3    H116830   6.277   1.270   1.650
 5622TIP3    H216831   6.327   1.249   1.791
 5623TIP3   OH216832   0.265   3.576   1.878
 5623TIP3    H116833   0.204   3.589   1.950
 5623TIP3    H216834   0.350   3.561   1.920
 5624TIP3   OH216835   4.493   5.697   1.587
 5624TIP3    H116836   4.415   5.751   1.575
 5624TIP3    H216837   4.533   5.694   1.500
 5625TIP3   OH216838   1.395   3.374   3.533
 5625TIP3    H116839   1.375   3.387   3.625
 5625TIP3    H216840   1.428   3.285   3.527
 5626TIP3   OH216841   4.658   4.776   3.807
 5626TIP3    H116842   4.690   4.809   3.723
 5626TIP3    H216843   4.699   4.833   3.872
 5627TIP3   OH216844   6.498   4.506   2.599
 5627TIP3    H116845   6.411   4.542   2.583
 5627TIP3    H216846   6.501   4.426   2.547
 5628TIP3   OH216847   5.088   5.741   2.563
 5628TIP3    H116848   4.999   5.752   2.595
 5628TIP3    H216849   5.142   5.790   2.625
 5629TIP3   OH216850   4.586   1.092   0.760
 5629TIP3    H116851   4.640   1.013   0.746
 5629TIP3    H216852   4.562   1.120   0.672
 5630TIP3   OH216853   5.129   4.610   0.630
 5630TIP3    H116854   5.160   4.568   0.710
 5630TIP3    H216855   5.203   4.661   0.599
 5631TIP3   OH216856   3.930   2.364   3.911
 5631TIP3    H116857   3.998   2.371   3.979
 5631TIP3    H216858   3.875   2.442   3.925
 5632TIP3   OH216859   5.974   3.312   3.225
 5632TIP3    H116860   5.974   3.387   3.283
 5632TIP3    H216861   6.065   3.281   3.225
 5633TIP3   OH216862   3.205   2.295   3.952
 5633TIP3    H116863   3.189   2.310   3.859
 5633TIP3    H216864   3.276   2.355   3.974
 5634TIP3   OH216865   1.846   6.201   3.865
 5634TIP3    H116866   1.911   6.140   3.831
 5634TIP3    H216867   1.895   6.258   3.925
 5635TIP3   OH216868   5.326   0.021   1.939
 5635TIP3    H116869   5.298  -0.009   2.026
 5635TIP3    H216870   5.398  -0.037   1.916
 5636TIP3   OH216871   1.978   4.367   1.937
 5636TIP3    H116872   2.024   4.436   1.985
 5636TIP3    H216873   1.970   4.402   1.848
 5637TIP3   OH216874   6.739   4.177   5.675
 5637TIP3    H116875   6.766   4.134   5.594
 5637TIP3    H216876   6.667   4.122   5.708
 5638TIP3   OH216877   1.106   5.255   5.076
 5638TIP3    H116878   1.079   5.231   5.165
 5638TIP3    H216879   1.024   5.264   5.028
 5639TIP3   OH216880   2.998   2.146   3.692
 5639TIP3    H116881   3.004   2.051   3.690
 5639TIP3    H216882   2.924   2.167   3.634
 5640TIP3   OH216883   0.389   3.823   0.368
 5640TIP3    H116884   0.429   3.751   0.417
 5640TIP3    H216885   0.295   3.808   0.374
 5641TIP3   OH216886   6.093   2.038   2.953
 5641TIP3    H116887   6.106   1.969   3.018
 5641TIP3    H216888   6.148   2.012   2.879
 5642TIP3   OH216889   6.438   2.213   5.287
 5642TIP3    H116890   6.388   2.147   5.335
 5642TIP3    H216891   6.403   2.208   5.198
 5643TIP3   OH216892   5.990   2.594   5.831
 5643TIP3    H116893   6.024   2.602   5.920
 5643TIP3    H216894   6.066   2.602   5.775
 5644TIP3   OH216895   1.439   2.860   2.023
 5644TIP3    H116896   1.436   2.867   2.118
 5644TIP3    H216897   1.512   2.801   2.005
 5645TIP3   OH216898   0.900   5.520   2.376
 5645TIP3    H116899   0.822   5.473   2.406
 5645TIP3    H216900   0.902   5.600   2.428
 5646TIP3   OH216901   1.244   5.429   1.546
 5646TIP3    H116902   1.308   5.480   1.597
 5646TIP3    H216903   1.290   5.348   1.523
 5647TIP3   OH216904   4.504   4.641   4.632
 5647TIP3    H116905   4.593   4.673   4.643
 5647TIP3    H216906   4.511   4.546   4.643
 5648TIP3   OH216907   3.611   5.835   3.390
 5648TIP3    H116908   3.657   5.780   3.453
 5648TIP3    H216909   3.659   5.822   3.308
 5649TIP3   OH216910   4.915   6.232   0.989
 5649TIP3    H116911   4.885   6.150   0.951
 5649TIP3    H216912   4.965   6.207   1.066
 5650TIP3   OH216913   5.303   2.048   5.466
 5650TIP3    H116914   5.337   2.022   5.552
 5650TIP3    H216915   5.351   1.994   5.404
 5651TIP3   OH216916   4.559   4.630   1.382
 5651TIP3    H116917   4.537   4.543   1.349
 5651TIP3    H216918   4.484   4.656   1.436
 5652TIP3   OH216919   4.418   0.924   5.535
 5652TIP3    H116920   4.400   0.946   5.443
 5652TIP3    H216921   4.363   0.985   5.585
 5653TIP3   OH216922   0.444   4.037   1.067
 5653TIP3    H116923   0.472   3.986   0.991
 5653TIP3    H216924   0.506   4.110   1.071
 5654TIP3   OH216925   1.767   0.898   4.368
 5654TIP3    H116926   1.840   0.839   4.381
 5654TIP3    H216927   1.697   0.843   4.333
 5655TIP3   OH216928   6.584   0.910   3.826
 5655TIP3    H116929   6.633   0.991   3.839
 5655TIP3    H216930   6.493   0.937   3.821
 5656TIP3   OH216931   2.773   4.288   5.272
 5656TIP3    H116932   2.860   4.311   5.239
 5656TIP3    H216933   2.764   4.339   5.353
 5657TIP3   OH216934   0.228   0.311   5.465
 5657TIP3    H116935   0.192   0.232   5.425
 5657TIP3    H216936   0.322   0.308   5.443
 5658TIP3   OH216937   4.467   1.897   0.661
 5658TIP3    H116938   4.398   1.962   0.674
 5658TIP3    H216939   4.544   1.949   0.640
 5659TIP3   OH216940   0.531   0.429   1.287
 5659TIP3    H116941   0.607   0.426   1.229
 5659TIP3    H216942   0.545   0.506   1.341
 5660TIP3   OH216943   0.547   2.210   2.418
 5660TIP3    H116944   0.552   2.303   2.438
 5660TIP3    H216945   0.569   2.205   2.325
 5661TIP3   OH216946   5.801   3.924   4.860
 5661TIP3    H116947   5.876   3.865   4.856
 5661TIP3    H216948   5.786   3.951   4.770
 5662TIP3   OH216949   1.837   1.341   5.826
 5662TIP3    H116950   1.760   1.287   5.805
 5662TIP3    H216951   1.841   1.404   5.754
 5663TIP3   OH216952   0.025   5.654   2.961
 5663TIP3    H116953  -0.051   5.666   2.905
 5663TIP3    H216954   0.086   5.722   2.933
 5664TIP3   OH216955   7.119   2.899   4.164
 5664TIP3    H116956   7.145   2.806   4.160
 5664TIP3    H216957   7.035   2.899   4.209
 5665TIP3   OH216958   5.717   3.733   2.695
 5665TIP3    H116959   5.793   3.782   2.662
 5665TIP3    H216960   5.726   3.646   2.655
 5666TIP3   OH216961   6.324   3.458   3.728
 5666TIP3    H116962   6.364   3.485   3.811
 5666TIP3    H216963   6.308   3.365   3.737
 5667TIP3   OH216964   5.630   0.001  -0.061
 5667TIP3    H116965   5.596   0.090  -0.071
 5667TIP3    H216966   5.708   0.011  -0.007
 5668TIP3   OH216967   4.926   5.270   0.405
 5668TIP3    H116968   4.966   5.290   0.490
 5668TIP3    H216969   4.889   5.183   0.415
 5669TIP3   OH216970   1.085   0.066   2.653
 5669TIP3    H116971   1.128   0.035   2.574
 5669TIP3    H216972   1.065  -0.013   2.703
 5670TIP3   OH216973   4.441   2.824   2.111
 5670TIP3    H116974   4.489   2.905   2.096
 5670TIP3    H216975   4.350   2.852   2.121
 5671TIP3   OH216976   3.618   1.856   1.217
 5671TIP3    H116977   3.630   1.833   1.125
 5671TIP3    H216978   3.656   1.782   1.265
 5672TIP3   OH216979   1.523   3.568   1.725
 5672TIP3    H116980   1.532   3.603   1.636
 5672TIP3    H216981   1.531   3.473   1.714
 5673TIP3   OH216982   2.759   4.084   3.870
 5673TIP3    H116983   2.770   4.032   3.949
 5673TIP3    H216984   2.838   4.067   3.818
 5674TIP3   OH216985   6.623   5.369   2.621
 5674TIP3    H116986   6.632   5.379   2.716
 5674TIP3    H216987   6.530   5.383   2.604
 5675TIP3   OH216988   7.189   3.328   4.426
 5675TIP3    H116989   7.119   3.275   4.390
 5675TIP3    H216990   7.155   3.418   4.424
 5676TIP3   OH216991   6.882   1.181   5.234
 5676TIP3    H116992   6.793   1.207   5.208
 5676TIP3    H216993   6.899   1.100   5.186
 5677TIP3   OH216994   5.777   6.152   0.657
 5677TIP3    H116995   5.739   6.237   0.681
 5677TIP3    H216996   5.766   6.098   0.735
 5678TIP3   OH216997   0.694   3.202   4.651
 5678TIP3    H116998   0.642   3.152   4.588
 5678TIP3    H216999   0.757   3.138   4.685
 5679TIP3   OH217000   5.547   4.793   0.399
 5679TIP3    H117001   5.570   4.727   0.334
 5679TIP3    H217002   5.626   4.845   0.410
 5680TIP3   OH217003   3.663   1.717   2.922
 5680TIP3    H117004   3.695   1.627   2.929
 5680TIP3    H217005   3.578   1.709   2.879
 5681TIP3   OH217006   2.027   3.833   5.047
 5681TIP3    H117007   2.013   3.927   5.049
 5681TIP3    H217008   1.941   3.795   5.062
 5682TIP3   OH217009   4.942   0.681   4.829
 5682TIP3    H117010   4.872   0.664   4.892
 5682TIP3    H217011   4.902   0.665   4.744
 5683TIP3   OH217012   2.633   0.346   0.270
 5683TIP3    H117013   2.555   0.303   0.306
 5683TIP3    H217014   2.706   0.302   0.312
 5684TIP3   OH217015   2.668   2.165   2.332
 5684TIP3    H117016   2.625   2.173   2.248
 5684TIP3    H217017   2.755   2.202   2.318
 5685TIP3   OH217018   5.273   4.727   1.819
 5685TIP3    H117019   5.298   4.654   1.874
 5685TIP3    H217020   5.188   4.701   1.782
 5686TIP3   OH217021   3.691   0.338   0.264
 5686TIP3    H117022   3.780   0.373   0.265
 5686TIP3    H217023   3.661   0.353   0.174
 5687TIP3   OH217024   4.747   0.128   5.440
 5687TIP3    H117025   4.788   0.052   5.399
 5687TIP3    H217026   4.776   0.124   5.531
 5688TIP3   OH217027   4.874   1.819   1.564
 5688TIP3    H117028   4.941   1.755   1.587
 5688TIP3    H217029   4.920   1.886   1.514
 5689TIP3   OH217030   5.720   1.714   3.278
 5689TIP3    H117031   5.805   1.685   3.312
 5689TIP3    H217032   5.708   1.664   3.197
 5690TIP3   OH217033   1.255   0.016   3.595
 5690TIP3    H117034   1.214   0.100   3.577
 5690TIP3    H217035   1.183  -0.047   3.596
 5691TIP3   OH217036   2.152   3.958   3.192
 5691TIP3    H117037   2.211   3.981   3.120
 5691TIP3    H217038   2.167   3.864   3.206
 5692TIP3   OH217039   1.512   0.780   4.327
 5692TIP3    H117040   1.544   0.689   4.324
 5692TIP3    H217041   1.422   0.772   4.357
 5693TIP3   OH217042   0.317   1.489   1.541
 5693TIP3    H117043   0.310   1.556   1.472
 5693TIP3    H217044   0.333   1.408   1.493
 5694TIP3   OH217045   0.456   4.336   0.686
 5694TIP3    H117046   0.514   4.296   0.621
 5694TIP3    H217047   0.387   4.272   0.700
 5695TIP3   OH217048   1.478   1.389   4.926
 5695TIP3    H117049   1.465   1.319   4.990
 5695TIP3    H217050   1.500   1.465   4.979
 5696TIP3   OH217051   6.430   4.118   0.184
 5696TIP3    H117052   6.477   4.200   0.200
 5696TIP3    H217053   6.448   4.065   0.262
 5697TIP3   OH217054   0.028   3.845   0.923
 5697TIP3    H117055   0.102   3.906   0.919
 5697TIP3    H217056   0.064   3.762   0.890
 5698TIP3   OH217057   3.250   4.581   5.031
 5698TIP3    H117058   3.332   4.608   4.990
 5698TIP3    H217059   3.276   4.532   5.109
 5699TIP3   OH217060   5.416   1.103   1.345
 5699TIP3    H117061   5.469   1.073   1.272
 5699TIP3    H217062   5.453   1.059   1.421
 5700TIP3   OH217063   4.702   0.404   1.247
 5700TIP3    H117064   4.694   0.358   1.164
 5700TIP3    H217065   4.788   0.380   1.280
 5701TIP3   OH217066   4.046   0.905   0.048
 5701TIP3    H117067   4.035   0.910   0.143
 5701TIP3    H217068   4.001   0.982   0.014
 5702TIP3   OH217069   0.537   5.837   1.603
 5702TIP3    H117070   0.627   5.847   1.636
 5702TIP3    H217071   0.533   5.746   1.574
 5703TIP3   OH217072   5.407   4.029   1.831
 5703TIP3    H117073   5.420   3.952   1.776
 5703TIP3    H217074   5.439   4.102   1.778
 5704TIP3   OH217075   2.414   3.362   5.789
 5704TIP3    H117076   2.421   3.456   5.770
 5704TIP3    H217077   2.452   3.353   5.876
 5705TIP3   OH217078   5.603   6.501   3.220
 5705TIP3    H117079   5.615   6.594   3.239
 5705TIP3    H217080   5.662   6.457   3.282
 5706TIP3   OH217081   0.756   1.029   5.220
 5706TIP3    H117082   0.741   0.985   5.304
 5706TIP3    H217083   0.693   1.102   5.219
 5707TIP3   OH217084   1.356   5.243   0.490
 5707TIP3    H117085   1.365   5.274   0.400
 5707TIP3    H217086   1.446   5.242   0.524
 5708TIP3   OH217087   6.979   0.669   3.770
 5708TIP3    H117088   7.065   0.636   3.795
 5708TIP3    H217089   6.992   0.707   3.683
 5709TIP3   OH217090   7.128   3.750   5.689
 5709TIP3    H117091   7.102   3.839   5.713
 5709TIP3    H217092   7.181   3.719   5.763
 5710TIP3   OH217093   5.867   4.867   3.109
 5710TIP3    H117094   5.828   4.795   3.060
 5710TIP3    H217095   5.961   4.859   3.093
 5711TIP3   OH217096   2.767   4.517   1.538
 5711TIP3    H117097   2.807   4.599   1.512
 5711TIP3    H217098   2.674   4.538   1.551
 5712TIP3   OH217099   3.734   5.105   0.163
 5712TIP3    H117100   3.712   5.077   0.252
 5712TIP3    H217101   3.752   5.023   0.116
 5713TIP3   OH217102   5.358   6.758   4.009
 5713TIP3    H117103   5.379   6.823   4.076
 5713TIP3    H217104   5.443   6.723   3.981
 5714TIP3   OH217105   4.429   0.616   1.771
 5714TIP3    H117106   4.433   0.705   1.736
 5714TIP3    H217107   4.396   0.627   1.861
 5715TIP3   OH217108   5.556   5.530   1.421
 5715TIP3    H117109   5.545   5.441   1.388
 5715TIP3    H217110   5.547   5.586   1.344
 5716TIP3   OH217111   4.081   1.133   0.646
 5716TIP3    H117112   4.154   1.110   0.589
 5716TIP3    H217113   4.112   1.112   0.734
 5717TIP3   OH217114   2.453   0.605   0.394
 5717TIP3    H117115   2.400   0.685   0.393
 5717TIP3    H217116   2.518   0.618   0.325
 5718TIP3   OH217117   0.483   4.128   4.861
 5718TIP3    H117118   0.453   4.210   4.820
 5718TIP3    H217119   0.534   4.085   4.792
 5719TIP3   OH217120   5.589   2.921   0.327
 5719TIP3    H117121   5.517   2.864   0.299
 5719TIP3    H217122   5.546   2.995   0.370
 5720TIP3   OH217123   5.704   4.288   1.915
 5720TIP3    H117124   5.698   4.284   2.010
 5720TIP3    H217125   5.664   4.373   1.892
 5721TIP3   OH217126   0.851   0.555   1.447
 5721TIP3    H117127   0.773   0.511   1.480
 5721TIP3    H217128   0.905   0.570   1.524
 5722TIP3   OH217129   3.458   0.719   2.029
 5722TIP3    H117130   3.477   0.802   1.986
 5722TIP3    H217131   3.513   0.655   1.984
 5723TIP3   OH217132   3.700   1.860   2.524
 5723TIP3    H117133   3.713   1.953   2.542
 5723TIP3    H217134   3.653   1.826   2.600
 5724TIP3   OH217135   5.819   6.630   1.858
 5724TIP3    H117136   5.763   6.574   1.804
 5724TIP3    H217137   5.767   6.647   1.937
 5725TIP3   OH217138   3.058   6.189   0.830
 5725TIP3    H117139   3.028   6.273   0.865
 5725TIP3    H217140   3.063   6.132   0.907
 5726TIP3   OH217141   2.214   3.666   3.141
 5726TIP3    H117142   2.232   3.674   3.047
 5726TIP3    H217143   2.158   3.589   3.148
 5727TIP3   OH217144   3.710   6.733   0.101
 5727TIP3    H117145   3.688   6.660   0.158
 5727TIP3    H217146   3.804   6.725   0.087
 5728TIP3   OH217147   5.126   5.086   2.599
 5728TIP3    H117148   5.096   4.997   2.582
 5728TIP3    H217149   5.050   5.142   2.580
 5729TIP3   OH217150   1.121   2.383   0.869
 5729TIP3    H117151   1.144   2.316   0.804
 5729TIP3    H217152   1.131   2.339   0.953
 5730TIP3   OH217153   0.409   2.440   5.963
 5730TIP3    H117154   0.335   2.441   5.902
 5730TIP3    H217155   0.450   2.527   5.952
 5731TIP3   OH217156   0.582   0.624   4.838
 5731TIP3    H117157   0.525   0.555   4.802
 5731TIP3    H217158   0.666   0.581   4.851
 5732TIP3   OH217159   4.854   1.957   2.201
 5732TIP3    H117160   4.846   1.937   2.108
 5732TIP3    H217161   4.827   2.048   2.208
 5733TIP3   OH217162   0.150   4.980   3.305
 5733TIP3    H117163   0.238   4.951   3.329
 5733TIP3    H217164   0.118   5.027   3.381
 5734TIP3   OH217165   0.799   1.336   2.424
 5734TIP3    H117166   0.852   1.324   2.503
 5734TIP3    H217167   0.728   1.272   2.433
 5735TIP3   OH217168   6.716   0.301   1.048
 5735TIP3    H117169   6.806   0.328   1.031
 5735TIP3    H217170   6.695   0.339   1.134
 5736TIP3   OH217171   2.408   4.936   4.408
 5736TIP3    H117172   2.453   5.010   4.448
 5736TIP3    H217173   2.407   4.868   4.475
 5737TIP3   OH217174   4.701   1.563   1.207
 5737TIP3    H117175   4.743   1.648   1.193
 5737TIP3    H217176   4.608   1.583   1.216
 5738TIP3   OH217177   1.070   0.269   0.812
 5738TIP3    H117178   1.028   0.274   0.898
 5738TIP3    H217179   1.153   0.315   0.824
 5739TIP3   OH217180   3.627   6.006   4.277
 5739TIP3    H117181   3.649   5.922   4.236
 5739TIP3    H217182   3.570   5.983   4.350
 5740TIP3   OH217183   4.296   3.650   2.750
 5740TIP3    H117184   4.350   3.726   2.728
 5740TIP3    H217185   4.221   3.687   2.797
 5741TIP3   OH217186   4.292   3.655   2.296
 5741TIP3    H117187   4.257   3.741   2.275
 5741TIP3    H217188   4.243   3.595   2.240
 5742TIP3   OH217189   3.148   0.721   4.109
 5742TIP3    H117190   3.069   0.701   4.059
 5742TIP3    H217191   3.128   0.694   4.199
 5743TIP3   OH217192   4.175   4.132   3.037
 5743TIP3    H117193   4.085   4.154   3.058
 5743TIP3    H217194   4.201   4.069   3.104
 5744TIP3   OH217195   3.832   3.242   1.674
 5744TIP3    H117196   3.812   3.148   1.679
 5744TIP3    H217197   3.904   3.248   1.612
 5745TIP3   OH217198   5.373   0.617   0.342
 5745TIP3    H117199   5.439   0.580   0.402
 5745TIP3    H217200   5.331   0.540   0.303
 5746TIP3   OH217201   3.858   1.661   1.218
 5746TIP3    H117202   3.948   1.639   1.194
 5746TIP3    H217203   3.843   1.615   1.300
 5747TIP3   OH217204   0.940   2.094   4.148
 5747TIP3    H117205   1.034   2.097   4.166
 5747TIP3    H217206   0.911   2.009   4.181
 5748TIP3   OH217207   7.145   3.623   4.408
 5748TIP3    H117208   7.113   3.611   4.498
 5748TIP3    H217209   7.161   3.717   4.401
 5749TIP3   OH217210   4.033   3.790   1.422
 5749TIP3    H117211   4.128   3.797   1.409
 5749TIP3    H217212   4.023   3.733   1.498
 5750TIP3   OH217213  -0.003   1.103   0.127
 5750TIP3    H117214   0.065   1.085   0.062
 5750TIP3    H217215  -0.080   1.057   0.095
 5751TIP3   OH217216   5.272  -0.040   1.279
 5751TIP3    H117217   5.289   0.054   1.283
 5751TIP3    H217218   5.178  -0.047   1.263
 5752TIP3   OH217219   4.151   6.744   0.251
 5752TIP3    H117220   4.172   6.837   0.259
 5752TIP3    H217221   4.227   6.699   0.287
 5753TIP3   OH217222   6.941   4.528   3.188
 5753TIP3    H117223   7.028   4.557   3.215
 5753TIP3    H217224   6.917   4.585   3.116
 5754TIP3   OH217225   4.140   0.506   1.091
 5754TIP3    H117226   4.188   0.465   1.162
 5754TIP3    H217227   4.086   0.573   1.134
 5755TIP3   OH217228   2.017   4.094   1.860
 5755TIP3    H117229   2.001   4.166   1.922
 5755TIP3    H217230   1.978   4.017   1.903
 5756TIP3   OH217231   2.216   2.338   1.040
 5756TIP3    H117232   2.239   2.280   1.113
 5756TIP3    H217233   2.294   2.337   0.984
 5757TIP3   OH217234   1.177   6.032   0.843
 5757TIP3    H117235   1.141   5.947   0.868
 5757TIP3    H217236   1.264   6.011   0.808
 5758TIP3   OH217237   6.528   1.393   4.091
 5758TIP3    H117238   6.467   1.466   4.105
 5758TIP3    H217239   6.479   1.315   4.117
 5759TIP3   OH217240   4.992   0.832   2.959
 5759TIP3    H117241   5.050   0.901   2.991
 5759TIP3    H217242   5.042   0.788   2.890
 5760TIP3   OH217243   3.800   1.807   5.203
 5760TIP3    H117244   3.804   1.791   5.297
 5760TIP3    H217245   3.752   1.889   5.194
 5761TIP3   OH217246   7.117   3.453   5.943
 5761TIP3    H117247   7.170   3.522   5.902
 5761TIP3    H217248   7.030   3.465   5.906
 5762TIP3   OH217249   3.690   2.475   4.203
 5762TIP3    H117250   3.769   2.521   4.230
 5762TIP3    H217251   3.627   2.493   4.273
 5763TIP3   OH217252   4.480   5.165   3.183
 5763TIP3    H117253   4.557   5.127   3.225
 5763TIP3    H217254   4.452   5.098   3.120
 5764TIP3   OH217255   4.404   3.880   2.660
 5764TIP3    H117256   4.411   3.960   2.711
 5764TIP3    H217257   4.343   3.902   2.589
 5765TIP3   OH217258   5.419   0.599   5.497
 5765TIP3    H117259   5.388   0.688   5.515
 5765TIP3    H217260   5.351   0.560   5.443
 5766TIP3   OH217261   1.940   2.890   5.366
 5766TIP3    H117262   1.930   2.965   5.308
 5766TIP3    H217263   2.015   2.842   5.330
 5767TIP3   OH217264   4.398   1.107   4.105
 5767TIP3    H117265   4.430   1.168   4.039
 5767TIP3    H217266   4.342   1.047   4.057
 5768TIP3   OH217267   0.776   0.436   4.859
 5768TIP3    H117268   0.800   0.344   4.847
 5768TIP3    H217269   0.830   0.466   4.932
 5769TIP3   OH217270   1.875   3.184   4.175
 5769TIP3    H117271   1.847   3.209   4.086
 5769TIP3    H217272   1.843   3.095   4.186
 5770TIP3   OH217273   5.895   3.383   3.623
 5770TIP3    H117274   5.826   3.360   3.686
 5770TIP3    H217275   5.855   3.365   3.537
 5771TIP3   OH217276   6.669   1.138   5.577
 5771TIP3    H117277   6.756   1.097   5.571
 5771TIP3    H217278   6.608   1.065   5.563
 5772TIP3   OH217279   2.303   3.323   3.108
 5772TIP3    H117280   2.377   3.339   3.166
 5772TIP3    H217281   2.275   3.234   3.128
 5773TIP3   OH217282   6.110   0.880   0.357
 5773TIP3    H117283   6.127   0.803   0.302
 5773TIP3    H217284   6.087   0.844   0.443
 5774TIP3   OH217285   5.025   6.574   3.234
 5774TIP3    H117286   5.045   6.487   3.269
 5774TIP3    H217287   4.976   6.557   3.153
 5775TIP3   OH217288   7.078   3.581   5.469
 5775TIP3    H117289   7.039   3.617   5.389
 5775TIP3    H217290   7.100   3.657   5.522
 5776TIP3   OH217291   0.249   6.767   0.891
 5776TIP3    H117292   0.310   6.836   0.917
 5776TIP3    H217293   0.165   6.792   0.929
 5777TIP3   OH217294   0.188   0.877   2.938
 5777TIP3    H117295   0.243   0.933   2.882
 5777TIP3    H217296   0.244   0.801   2.957
 5778TIP3   OH217297   2.017   5.745   5.710
 5778TIP3    H117298   1.985   5.770   5.624
 5778TIP3    H217299   2.108   5.775   5.712
 5779TIP3   OH217300   5.986   0.270   3.218
 5779TIP3    H117301   5.903   0.304   3.184
 5779TIP3    H217302   6.037   0.349   3.239
 5780TIP3   OH217303   1.701   1.121   1.417
 5780TIP3    H117304   1.710   1.075   1.334
 5780TIP3    H217305   1.734   1.059   1.482
 5781TIP3   OH217306   0.910   5.940   1.539
 5781TIP3    H117307   0.950   6.015   1.583
 5781TIP3    H217308   0.818   5.963   1.532
 5782TIP3   OH217309   2.605   6.142   1.524
 5782TIP3    H117310   2.560   6.129   1.607
 5782TIP3    H217311   2.536   6.135   1.458
 5783TIP3   OH217312   1.300   0.603   2.086
 5783TIP3    H117313   1.266   0.663   2.021
 5783TIP3    H217314   1.331   0.659   2.157
 5784TIP3   OH217315   2.974   4.006   5.124
 5784TIP3    H117316   2.944   4.073   5.062
 5784TIP3    H217317   2.912   3.934   5.113
 5785TIP3   OH217318   6.109   1.586   1.370
 5785TIP3    H117319   6.026   1.588   1.418
 5785TIP3    H217320   6.149   1.672   1.387
 5786TIP3   OH217321   2.211   4.241   5.812
 5786TIP3    H117322   2.157   4.310   5.849
 5786TIP3    H217323   2.242   4.277   5.729
 5787TIP3   OH217324   6.610   3.161   2.844
 5787TIP3    H117325   6.564   3.101   2.786
 5787TIP3    H217326   6.702   3.152   2.819
 5788TIP3   OH217327   2.073   0.631   2.579
 5788TIP3    H117328   2.161   0.597   2.561
 5788TIP3    H217329   2.044   0.668   2.496
 5789TIP3   OH217330   6.282   0.983   1.502
 5789TIP3    H117331   6.266   1.020   1.589
 5789TIP3    H217332   6.242   1.046   1.442
 5790TIP3   OH217333   7.172   0.273   2.785
 5790TIP3    H117334   7.198   0.308   2.700
 5790TIP3    H217335   7.082   0.304   2.797
 5791TIP3   OH217336   4.835   1.912   0.329
 5791TIP3    H117337   4.843   1.822   0.362
 5791TIP3    H217338   4.925   1.944   0.325
 5792TIP3   OH217339   2.812   4.478   2.569
 5792TIP3    H117340   2.841   4.414   2.634
 5792TIP3    H217341   2.725   4.449   2.544
 5793TIP3   OH217342   6.730   3.878  -0.010
 5793TIP3    H117343   6.763   3.964   0.016
 5793TIP3    H217344   6.647   3.869   0.037
 5794TIP3   OH217345   2.833   5.463   5.400
 5794TIP3    H117346   2.913   5.492   5.356
 5794TIP3    H217347   2.764   5.474   5.335
 5795TIP3   OH217348   1.575   3.494   2.584
 5795TIP3    H117349   1.650   3.434   2.582
 5795TIP3    H217350   1.562   3.514   2.677
 5796TIP3   OH217351   1.307   4.219   1.160
 5796TIP3    H117352   1.396   4.199   1.130
 5796TIP3    H217353   1.264   4.133   1.166
 5797TIP3   OH217354   2.267   3.485   4.372
 5797TIP3    H117355   2.309   3.451   4.293
 5797TIP3    H217356   2.246   3.407   4.424
 5798TIP3   OH217357   5.292   3.788   1.302
 5798TIP3    H117358   5.294   3.823   1.214
 5798TIP3    H217359   5.375   3.814   1.341
 5799TIP3   OH217360   6.774   2.089   5.845
 5799TIP3    H117361   6.715   2.015   5.830
 5799TIP3    H217362   6.759   2.147   5.770
 5800TIP3   OH217363   3.144   3.155   4.321
 5800TIP3    H117364   3.054   3.133   4.345
 5800TIP3    H217365   3.187   3.177   4.404
 5801TIP3   OH217366   5.946   3.714   1.960
 5801TIP3    H117367   6.012   3.696   1.893
 5801TIP3    H217368   5.905   3.796   1.932
 5802TIP3   OH217369   2.129   2.172   1.531
 5802TIP3    H117370   2.052   2.133   1.572
 5802TIP3    H217371   2.203   2.125   1.570
 5803TIP3   OH217372   1.213   0.466   0.599
 5803TIP3    H117373   1.182   0.435   0.684
 5803TIP3    H217374   1.136   0.504   0.558
 5804TIP3   OH217375   4.632   6.042   4.301
 5804TIP3    H117376   4.713   6.071   4.259
 5804TIP3    H217377   4.596   6.121   4.341
 5805TIP3   OH217378   0.260   4.192   5.320
 5805TIP3    H117379   0.197   4.151   5.261
 5805TIP3    H217380   0.306   4.256   5.266
 5806TIP3   OH217381   3.117   2.210   4.237
 5806TIP3    H117382   3.175   2.278   4.201
 5806TIP3    H217383   3.067   2.178   4.162
 5807TIP3   OH217384   5.176   4.560   4.144
 5807TIP3    H117385   5.227   4.492   4.189
 5807TIP3    H217386   5.206   4.557   4.053
 5808TIP3   OH217387   1.611   2.846   3.097
 5808TIP3    H117388   1.690   2.876   3.051
 5808TIP3    H217389   1.643   2.779   3.157
 5809TIP3   OH217390   3.826   2.899   5.834
 5809TIP3    H117391   3.811   2.961   5.906
 5809TIP3    H217392   3.739   2.867   5.811
 5810TIP3   OH217393   1.045   3.623   0.913
 5810TIP3    H117394   0.969   3.608   0.969
 5810TIP3    H217395   1.095   3.691   0.958
 5811TIP3   OH217396   6.508   4.977   3.649
 5811TIP3    H117397   6.534   4.964   3.741
 5811TIP3    H217398   6.590   4.980   3.601
 5812TIP3   OH217399   1.682   0.270   3.552
 5812TIP3    H117400   1.688   0.192   3.607
 5812TIP3    H217401   1.626   0.244   3.479
 5813TIP3   OH217402   6.449   2.920   1.835
 5813TIP3    H117403   6.370   2.869   1.849
 5813TIP3    H217404   6.519   2.866   1.872
 5814TIP3   OH217405   5.298   0.102   0.264
 5814TIP3    H117406   5.263   0.064   0.344
 5814TIP3    H217407   5.289   0.033   0.198
 5815TIP3   OH217408   0.321   3.347   2.496
 5815TIP3    H117409   0.389   3.298   2.449
 5815TIP3    H217410   0.364   3.427   2.525
 5816TIP3   OH217411   4.190   1.008   1.211
 5816TIP3    H117412   4.131   1.020   1.138
 5816TIP3    H217413   4.269   0.969   1.173
 5817TIP3   OH217414   0.848   1.428   5.076
 5817TIP3    H117415   0.883   1.436   4.987
 5817TIP3    H217416   0.874   1.509   5.120
 5818TIP3   OH217417   5.495   0.739   5.866
 5818TIP3    H117418   5.576   0.729   5.915
 5818TIP3    H217419   5.489   0.660   5.812
 5819TIP3   OH217420   5.819   3.296   0.854
 5819TIP3    H117421   5.831   3.383   0.891
 5819TIP3    H217422   5.881   3.292   0.781
 5820TIP3   OH217423   3.894   6.184   5.891
 5820TIP3    H117424   3.888   6.223   5.804
 5820TIP3    H217425   3.840   6.105   5.886
 5821TIP3   OH217426   6.130   5.471   1.956
 5821TIP3    H117427   6.074   5.399   1.926
 5821TIP3    H217428   6.218   5.447   1.926
 5822TIP3   OH217429   3.437   0.368   1.473
 5822TIP3    H117430   3.475   0.300   1.528
 5822TIP3    H217431   3.344   0.368   1.495
 5823TIP3   OH217432   1.388   4.390   0.127
 5823TIP3    H117433   1.474   4.408   0.164
 5823TIP3    H217434   1.372   4.297   0.147
 5824TIP3   OH217435   7.211   2.902   5.241
 5824TIP3    H117436   7.234   2.901   5.148
 5824TIP3    H217437   7.273   2.841   5.282
 5825TIP3   OH217438   2.595   5.336   1.505
 5825TIP3    H117439   2.544   5.256   1.520
 5825TIP3    H217440   2.680   5.305   1.473
 5826TIP3   OH217441   3.922   5.432   4.091
 5826TIP3    H117442   3.868   5.365   4.133
 5826TIP3    H217443   3.922   5.505   4.153
 5827TIP3   OH217444   1.404   2.887   4.857
 5827TIP3    H117445   1.421   2.866   4.766
 5827TIP3    H217446   1.462   2.829   4.907
 5828TIP3   OH217447   0.585   5.577   1.521
 5828TIP3    H117448   0.637   5.575   1.441
 5828TIP3    H217449   0.581   5.485   1.549
 5829TIP3   OH217450   0.417   0.896   3.906
 5829TIP3    H117451   0.373   0.811   3.907
 5829TIP3    H217452   0.357   0.955   3.952
 5830TIP3   OH217453   0.766   5.197   0.995
 5830TIP3    H117454   0.817   5.214   1.074
 5830TIP3    H217455   0.824   5.224   0.923
 5831TIP3   OH217456   5.262   4.975   0.781
 5831TIP3    H117457   5.280   4.904   0.720
 5831TIP3    H217458   5.326   4.963   0.852
 5832TIP3   OH217459   1.133   4.051   5.907
 5832TIP3    H117460   1.191   4.042   5.982
 5832TIP3    H217461   1.184   4.019   5.833
 5833TIP3   OH217462   2.112   1.652   3.800
 5833TIP3    H117463   2.158   1.615   3.725
 5833TIP3    H217464   2.179   1.700   3.848
 5834TIP3   OH217465   0.998   1.014   1.196
 5834TIP3    H117466   0.920   1.068   1.214
 5834TIP3    H217467   1.067   1.078   1.180
 5835TIP3   OH217468   5.875   5.235   3.636
 5835TIP3    H117469   5.884   5.263   3.727
 5835TIP3    H217470   5.855   5.314   3.587
 5836TIP3   OH217471   0.459   1.517   4.577
 5836TIP3    H117472   0.483   1.556   4.661
 5836TIP3    H217473   0.521   1.445   4.566
 5837TIP3   OH217474   1.080   1.316   1.224
 5837TIP3    H117475   1.172   1.301   1.201
 5837TIP3    H217476   1.082   1.389   1.286
 5838TIP3   OH217477   4.736   5.616   3.533
 5838TIP3    H117478   4.716   5.551   3.600
 5838TIP3    H217479   4.660   5.613   3.475
 5839TIP3   OH217480   5.751   2.157   1.930
 5839TIP3    H117481   5.800   2.170   1.849
 5839TIP3    H217482   5.799   2.088   1.976
 5840TIP3   OH217483   4.745   0.200   5.896
 5840TIP3    H117484   4.650   0.204   5.882
 5840TIP3    H217485   4.757   0.128   5.957
 5841TIP3   OH217486   1.748   2.575   5.743
 5841TIP3    H117487   1.777   2.657   5.704
 5841TIP3    H217488   1.709   2.526   5.670
 5842TIP3   OH217489   1.016   6.665   5.192
 5842TIP3    H117490   0.999   6.713   5.111
 5842TIP3    H217491   0.996   6.727   5.262
 5843TIP3   OH217492   5.179   3.241   5.786
 5843TIP3    H117493   5.229   3.234   5.705
 5843TIP3    H217494   5.213   3.320   5.828
 5844TIP3   OH217495   0.467   5.542   0.097
 5844TIP3    H117496   0.498   5.541   0.188
 5844TIP3    H217497   0.478   5.633   0.070
 5845TIP3   OH217498   6.102   0.421   3.682
 5845TIP3    H117499   6.105   0.354   3.614
 5845TIP3    H217500   6.129   0.501   3.638
 5846TIP3   OH217501   7.029   3.920   2.071
 5846TIP3    H117502   6.983   3.839   2.046
 5846TIP3    H217503   7.023   3.976   1.994
 5847TIP3   OH217504   5.249   0.673   3.148
 5847TIP3    H117505   5.220   0.764   3.144
 5847TIP3    H217506   5.190   0.627   3.088
 5848TIP3   OH217507   6.810   2.341   2.438
 5848TIP3    H117508   6.801   2.436   2.431
 5848TIP3    H217509   6.888   2.329   2.493
 5849TIP3   OH217510   1.413   1.382   3.514
 5849TIP3    H117511   1.408   1.417   3.603
 5849TIP3    H217512   1.333   1.415   3.471
 5850TIP3   OH217513   6.375   5.459   0.942
 5850TIP3    H117514   6.407   5.434   0.856
 5850TIP3    H217515   6.328   5.382   0.974
 5851TIP3   OH217516   3.060   3.830   5.319
 5851TIP3    H117517   2.979   3.881   5.308
 5851TIP3    H217518   3.086   3.808   5.229
 5852TIP3   OH217519   1.574   2.160   3.198
 5852TIP3    H117520   1.615   2.242   3.171
 5852TIP3    H217521   1.544   2.176   3.287
 5853TIP3   OH217522   3.283   2.234   5.788
 5853TIP3    H117523   3.203   2.203   5.746
 5853TIP3    H217524   3.266   2.223   5.882
 5854TIP3   OH217525   3.209   3.313   1.147
 5854TIP3    H117526   3.137   3.297   1.209
 5854TIP3    H217527   3.198   3.404   1.119
 5855TIP3   OH217528   2.963   1.828   4.293
 5855TIP3    H117529   3.021   1.821   4.217
 5855TIP3    H217530   2.875   1.820   4.256
 5856TIP3   OH217531   0.978   6.120   3.189
 5856TIP3    H117532   1.002   6.102   3.098
 5856TIP3    H217533   0.973   6.215   3.194
 5857TIP3   OH217534   0.546   0.843   1.861
 5857TIP3    H117535   0.634   0.815   1.885
 5857TIP3    H217536   0.536   0.928   1.903
 5858TIP3   OH217537   3.427   2.874   3.576
 5858TIP3    H117538   3.372   2.815   3.628
 5858TIP3    H217539   3.465   2.934   3.640
 5859TIP3   OH217540   2.767   3.951   4.728
 5859TIP3    H117541   2.810   3.897   4.795
 5859TIP3    H217542   2.681   3.970   4.764
 5860TIP3   OH217543   3.455   2.388   5.079
 5860TIP3    H117544   3.379   2.436   5.045
 5860TIP3    H217545   3.418   2.308   5.116
 5861TIP3   OH217546   4.167   2.737   4.069
 5861TIP3    H117547   4.151   2.647   4.043
 5861TIP3    H217548   4.175   2.785   3.986
 5862TIP3   OH217549   4.565   1.060   4.862
 5862TIP3    H117550   4.568   1.133   4.799
 5862TIP3    H217551   4.595   1.099   4.944
 5863TIP3   OH217552   6.932   5.653   3.840
 5863TIP3    H117553   6.860   5.592   3.827
 5863TIP3    H217554   6.891   5.731   3.878
 5864TIP3   OH217555   6.809   6.069   1.924
 5864TIP3    H117556   6.877   6.124   1.964
 5864TIP3    H217557   6.738   6.129   1.905
 5865TIP3   OH217558   1.222   5.158   5.827
 5865TIP3    H117559   1.250   5.245   5.796
 5865TIP3    H217560   1.244   5.157   5.920
 5866TIP3   OH217561   0.048   0.588   3.422
 5866TIP3    H117562  -0.030   0.536   3.439
 5866TIP3    H217563   0.070   0.569   3.331
 5867TIP3   OH217564   3.963   3.987   2.075
 5867TIP3    H117565   3.909   4.065   2.086
 5867TIP3    H217566   3.961   3.969   1.981
 5868TIP3   OH217567   3.740   0.380   3.037
 5868TIP3    H117568   3.812   0.329   3.001
 5868TIP3    H217569   3.667   0.364   2.978
 5869TIP3   OH217570   4.876   4.216   5.773
 5869TIP3    H117571   4.949   4.228   5.713
 5869TIP3    H217572   4.861   4.122   5.775
 5870TIP3   OH217573   5.244   4.875   5.634
 5870TIP3    H117574   5.220   4.892   5.543
 5870TIP3    H217575   5.322   4.929   5.649
 5871TIP3   OH217576   4.516   6.194   4.554
 5871TIP3    H117577   4.608   6.185   4.578
 5871TIP3    H217578   4.477   6.109   4.577
 5872TIP3   OH217579   0.342   4.754   0.498
 5872TIP3    H117580   0.318   4.735   0.408
 5872TIP3    H217581   0.266   4.800   0.534
 5873TIP3   OH217582   7.134   5.234   0.965
 5873TIP3    H117583   7.041   5.254   0.972
 5873TIP3    H217584   7.138   5.138   0.967
 5874TIP3   OH217585   0.926   5.360   0.754
 5874TIP3    H117586   0.929   5.436   0.813
 5874TIP3    H217587   0.840   5.367   0.712
 5875TIP3   OH217588   1.123   1.660   5.858
 5875TIP3    H117589   1.171   1.681   5.938
 5875TIP3    H217590   1.184   1.680   5.787
 5876TIP3   OH217591   0.731   6.110   5.553
 5876TIP3    H117592   0.738   6.023   5.514
 5876TIP3    H217593   0.716   6.093   5.646
 5877TIP3   OH217594   5.395   1.667   5.576
 5877TIP3    H117595   5.426   1.758   5.584
 5877TIP3    H217596   5.375   1.657   5.483
 5878TIP3   OH217597   1.749   6.618   4.323
 5878TIP3    H117598   1.756   6.537   4.273
 5878TIP3    H217599   1.708   6.680   4.263
 5879TIP3   OH217600   7.205   2.806   5.850
 5879TIP3    H117601   7.203   2.714   5.822
 5879TIP3    H217602   7.297   2.831   5.846
 5880TIP3   OH217603   4.210   2.529   1.836
 5880TIP3    H117604   4.181   2.564   1.920
 5880TIP3    H217605   4.260   2.450   1.859
 5881TIP3   OH217606   4.724   3.922   0.740
 5881TIP3    H117607   4.702   4.001   0.789
 5881TIP3    H217608   4.714   3.851   0.803
 5882TIP3   OH217609   5.873   3.524   0.322
 5882TIP3    H117610   5.914   3.502   0.239
 5882TIP3    H217611   5.821   3.602   0.303
 5883TIP3   OH217612   5.440   4.316   4.683
 5883TIP3    H117613   5.410   4.305   4.774
 5883TIP3    H217614   5.449   4.410   4.672
 5884TIP3   OH217615   3.571   2.260   1.563
 5884TIP3    H117616   3.590   2.218   1.647
 5884TIP3    H217617   3.611   2.202   1.498
 5885TIP3   OH217618   2.917   3.466   4.795
 5885TIP3    H117619   2.913   3.433   4.705
 5885TIP3    H217620   3.002   3.509   4.800
 5886TIP3   OH217621   1.341   2.925   1.233
 5886TIP3    H117622   1.338   2.837   1.195
 5886TIP3    H217623   1.412   2.921   1.297
 5887TIP3   OH217624   3.635   0.338   5.722
 5887TIP3    H117625   3.675   0.388   5.651
 5887TIP3    H217626   3.693   0.263   5.734
 5888TIP3   OH217627   1.613   1.512   0.905
 5888TIP3    H117628   1.605   1.421   0.876
 5888TIP3    H217629   1.684   1.510   0.968
 5889TIP3   OH217630   7.116   4.950   1.975
 5889TIP3    H117631   7.125   4.857   1.997
 5889TIP3    H217632   7.044   4.981   2.029
 5890TIP3   OH217633   2.046   5.521   2.026
 5890TIP3    H117634   2.141   5.522   2.033
 5890TIP3    H217635   2.029   5.510   1.932
 5891TIP3   OH217636   2.436   6.607   5.820
 5891TIP3    H117637   2.496   6.570   5.885
 5891TIP3    H217638   2.360   6.549   5.821
 5892TIP3   OH217639   3.833   5.193   0.709
 5892TIP3    H117640   3.896   5.201   0.781
 5892TIP3    H217641   3.751   5.225   0.746
 5893TIP3   OH217642   6.255   0.385   4.330
 5893TIP3    H117643   6.181   0.348   4.281
 5893TIP3    H217644   6.304   0.435   4.264
 5894TIP3   OH217645   4.023   3.062   5.740
 5894TIP3    H117646   3.979   3.010   5.806
 5894TIP3    H217647   3.996   3.152   5.758
 5895TIP3   OH217648   5.975   5.059   2.095
 5895TIP3    H117649   5.912   5.027   2.160
 5895TIP3    H217650   5.977   5.153   2.108
 5896TIP3   OH217651   0.188   0.067   5.305
 5896TIP3    H117652   0.224   0.077   5.217
 5896TIP3    H217653   0.194  -0.027   5.323
 5897TIP3   OH217654   0.170   0.767   2.097
 5897TIP3    H117655   0.147   0.830   2.166
 5897TIP3    H217656   0.265   0.773   2.091
 5898TIP3   OH217657   5.711   3.849   4.279
 5898TIP3    H117658   5.682   3.912   4.345
 5898TIP3    H217659   5.718   3.766   4.327
 5899TIP3   OH217660   5.217   2.148   0.716
 5899TIP3    H117661   5.150   2.199   0.762
 5899TIP3    H217662   5.174   2.119   0.636
 5900TIP3   OH217663   1.330   1.470   1.679
 5900TIP3    H117664   1.366   1.503   1.596
 5900TIP3    H217665   1.286   1.545   1.718
 5901TIP3   OH217666   3.541   2.193   5.313
 5901TIP3    H117667   3.592   2.235   5.381
 5901TIP3    H217668   3.598   2.123   5.280
 5902TIP3   OH217669   6.364   6.682   0.206
 5902TIP3    H117670   6.317   6.753   0.249
 5902TIP3    H217671   6.452   6.686   0.243
 5903TIP3   OH217672   2.460   1.789   2.990
 5903TIP3    H117673   2.547   1.828   2.984
 5903TIP3    H217674   2.401   1.856   2.956
 5904TIP3   OH217675   3.233   1.475   0.976
 5904TIP3    H117676   3.255   1.407   1.040
 5904TIP3    H217677   3.276   1.447   0.896
 5905TIP3   OH217678   5.981   6.309   1.990
 5905TIP3    H117679   5.922   6.243   1.953
 5905TIP3    H217680   5.923   6.375   2.028
 5906TIP3   OH217681   3.342   0.907   5.289
 5906TIP3    H117682   3.359   0.861   5.370
 5906TIP3    H217683   3.281   0.977   5.313
 5907TIP3   OH217684   6.121   4.248   2.390
 5907TIP3    H117685   6.124   4.305   2.313
 5907TIP3    H217686   6.030   4.217   2.394
 5908TIP3   OH217687   3.972   0.263   2.263
 5908TIP3    H117688   3.962   0.191   2.325
 5908TIP3    H217689   3.975   0.221   2.177
 5909TIP3   OH217690   2.129   6.688   1.526
 5909TIP3    H117691   2.097   6.604   1.492
 5909TIP3    H217692   2.058   6.750   1.507
 5910TIP3   OH217693   5.136   5.715   4.082
 5910TIP3    H117694   5.187   5.701   4.162
 5910TIP3    H217695   5.192   5.770   4.028
 5911TIP3   OH217696   5.521   2.839   4.757
 5911TIP3    H117697   5.515   2.774   4.827
 5911TIP3    H217698   5.607   2.879   4.768
 5912TIP3   OH217699   7.050   5.629   1.804
 5912TIP3    H117700   7.098   5.687   1.746
 5912TIP3    H217701   6.959   5.638   1.776
 5913TIP3   OH217702   3.423   1.332   5.466
 5913TIP3    H117703   3.464   1.369   5.388
 5913TIP3    H217704   3.462   1.245   5.474
 5914TIP3   OH217705   5.778   0.126   2.343
 5914TIP3    H117706   5.843   0.062   2.314
 5914TIP3    H217707   5.810   0.154   2.429
 5915TIP3   OH217708   6.966   0.673   1.559
 5915TIP3    H117709   6.887   0.621   1.572
 5915TIP3    H217710   6.997   0.649   1.472
 5916TIP3   OH217711   6.289   5.746   3.349
 5916TIP3    H117712   6.256   5.745   3.259
 5916TIP3    H217713   6.219   5.707   3.401
 5917TIP3   OH217714   6.033   1.416   3.419
 5917TIP3    H117715   6.111   1.363   3.435
 5917TIP3    H217716   5.995   1.379   3.340
 5918TIP3   OH217717   5.388   2.343   4.569
 5918TIP3    H117718   5.341   2.279   4.623
 5918TIP3    H217719   5.319   2.387   4.520
 5919TIP3   OH217720   3.422   6.013   2.441
 5919TIP3    H117721   3.459   6.101   2.442
 5919TIP3    H217722   3.334   6.024   2.404
 5920TIP3   OH217723   2.556   6.359   1.236
 5920TIP3    H117724   2.509   6.385   1.157
 5920TIP3    H217725   2.564   6.263   1.229
 5921TIP3   OH217726   4.234   0.552   4.515
 5921TIP3    H117727   4.328   0.571   4.512
 5921TIP3    H217728   4.194   0.634   4.545
 5922TIP3   OH217729   3.065   1.910   1.667
 5922TIP3    H117730   3.129   1.941   1.603
 5922TIP3    H217731   3.110   1.841   1.716
 5923TIP3   OH217732   0.176   3.247   2.709
 5923TIP3    H117733   0.239   3.235   2.779
 5923TIP3    H217734   0.229   3.266   2.631
 5924TIP3   OH217735   1.676   1.647   2.211
 5924TIP3    H117736   1.666   1.657   2.306
 5924TIP3    H217737   1.680   1.552   2.197
 5925TIP3   OH217738   5.500   1.548   2.879
 5925TIP3    H117739   5.493   1.541   2.784
 5925TIP3    H217740   5.426   1.497   2.912
 5926TIP3   OH217741   1.697   3.503   5.072
 5926TIP3    H117742   1.692   3.453   4.990
 5926TIP3    H217743   1.750   3.448   5.130
 5927TIP3   OH217744   5.732   2.098   1.515
 5927TIP3    H117745   5.782   2.149   1.579
 5927TIP3    H217746   5.750   2.141   1.431
 5928TIP3   OH217747   0.662   3.846   1.936
 5928TIP3    H117748   0.733   3.807   1.986
 5928TIP3    H217749   0.600   3.878   2.002
 5929TIP3   OH217750   4.065   3.531   0.880
 5929TIP3    H117751   4.109   3.446   0.871
 5929TIP3    H217752   4.099   3.567   0.962
 5930TIP3   OH217753   3.361   0.820   3.974
 5930TIP3    H117754   3.279   0.807   4.022
 5930TIP3    H217755   3.382   0.733   3.940
 5931TIP3   OH217756   6.561   5.123   3.037
 5931TIP3    H117757   6.638   5.161   2.994
 5931TIP3    H217758   6.487   5.165   2.994
 5932TIP3   OH217759   1.182   1.863   0.314
 5932TIP3    H117760   1.175   1.782   0.365
 5932TIP3    H217761   1.121   1.923   0.357
 5933TIP3   OH217762   6.544   3.438   1.982
 5933TIP3    H117763   6.481   3.376   2.019
 5933TIP3    H217764   6.536   3.516   2.036
 5934TIP3   OH217765   5.763   6.145   2.872
 5934TIP3    H117766   5.830   6.203   2.908
 5934TIP3    H217767   5.810   6.065   2.849
 5935TIP3   OH217768   7.125   0.549   4.805
 5935TIP3    H117769   7.081   0.622   4.761
 5935TIP3    H217770   7.204   0.534   4.752
 5936TIP3   OH217771   2.341   2.827   2.951
 5936TIP3    H117772   2.409   2.893   2.941
 5936TIP3    H217773   2.327   2.792   2.863
 5937TIP3   OH217774   6.446   2.983   2.647
 5937TIP3    H117775   6.363   3.021   2.617
 5937TIP3    H217776   6.422   2.896   2.679
 5938TIP3   OH217777   0.497   1.922   3.572
 5938TIP3    H117778   0.413   1.915   3.528
 5938TIP3    H217779   0.526   2.012   3.554
 5939TIP3   OH217780   0.699   4.245   1.351
 5939TIP3    H117781   0.709   4.153   1.326
 5939TIP3    H217782   0.674   4.243   1.443
 5940TIP3   OH217783   3.885   2.327   2.308
 5940TIP3    H117784   3.912   2.254   2.252
 5940TIP3    H217785   3.800   2.301   2.342
 5941TIP3   OH217786   7.081   2.595   3.352
 5941TIP3    H117787   7.066   2.540   3.429
 5941TIP3    H217788   7.101   2.682   3.389
 5942TIP3   OH217789   2.285   2.578   2.739
 5942TIP3    H117790   2.354   2.604   2.679
 5942TIP3    H217791   2.326   2.577   2.825
 5943TIP3   OH217792   6.859   2.897   4.211
 5943TIP3    H117793   6.782   2.842   4.222
 5943TIP3    H217794   6.832   2.982   4.246
 5944TIP3   OH217795   5.563   6.381   0.344
 5944TIP3    H117796   5.507   6.335   0.406
 5944TIP3    H217797   5.600   6.454   0.394
 5945TIP3   OH217798   3.916   4.652   5.054
 5945TIP3    H117799   3.944   4.561   5.061
 5945TIP3    H217800   3.963   4.685   4.977
 5946TIP3   OH217801   3.805   5.076   1.068
 5946TIP3    H117802   3.721   5.070   1.113
 5946TIP3    H217803   3.851   4.995   1.091
 5947TIP3   OH217804   0.521   6.715   1.746
 5947TIP3    H117805   0.610   6.685   1.766
 5947TIP3    H217806   0.465   6.647   1.783
 5948TIP3   OH217807   5.701   4.658   1.330
 5948TIP3    H117808   5.777   4.661   1.271
 5948TIP3    H217809   5.626   4.646   1.271
 5949TIP3   OH217810   6.292   0.249   5.402
 5949TIP3    H117811   6.206   0.284   5.378
 5949TIP3    H217812   6.334   0.320   5.451
 5950TIP3   OH217813   1.497   3.040   4.445
 5950TIP3    H117814   1.475   3.000   4.361
 5950TIP3    H217815   1.412   3.064   4.484
 5951TIP3   OH217816   6.950   4.280   1.585
 5951TIP3    H117817   6.885   4.210   1.585
 5951TIP3    H217818   6.916   4.344   1.648
 5952TIP3   OH217819   2.253   0.067   2.805
 5952TIP3    H117820   2.159   0.050   2.801
 5952TIP3    H217821   2.272   0.076   2.898
 5953TIP3   OH217822   3.453   3.217   2.379
 5953TIP3    H117823   3.521   3.155   2.354
 5953TIP3    H217824   3.499   3.284   2.430
 5954TIP3   OH217825   4.074   3.119   3.901
 5954TIP3    H117826   3.988   3.089   3.872
 5954TIP3    H217827   4.065   3.130   3.996
 5955TIP3   OH217828   7.174   3.624   1.612
 5955TIP3    H117829   7.258   3.578   1.609
 5955TIP3    H217830   7.154   3.644   1.521
 5956TIP3   OH217831   6.318   1.986   4.648
 5956TIP3    H117832   6.317   2.049   4.576
 5956TIP3    H217833   6.234   1.999   4.691
 5957TIP3   OH217834   2.030   5.690   1.679
 5957TIP3    H117835   1.998   5.656   1.596
 5957TIP3    H217836   2.086   5.764   1.656
 5958TIP3   OH217837   4.245   5.138   1.723
 5958TIP3    H117838   4.294   5.138   1.641
 5958TIP3    H217839   4.205   5.224   1.728
 5959TIP3   OH217840   6.817   0.143   2.223
 5959TIP3    H117841   6.785   0.224   2.261
 5959TIP3    H217842   6.897   0.169   2.176
 5960TIP3   OH217843   2.357   4.067   2.976
 5960TIP3    H117844   2.344   4.053   2.882
 5960TIP3    H217845   2.439   4.022   2.996
 5961TIP3   OH217846   0.908   5.031   5.363
 5961TIP3    H117847   0.863   5.101   5.412
 5961TIP3    H217848   0.913   4.958   5.425
 5962TIP3   OH217849   3.306   4.570   4.629
 5962TIP3    H117850   3.345   4.551   4.714
 5962TIP3    H217851   3.344   4.654   4.603
 5963TIP3   OH217852   2.313   1.161   5.106
 5963TIP3    H117853   2.394   1.128   5.145
 5963TIP3    H217854   2.256   1.085   5.099
 5964TIP3   OH217855   2.508   1.085   5.589
 5964TIP3    H117856   2.436   1.072   5.527
 5964TIP3    H217857   2.513   1.001   5.636
 5965TIP3   OH217858   2.909   5.363   3.535
 5965TIP3    H117859   2.962   5.433   3.573
 5965TIP3    H217860   2.822   5.375   3.573
 5966TIP3   OH217861   7.161   5.803   3.184
 5966TIP3    H117862   7.143   5.886   3.139
 5966TIP3    H217863   7.221   5.757   3.125
 5967TIP3   OH217864   2.645   1.545   1.798
 5967TIP3    H117865   2.688   1.461   1.781
 5967TIP3    H217866   2.688   1.577   1.877
 5968TIP3   OH217867   1.061   3.769   5.190
 5968TIP3    H117868   1.013   3.834   5.138
 5968TIP3    H217869   1.059   3.690   5.137
 5969TIP3   OH217870   3.723   5.343   3.136
 5969TIP3    H117871   3.740   5.311   3.225
 5969TIP3    H217872   3.798   5.397   3.115
 5970TIP3   OH217873   5.852   1.374   1.452
 5970TIP3    H117874   5.831   1.392   1.543
 5970TIP3    H217875   5.853   1.279   1.445
 5971TIP3   OH217876   1.877   2.341   2.065
 5971TIP3    H117877   1.891   2.388   1.983
 5971TIP3    H217878   1.886   2.249   2.041
 5972TIP3   OH217879   7.193   1.535   3.054
 5972TIP3    H117880   7.199   1.447   3.019
 5972TIP3    H217881   7.194   1.592   2.977
 5973TIP3   OH217882   6.091   5.357   3.187
 5973TIP3    H117883   6.097   5.273   3.233
 5973TIP3    H217884   6.108   5.422   3.255
 5974TIP3   OH217885   5.488   3.591   1.950
 5974TIP3    H117886   5.472   3.633   2.034
 5974TIP3    H217887   5.537   3.656   1.900
 5975TIP3   OH217888   6.608   0.088   5.851
 5975TIP3    H117889   6.680   0.037   5.888
 5975TIP3    H217890   6.645   0.174   5.833
 5976TIP3   OH217891   4.044   4.899   4.870
 5976TIP3    H117892   4.125   4.931   4.910
 5976TIP3    H217893   4.065   4.889   4.777
 5977TIP3   OH217894   1.282   4.618   3.363
 5977TIP3    H117895   1.341   4.671   3.310
 5977TIP3    H217896   1.335   4.542   3.389
 5978TIP3   OH217897   1.221   6.005   5.809
 5978TIP3    H117898   1.221   6.020   5.904
 5978TIP3    H217899   1.249   5.914   5.799
 5979TIP3   OH217900   4.296   5.800   2.259
 5979TIP3    H117901   4.306   5.894   2.272
 5979TIP3    H217902   4.326   5.784   2.169
 5980TIP3   OH217903   6.328   2.663   0.196
 5980TIP3    H117904   6.259   2.725   0.172
 5980TIP3    H217905   6.332   2.667   0.291
 5981TIP3   OH217906   6.304   0.971   0.705
 5981TIP3    H117907   6.341   0.934   0.785
 5981TIP3    H217908   6.216   1.000   0.730
 5982TIP3   OH217909   5.182   4.970   4.765
 5982TIP3    H117910   5.097   4.990   4.725
 5982TIP3    H217911   5.166   4.889   4.814
 5983TIP3   OH217912   0.597   5.814   2.648
 5983TIP3    H117913   0.513   5.852   2.673
 5983TIP3    H217914   0.598   5.821   2.552
 5984TIP3   OH217915   1.393   4.186   3.835
 5984TIP3    H117916   1.471   4.134   3.819
 5984TIP3    H217917   1.335   4.167   3.761
 5985TIP3   OH217918   1.488   0.133   4.632
 5985TIP3    H117919   1.552   0.112   4.564
 5985TIP3    H217920   1.494   0.061   4.695
 5986TIP3   OH217921   1.775   4.634   4.702
 5986TIP3    H117922   1.779   4.661   4.610
 5986TIP3    H217923   1.864   4.609   4.724
 5987TIP3   OH217924   2.029   5.831   1.159
 5987TIP3    H117925   2.125   5.834   1.153
 5987TIP3    H217926   2.000   5.919   1.135
 5988TIP3   OH217927   5.164   3.334   0.294
 5988TIP3    H117928   5.190   3.242   0.290
 5988TIP3    H217929   5.069   3.333   0.294
 5989TIP3   OH217930   1.416   3.794   2.182
 5989TIP3    H117931   1.429   3.704   2.211
 5989TIP3    H217932   1.490   3.843   2.218
 5990TIP3   OH217933   4.400   4.629   4.953
 5990TIP3    H117934   4.426   4.688   4.882
 5990TIP3    H217935   4.354   4.685   5.015
 5991TIP3   OH217936   5.517   0.924   0.897
 5991TIP3    H117937   5.606   0.900   0.921
 5991TIP3    H217938   5.524   0.959   0.809
 5992TIP3   OH217939   4.632   6.232   3.799
 5992TIP3    H117940   4.701   6.168   3.783
 5992TIP3    H217941   4.621   6.277   3.715
 5993TIP3   OH217942   7.091   0.894   1.286
 5993TIP3    H117943   7.179   0.857   1.273
 5993TIP3    H217944   7.033   0.818   1.288
 5994TIP3   OH217945   3.200   5.844   5.650
 5994TIP3    H117946   3.160   5.861   5.565
 5994TIP3    H217947   3.167   5.758   5.675
 5995TIP3   OH217948   5.128   0.748   4.322
 5995TIP3    H117949   5.037   0.749   4.292
 5995TIP3    H217950   5.173   0.811   4.265
 5996TIP3   OH217951   4.993   3.027   3.733
 5996TIP3    H117952   4.906   2.989   3.731
 5996TIP3    H217953   5.041   2.972   3.795
 5997TIP3   OH217954   5.910   4.243   0.600
 5997TIP3    H117955   5.985   4.265   0.655
 5997TIP3    H217956   5.860   4.180   0.652
 5998TIP3   OH217957   2.715   2.972   1.760
 5998TIP3    H117958   2.667   3.001   1.682
 5998TIP3    H217959   2.666   2.895   1.790
 5999TIP3   OH217960   3.659   6.713   0.782
 5999TIP3    H117961   3.617   6.798   0.798
 5999TIP3    H217962   3.728   6.732   0.719
 6000TIP3   OH217963   3.079   5.319   4.522
 6000TIP3    H117964   3.048   5.408   4.537
 6000TIP3    H217965   3.059   5.302   4.430
 6001TIP3   OH217966   5.421   0.530   3.671
 6001TIP3    H117967   5.414   0.503   3.763
 6001TIP3    H217968   5.361   0.472   3.624
 6002TIP3   OH217969   5.784   0.127   1.962
 6002TIP3    H117970   5.720   0.125   2.033
 6002TIP3    H217971   5.795   0.220   1.941
 6003TIP3   OH217972   1.460   2.802   3.948
 6003TIP3    H117973   1.512   2.796   3.868
 6003TIP3    H217974   1.371   2.780   3.921
 6004TIP3   OH217975   3.175   5.588   1.203
 6004TIP3    H117976   3.176   5.683   1.197
 6004TIP3    H217977   3.149   5.570   1.293
 6005TIP3   OH217978   2.849   3.995   0.564
 6005TIP3    H117979   2.876   4.008   0.655
 6005TIP3    H217980   2.893   4.066   0.516
 6006TIP3   OH217981   2.567   0.857   5.759
 6006TIP3    H117982   2.536   0.896   5.841
 6006TIP3    H217983   2.607   0.775   5.785
 6007TIP3   OH217984   0.658   1.338   1.497
 6007TIP3    H117985   0.594   1.321   1.429
 6007TIP3    H217986   0.610   1.328   1.579
 6008TIP3   OH217987   2.966   2.127   0.153
 6008TIP3    H117988   2.889   2.079   0.182
 6008TIP3    H217989   2.977   2.198   0.216
 6009TIP3   OH217990   0.483   4.039   4.096
 6009TIP3    H117991   0.409   4.030   4.156
 6009TIP3    H217992   0.494   3.951   4.058
 6010TIP3   OH217993   3.860   4.368   2.186
 6010TIP3    H117994   3.788   4.305   2.177
 6010TIP3    H217995   3.878   4.371   2.280
 6011TIP3   OH217996   0.661   4.314   2.082
 6011TIP3    H117997   0.738   4.322   2.139
 6011TIP3    H217998   0.587   4.328   2.141
 6012TIP3   OH217999   4.940   5.779   3.881
 6012TIP3    H118000   4.995   5.767   3.804
 6012TIP3    H218001   4.977   5.719   3.946
 6013TIP3   OH218002   1.524   1.468   5.714
 6013TIP3    H118003   1.578   1.400   5.674
 6013TIP3    H218004   1.584   1.541   5.728
 6014TIP3   OH218005   6.049   0.329   4.122
 6014TIP3    H118006   6.059   0.288   4.036
 6014TIP3    H218007   6.034   0.421   4.102
 6015TIP3   OH218008   6.967   4.286   3.645
 6015TIP3    H118009   7.046   4.267   3.695
 6015TIP3    H218010   6.992   4.271   3.554
 6016TIP3   OH218011   4.521   1.274   0.937
 6016TIP3    H118012   4.548   1.209   0.871
 6016TIP3    H218013   4.540   1.359   0.895
 6017TIP3   OH218014   4.969   3.404   3.381
 6017TIP3    H118015   5.009   3.334   3.329
 6017TIP3    H218016   4.898   3.361   3.428
 6018TIP3   OH218017   6.039   0.751   2.538
 6018TIP3    H118018   6.021   0.780   2.627
 6018TIP3    H218019   5.953   0.732   2.501
 6019TIP3   OH218020   0.862   5.385   0.204
 6019TIP3    H118021   0.947   5.354   0.236
 6019TIP3    H218022   0.880   5.470   0.165
 6020TIP3   OH218023   4.365   6.393   3.704
 6020TIP3    H118024   4.298   6.390   3.773
 6020TIP3    H218025   4.371   6.303   3.672
 6021TIP3   OH218026   2.665   0.576   0.601
 6021TIP3    H118027   2.675   0.664   0.565
 6021TIP3    H218028   2.572   0.557   0.595
 6022TIP3   OH218029   4.458   5.411   4.033
 6022TIP3    H118030   4.407   5.411   4.114
 6022TIP3    H218031   4.487   5.502   4.023
 6023TIP3   OH218032   1.329   6.209   4.583
 6023TIP3    H118033   1.278   6.280   4.621
 6023TIP3    H218034   1.277   6.180   4.508
 6024TIP3   OH218035   0.627   0.716   3.285
 6024TIP3    H118036   0.610   0.736   3.376
 6024TIP3    H218037   0.722   0.714   3.278
 6025TIP3   OH218038   3.368   1.380   4.646
 6025TIP3    H118039   3.320   1.303   4.677
 6025TIP3    H218040   3.439   1.390   4.709
 6026TIP3   OH218041   0.824   0.668   0.786
 6026TIP3    H118042   0.749   0.716   0.748
 6026TIP3    H218043   0.821   0.582   0.744
 6027TIP3   OH218044   2.873   5.159   2.853
 6027TIP3    H118045   2.817   5.104   2.798
 6027TIP3    H218046   2.891   5.236   2.798
 6028TIP3   OH218047   5.409   1.195   3.374
 6028TIP3    H118048   5.316   1.212   3.392
 6028TIP3    H218049   5.445   1.281   3.354
 6029TIP3   OH218050   0.455   2.996   5.611
 6029TIP3    H118051   0.466   3.015   5.518
 6029TIP3    H218052   0.473   2.902   5.618
 6030TIP3   OH218053   0.263   2.699   5.084
 6030TIP3    H118054   0.336   2.761   5.084
 6030TIP3    H218055   0.194   2.745   5.036
 6031TIP3   OH218056   3.181   2.611   2.187
 6031TIP3    H118057   3.162   2.689   2.239
 6031TIP3    H218058   3.106   2.601   2.129
 6032TIP3   OH218059   4.190   3.633   4.665
 6032TIP3    H118060   4.111   3.594   4.702
 6032TIP3    H218061   4.260   3.572   4.687
 6033TIP3   OH218062   3.013   6.215   3.404
 6033TIP3    H118063   2.922   6.237   3.423
 6033TIP3    H218064   3.042   6.282   3.342
 6034TIP3   OH218065   1.714   2.591   3.881
 6034TIP3    H118066   1.689   2.655   3.814
 6034TIP3    H218067   1.665   2.512   3.857
 6035TIP3   OH218068   0.174   1.448   5.223
 6035TIP3    H118069   0.162   1.540   5.200
 6035TIP3    H218070   0.085   1.414   5.234
 6036TIP3   OH218071   2.270   1.424   0.056
 6036TIP3    H118072   2.336   1.383   0.113
 6036TIP3    H218073   2.228   1.351   0.012
 6037TIP3   OH218074   6.163   2.314   2.425
 6037TIP3    H118075   6.257   2.294   2.418
 6037TIP3    H218076   6.132   2.313   2.334
 6038TIP3   OH218077   4.188   0.978   3.047
 6038TIP3    H118078   4.266   1.033   3.047
 6038TIP3    H218079   4.146   0.995   2.963
 6039TIP3   OH218080   2.651   0.976   2.862
 6039TIP3    H118081   2.708   0.996   2.788
 6039TIP3    H218082   2.562   0.992   2.829
 6040TIP3   OH218083   2.624   2.195   5.767
 6040TIP3    H118084   2.648   2.121   5.711
 6040TIP3    H218085   2.708   2.233   5.794
 6041TIP3   OH218086   2.093   6.101   4.794
 6041TIP3    H118087   2.143   6.165   4.845
 6041TIP3    H218088   2.017   6.081   4.849
 6042TIP3   OH218089   6.766   3.157   5.032
 6042TIP3    H118090   6.719   3.131   4.953
 6042TIP3    H218091   6.843   3.101   5.033
 6043TIP3   OH218092   7.008   5.585   1.296
 6043TIP3    H118093   7.102   5.577   1.278
 6043TIP3    H218094   6.990   5.516   1.360
 6044TIP3   OH218095   5.834   2.760   1.831
 6044TIP3    H118096   5.758   2.772   1.775
 6044TIP3    H218097   5.830   2.833   1.894
 6045TIP3   OH218098   0.260   6.254   3.825
 6045TIP3    H118099   0.265   6.158   3.830
 6045TIP3    H218100   0.226   6.271   3.737
 6046TIP3   OH218101   0.743   6.602   1.398
 6046TIP3    H118102   0.654   6.619   1.369
 6046TIP3    H218103   0.788   6.686   1.391
 6047TIP3   OH218104   0.064   6.725   2.600
 6047TIP3    H118105   0.040   6.813   2.630
 6047TIP3    H218106  -0.007   6.669   2.630
 6048TIP3   OH218107   3.633   3.687   4.710
 6048TIP3    H118108   3.586   3.606   4.690
 6048TIP3    H218109   3.566   3.756   4.701
 6049TIP3   OH218110   3.710   2.632   3.673
 6049TIP3    H118111   3.747   2.715   3.644
 6049TIP3    H218112   3.760   2.609   3.752
 6050TIP3   OH218113   0.907   3.915   4.943
 6050TIP3    H118114   0.872   3.855   4.877
 6050TIP3    H218115   0.837   3.924   5.008
 6051TIP3   OH218116   5.927   2.570   4.723
 6051TIP3    H118117   5.856   2.566   4.786
 6051TIP3    H218118   5.990   2.505   4.753
 6052TIP3   OH218119   3.858   5.362   1.691
 6052TIP3    H118120   3.831   5.433   1.750
 6052TIP3    H218121   3.788   5.358   1.625
 6053TIP3   OH218122   6.671   2.753   2.857
 6053TIP3    H118123   6.726   2.675   2.855
 6053TIP3    H218124   6.723   2.821   2.814
 6054TIP3   OH218125   6.124   0.374   1.934
 6054TIP3    H118126   6.069   0.362   2.012
 6054TIP3    H218127   6.206   0.409   1.968
 6055TIP3   OH218128   1.535   0.673   1.345
 6055TIP3    H118129   1.523   0.719   1.428
 6055TIP3    H218130   1.549   0.582   1.369
 6056TIP3   OH218131   3.482   4.816   4.239
 6056TIP3    H118132   3.552   4.880   4.258
 6056TIP3    H218133   3.480   4.759   4.315
 6057TIP3   OH218134   5.977   5.720   3.651
 6057TIP3    H118135   5.902   5.681   3.607
 6057TIP3    H218136   5.973   5.685   3.740
 6058TIP3   OH218137   5.228   4.334   1.688
 6058TIP3    H118138   5.163   4.313   1.755
 6058TIP3    H218139   5.303   4.367   1.736
 6059TIP3   OH218140   5.737   4.571   1.841
 6059TIP3    H118141   5.734   4.603   1.751
 6059TIP3    H218142   5.791   4.636   1.887
 6060TIP3   OH218143   3.245   2.669   3.421
 6060TIP3    H118144   3.214   2.755   3.394
 6060TIP3    H218145   3.336   2.665   3.392
 6061TIP3   OH218146   6.209   4.254   3.556
 6061TIP3    H118147   6.180   4.313   3.626
 6061TIP3    H218148   6.180   4.168   3.584
 6062TIP3   OH218149   3.666   2.755   5.294
 6062TIP3    H118150   3.643   2.743   5.202
 6062TIP3    H218151   3.707   2.673   5.320
 6063TIP3   OH218152   3.260   2.861   2.758
 6063TIP3    H118153   3.224   2.906   2.681
 6063TIP3    H218154   3.329   2.805   2.723
 6064TIP3   OH218155   5.780   1.732   5.087
 6064TIP3    H118156   5.692   1.735   5.124
 6064TIP3    H218157   5.775   1.667   5.017
 6065TIP3   OH218158   2.171   5.133   4.682
 6065TIP3    H118159   2.149   5.153   4.773
 6065TIP3    H218160   2.247   5.188   4.663
 6066TIP3   OH218161   5.391   6.554   5.199
 6066TIP3    H118162   5.366   6.646   5.202
 6066TIP3    H218163   5.309   6.508   5.182
 6067TIP3   OH218164   2.761   6.241   2.175
 6067TIP3    H118165   2.732   6.326   2.142
 6067TIP3    H218166   2.766   6.253   2.270
 6068TIP3   OH218167   4.220   2.678   5.343
 6068TIP3    H118168   4.315   2.691   5.344
 6068TIP3    H218169   4.185   2.752   5.391
 6069TIP3   OH218170   2.158   0.932   5.157
 6069TIP3    H118171   2.224   0.875   5.117
 6069TIP3    H218172   2.130   0.885   5.235
 6070TIP3   OH218173   5.766   2.099   0.252
 6070TIP3    H118174   5.782   2.161   0.323
 6070TIP3    H218175   5.853   2.067   0.228
 6071TIP3   OH218176   6.245   6.384   4.851
 6071TIP3    H118177   6.214   6.419   4.934
 6071TIP3    H218178   6.252   6.460   4.793
 6072TIP3   OH218179   0.654   4.371   2.693
 6072TIP3    H118180   0.662   4.456   2.737
 6072TIP3    H218181   0.679   4.307   2.760
 6073TIP3   OH218182   5.436   6.367   3.417
 6073TIP3    H118183   5.457   6.396   3.328
 6073TIP3    H218184   5.439   6.271   3.412
 6074TIP3   OH218185   4.723   4.149   3.619
 6074TIP3    H118186   4.643   4.113   3.580
 6074TIP3    H218187   4.755   4.212   3.556
 6075TIP3   OH218188   4.130   2.678   2.033
 6075TIP3    H118189   4.114   2.743   2.102
 6075TIP3    H218190   4.092   2.717   1.954
 6076TIP3   OH218191   3.011   6.746   1.520
 6076TIP3    H118192   2.950   6.737   1.447
 6076TIP3    H218193   3.097   6.726   1.482
 6077TIP3   OH218194   4.179   3.349   3.535
 6077TIP3    H118195   4.272   3.330   3.549
 6077TIP3    H218196   4.176   3.395   3.452
 6078TIP3   OH218197   7.201   4.277   2.944
 6078TIP3    H118198   7.267   4.247   2.882
 6078TIP3    H218199   7.118   4.251   2.905
 6079TIP3   OH218200   4.417   1.447   5.651
 6079TIP3    H118201   4.370   1.524   5.621
 6079TIP3    H218202   4.509   1.475   5.654
 6080TIP3   OH218203   6.724   3.897   0.756
 6080TIP3    H118204   6.776   3.971   0.789
 6080TIP3    H218205   6.779   3.857   0.689
 6081TIP3   OH218206   2.140   3.584   2.117
 6081TIP3    H118207   2.058   3.597   2.165
 6081TIP3    H218208   2.199   3.651   2.151
 6082TIP3   OH218209   5.083   5.773   0.785
 6082TIP3    H118210   5.075   5.867   0.766
 6082TIP3    H218211   5.070   5.766   0.879
 6083TIP3   OH218212   4.708   2.946   3.731
 6083TIP3    H118213   4.655   2.936   3.811
 6083TIP3    H218214   4.648   2.923   3.660
 6084TIP3   OH218215   6.261   1.286   2.934
 6084TIP3    H118216   6.300   1.333   2.861
 6084TIP3    H218217   6.183   1.337   2.957
 6085TIP3   OH218218   6.391   1.704   0.917
 6085TIP3    H118219   6.306   1.665   0.897
 6085TIP3    H218220   6.406   1.684   1.010
 6086TIP3   OH218221   6.463   3.065   1.423
 6086TIP3    H118222   6.447   3.057   1.517
 6086TIP3    H218223   6.400   3.131   1.394
 6087TIP3   OH218224   6.222   0.710   0.152
 6087TIP3    H118225   6.307   0.729   0.192
 6087TIP3    H218226   6.241   0.694   0.060
 6088TIP3   OH218227   3.814   3.243   0.761
 6088TIP3    H118228   3.876   3.174   0.785
 6088TIP3    H218229   3.818   3.247   0.665
 6089TIP3   OH218230   0.250   4.373   0.431
 6089TIP3    H118231   0.279   4.426   0.505
 6089TIP3    H218232   0.184   4.314   0.468
 6090TIP3   OH218233   5.702   3.964   0.011
 6090TIP3    H118234   5.795   3.985   0.008
 6090TIP3    H218235   5.695   3.881  -0.036
 6091TIP3   OH218236   1.913   5.831   5.459
 6091TIP3    H118237   1.836   5.884   5.441
 6091TIP3    H218238   1.897   5.747   5.415
 6092TIP3   OH218239   5.887   6.627   3.622
 6092TIP3    H118240   5.808   6.577   3.604
 6092TIP3    H218241   5.951   6.561   3.650
 6093TIP3   OH218242   5.580   4.340   0.386
 6093TIP3    H118243   5.663   4.384   0.368
 6093TIP3    H218244   5.566   4.284   0.310
 6094TIP3   OH218245   1.877   5.564   5.854
 6094TIP3    H118246   1.817   5.533   5.786
 6094TIP3    H218247   1.912   5.646   5.819
 6095TIP3   OH218248   6.887   3.227   0.574
 6095TIP3    H118249   6.813   3.171   0.550
 6095TIP3    H218250   6.940   3.172   0.632
 6096TIP3   OH218251   4.454   6.144   0.957
 6096TIP3    H118252   4.444   6.232   0.921
 6096TIP3    H218253   4.366   6.107   0.954
 6097TIP3   OH218254   0.599   5.078   2.021
 6097TIP3    H118255   0.522   5.132   2.037
 6097TIP3    H218256   0.592   5.007   2.086
 6098TIP3   OH218257   3.184   1.156   2.469
 6098TIP3    H118258   3.148   1.070   2.452
 6098TIP3    H218259   3.145   1.183   2.552
 6099TIP3   OH218260   0.221   4.860   1.369
 6099TIP3    H118261   0.294   4.922   1.373
 6099TIP3    H218262   0.169   4.879   1.447
 6100TIP3   OH218263   1.844   5.365   2.650
 6100TIP3    H118264   1.921   5.398   2.602
 6100TIP3    H218265   1.795   5.444   2.671
 6101TIP3   OH218266   4.168   4.477   0.554
 6101TIP3    H118267   4.218   4.528   0.490
 6101TIP3    H218268   4.207   4.501   0.639
 6102TIP3   OH218269   0.147   1.773   0.466
 6102TIP3    H118270   0.237   1.739   0.465
 6102TIP3    H218271   0.151   1.851   0.412
 6103TIP3   OH218272   0.881   4.147   4.010
 6103TIP3    H118273   0.878   4.149   3.915
 6103TIP3    H218274   0.949   4.211   4.033
 6104TIP3   OH218275   1.654   4.994   3.384
 6104TIP3    H118276   1.559   4.981   3.380
 6104TIP3    H218277   1.683   4.942   3.458
 6105TIP3   OH218278   6.680   5.623   4.049
 6105TIP3    H118279   6.633   5.591   3.971
 6105TIP3    H218280   6.759   5.569   4.052
 6106TIP3   OH218281   1.913   4.475   5.377
 6106TIP3    H118282   1.873   4.388   5.376
 6106TIP3    H218283   1.845   4.534   5.345
 6107TIP3   OH218284   3.042   1.853   4.036
 6107TIP3    H118285   3.128   1.815   4.018
 6107TIP3    H218286   3.053   1.947   4.019
 6108TIP3   OH218287   4.388   4.565   2.486
 6108TIP3    H118288   4.355   4.561   2.576
 6108TIP3    H218289   4.478   4.596   2.495
 6109TIP3   OH218290   0.876   3.923   0.043
 6109TIP3    H118291   0.832   3.846   0.080
 6109TIP3    H218292   0.950   3.888  -0.005
 6110TIP3   OH218293   4.747   3.791   1.902
 6110TIP3    H118294   4.813   3.738   1.946
 6110TIP3    H218295   4.683   3.727   1.869
 6111TIP3   OH218296   3.076   2.162   5.600
 6111TIP3    H118297   2.999   2.106   5.610
 6111TIP3    H218298   3.140   2.107   5.555
 6112TIP3   OH218299   2.241   1.983   4.180
 6112TIP3    H118300   2.198   1.976   4.265
 6112TIP3    H218301   2.198   1.916   4.126
 6113TIP3   OH218302   6.884   0.909   2.434
 6113TIP3    H118303   6.942   0.961   2.488
 6113TIP3    H218304   6.797   0.946   2.449
 6114TIP3   OH218305   0.963   2.602   3.921
 6114TIP3    H118306   0.973   2.647   4.005
 6114TIP3    H218307   0.946   2.511   3.945
 6115TIP3   OH218308   3.436   0.194   0.032
 6115TIP3    H118309   3.494   0.118   0.034
 6115TIP3    H218310   3.399   0.193  -0.056
 6116TIP3   OH218311   4.258   4.915   5.314
 6116TIP3    H118312   4.279   4.821   5.308
 6116TIP3    H218313   4.232   4.928   5.405
 6117TIP3   OH218314   6.828   5.428   4.971
 6117TIP3    H118315   6.911   5.391   5.002
 6117TIP3    H218316   6.836   5.522   4.989
 6118TIP3   OH218317   2.234   2.417   1.475
 6118TIP3    H118318   2.269   2.408   1.563
 6118TIP3    H218319   2.214   2.327   1.448
 6119TIP3   OH218320   0.456   3.496   3.392
 6119TIP3    H118321   0.477   3.437   3.464
 6119TIP3    H218322   0.448   3.582   3.433
 6120TIP3   OH218323   0.028   2.954   2.905
 6120TIP3    H118324   0.115   2.993   2.911
 6120TIP3    H218325   0.015   2.941   2.811
 6121TIP3   OH218326   5.355   6.243   3.686
 6121TIP3    H118327   5.356   6.321   3.630
 6121TIP3    H218328   5.434   6.251   3.739
 6122TIP3   OH218329   4.333   5.415   3.794
 6122TIP3    H118330   4.254   5.454   3.830
 6122TIP3    H218331   4.385   5.390   3.870
 6123TIP3   OH218332   5.575   4.418   1.499
 6123TIP3    H118333   5.619   4.382   1.576
 6123TIP3    H218334   5.625   4.384   1.425
 6124TIP3   OH218335   2.698   5.686   2.945
 6124TIP3    H118336   2.732   5.692   3.034
 6124TIP3    H218337   2.774   5.704   2.889
 6125TIP3   OH218338   5.196   1.023   0.789
 6125TIP3    H118339   5.124   1.061   0.740
 6125TIP3    H218340   5.229   1.095   0.842
 6126TIP3   OH218341   6.472   3.466   4.672
 6126TIP3    H118342   6.427   3.494   4.592
 6126TIP3    H218343   6.477   3.546   4.725
 6127TIP3   OH218344   5.249   3.133   3.038
 6127TIP3    H118345   5.293   3.081   2.971
 6127TIP3    H218346   5.243   3.221   3.001
 6128TIP3   OH218347   4.694   1.764   5.102
 6128TIP3    H118348   4.641   1.696   5.061
 6128TIP3    H218349   4.657   1.774   5.190
 6129TIP3   OH218350   5.421   5.568   3.330
 6129TIP3    H118351   5.376   5.544   3.249
 6129TIP3    H218352   5.397   5.660   3.345
 6130TIP3   OH218353   4.051   2.437   2.907
 6130TIP3    H118354   4.135   2.400   2.934
 6130TIP3    H218355   3.998   2.436   2.986
 6131TIP3   OH218356   0.848   1.102   3.155
 6131TIP3    H118357   0.801   1.088   3.073
 6131TIP3    H218358   0.932   1.059   3.143
 6132TIP3   OH218359   7.136   0.968   5.624
 6132TIP3    H118360   7.180   0.938   5.544
 6132TIP3    H218361   7.139   0.893   5.683
 6133TIP3   OH218362   6.704   1.058   4.137
 6133TIP3    H118363   6.752   1.138   4.158
 6133TIP3    H218364   6.730   1.036   4.048
 6134TIP3   OH218365   0.272   0.967   1.235
 6134TIP3    H118366   0.304   1.039   1.290
 6134TIP3    H218367   0.236   0.904   1.297
 6135TIP3   OH218368   5.607   6.477   0.630
 6135TIP3    H118369   5.619   6.410   0.698
 6135TIP3    H218370   5.552   6.544   0.672
 6136TIP3   OH218371   1.390   0.220   2.267
 6136TIP3    H118372   1.309   0.267   2.289
 6136TIP3    H218373   1.413   0.174   2.348
 6137TIP3   OH218374   5.320   6.418   3.132
 6137TIP3    H118375   5.237   6.407   3.086
 6137TIP3    H218376   5.305   6.379   3.218
 6138TIP3   OH218377   6.913   0.074   3.885
 6138TIP3    H118378   6.853   0.001   3.899
 6138TIP3    H218379   6.963   0.049   3.807
 6139TIP3   OH218380   1.141   6.752   3.846
 6139TIP3    H118381   1.066   6.728   3.901
 6139TIP3    H218382   1.114   6.728   3.757
 6140TIP3   OH218383   1.253   4.728   5.605
 6140TIP3    H118384   1.337   4.700   5.568
 6140TIP3    H218385   1.189   4.668   5.566
 6141TIP3   OH218386   3.959   6.471   0.788
 6141TIP3    H118387   4.036   6.486   0.733
 6141TIP3    H218388   3.965   6.537   0.857
 6142TIP3   OH218389   4.388   4.219   5.585
 6142TIP3    H118390   4.340   4.158   5.529
 6142TIP3    H218391   4.480   4.201   5.566
 6143TIP3   OH218392   4.428   2.917   0.942
 6143TIP3    H118393   4.442   3.006   0.973
 6143TIP3    H218394   4.383   2.873   1.014
 6144TIP3   OH218395   3.158   6.284   4.050
 6144TIP3    H118396   3.154   6.379   4.039
 6144TIP3    H218397   3.084   6.263   4.108
 6145TIP3   OH218398   5.648   6.751   4.645
 6145TIP3    H118399   5.738   6.720   4.632
 6145TIP3    H218400   5.593   6.682   4.608
 6146TIP3   OH218401   5.110   5.709   3.676
 6146TIP3    H118402   5.205   5.713   3.673
 6146TIP3    H218403   5.084   5.688   3.587
 6147TIP3   OH218404   5.846   0.544   4.836
 6147TIP3    H118405   5.840   0.576   4.746
 6147TIP3    H218406   5.804   0.612   4.889
 6148TIP3   OH218407   5.774   2.435   2.495
 6148TIP3    H118408   5.682   2.452   2.473
 6148TIP3    H218409   5.817   2.520   2.487
 6149TIP3   OH218410   0.597   5.020   5.379
 6149TIP3    H118411   0.637   5.007   5.465
 6149TIP3    H218412   0.505   5.038   5.399
 6150TIP3   OH218413   4.960   5.051   4.586
 6150TIP3    H118414   4.929   5.109   4.517
 6150TIP3    H218415   4.987   4.971   4.540
 6151TIP3   OH218416   0.645   3.828   2.830
 6151TIP3    H118417   0.619   3.743   2.794
 6151TIP3    H218418   0.564   3.863   2.868
 6152TIP3   OH218419   1.631   2.307   0.898
 6152TIP3    H118420   1.571   2.350   0.838
 6152TIP3    H218421   1.714   2.354   0.887
 6153TIP3   OH218422   0.268   6.433   4.056
 6153TIP3    H118423   0.191   6.418   4.111
 6153TIP3    H218424   0.247   6.389   3.974
 6154TIP3   OH218425   2.216   1.523   4.917
 6154TIP3    H118426   2.158   1.456   4.882
 6154TIP3    H218427   2.243   1.490   5.003
 6155TIP3   OH218428   5.809   1.751   5.822
 6155TIP3    H118429   5.802   1.790   5.909
 6155TIP3    H218430   5.899   1.769   5.794
 6156TIP3   OH218431   3.712   0.829   5.343
 6156TIP3    H118432   3.715   0.794   5.254
 6156TIP3    H218433   3.658   0.767   5.391
 6157TIP3   OH218434   0.292   0.521   3.667
 6157TIP3    H118435   0.275   0.613   3.647
 6157TIP3    H218436   0.384   0.518   3.691
 6158TIP3   OH218437   5.936   4.406   1.712
 6158TIP3    H118438   5.945   4.449   1.627
 6158TIP3    H218439   5.855   4.443   1.748
 6159TIP3   OH218440   1.862   5.667   3.612
 6159TIP3    H118441   1.897   5.684   3.524
 6159TIP3    H218442   1.768   5.656   3.598
 6160TIP3   OH218443   6.021   5.827   2.300
 6160TIP3    H118444   6.098   5.857   2.347
 6160TIP3    H218445   6.047   5.826   2.208
 6161TIP3   OH218446   1.754   1.209   2.879
 6161TIP3    H118447   1.755   1.120   2.844
 6161TIP3    H218448   1.697   1.205   2.955
 6162TIP3   OH218449   6.635   5.451   2.904
 6162TIP3    H118450   6.572   5.512   2.942
 6162TIP3    H218451   6.718   5.470   2.949
 6163TIP3   OH218452   6.633   2.896   0.716
 6163TIP3    H118453   6.600   2.951   0.787
 6163TIP3    H218454   6.672   2.821   0.760
 6164TIP3   OH218455   3.406   5.330   4.404
 6164TIP3    H118456   3.342   5.260   4.393
 6164TIP3    H218457   3.455   5.305   4.482
 6165TIP3   OH218458   2.474   3.780   2.469
 6165TIP3    H118459   2.543   3.807   2.409
 6165TIP3    H218460   2.481   3.841   2.543
 6166TIP3   OH218461   2.949   0.814   5.571
 6166TIP3    H118462   3.006   0.777   5.638
 6166TIP3    H218463   2.976   0.771   5.490
 6167TIP3   OH218464   4.313   0.023   3.715
 6167TIP3    H118465   4.407   0.025   3.729
 6167TIP3    H218466   4.302  -0.009   3.626
 6168TIP3   OH218467   5.002   5.683   3.421
 6168TIP3    H118468   4.996   5.733   3.339
 6168TIP3    H218469   4.913   5.655   3.439
 6169TIP3   OH218470   6.028   6.402   0.459
 6169TIP3    H118471   6.091   6.351   0.509
 6169TIP3    H218472   5.976   6.448   0.525
 6170TIP3   OH218473   5.809   1.802   1.545
 6170TIP3    H118474   5.859   1.874   1.506
 6170TIP3    H218475   5.769   1.757   1.471
 6171TIP3   OH218476   6.584   3.659   4.385
 6171TIP3    H118477   6.591   3.707   4.303
 6171TIP3    H218478   6.674   3.636   4.407
 6172TIP3   OH218479   2.044   0.741   1.449
 6172TIP3    H118480   2.060   0.693   1.367
 6172TIP3    H218481   2.105   0.703   1.511
 6173TIP3   OH218482   4.408   2.619   2.278
 6173TIP3    H118483   4.349   2.663   2.339
 6173TIP3    H218484   4.429   2.685   2.212
 6174TIP3   OH218485   2.584   0.207   4.286
 6174TIP3    H118486   2.606   0.190   4.194
 6174TIP3    H218487   2.533   0.288   4.284
 6175TIP3   OH218488   4.977   5.602   1.846
 6175TIP3    H118489   5.032   5.638   1.916
 6175TIP3    H218490   4.934   5.678   1.808
 6176TIP3   OH218491   5.798   3.142   1.078
 6176TIP3    H118492   5.803   3.209   1.146
 6176TIP3    H218493   5.808   3.190   0.996
 6177TIP3   OH218494   4.750   5.586   5.056
 6177TIP3    H118495   4.742   5.524   4.985
 6177TIP3    H218496   4.723   5.538   5.134
 6178TIP3   OH218497   6.954   1.516   0.370
 6178TIP3    H118498   7.036   1.565   0.368
 6178TIP3    H218499   6.974   1.433   0.327
 6179TIP3   OH218500   3.365   6.710   0.327
 6179TIP3    H118501   3.273   6.682   0.330
 6179TIP3    H218502   3.391   6.717   0.419
 6180TIP3   OH218503   4.052   3.415   5.573
 6180TIP3    H118504   4.018   3.368   5.650
 6180TIP3    H218505   4.086   3.345   5.516
 6181TIP3   OH218506   2.294   5.886   1.109
 6181TIP3    H118507   2.296   5.981   1.101
 6181TIP3    H218508   2.383   5.857   1.089
 6182TIP3   OH218509   1.264   0.346   1.971
 6182TIP3    H118510   1.185   0.360   1.918
 6182TIP3    H218511   1.276   0.428   2.018
 6183TIP3   OH218512   2.976   1.036   3.323
 6183TIP3    H118513   2.899   0.980   3.318
 6183TIP3    H218514   2.970   1.078   3.409
 6184TIP3   OH218515   6.627   4.644   3.237
 6184TIP3    H118516   6.623   4.737   3.256
 6184TIP3    H218517   6.721   4.624   3.233
 6185TIP3   OH218518   3.459   5.763   1.483
 6185TIP3    H118519   3.381   5.711   1.465
 6185TIP3    H218520   3.434   5.819   1.557
 6186TIP3   OH218521   3.144   1.669   0.793
 6186TIP3    H118522   3.155   1.753   0.838
 6186TIP3    H218523   3.129   1.606   0.863
 6187TIP3   OH218524   3.106   4.218   1.472
 6187TIP3    H118525   3.196   4.206   1.501
 6187TIP3    H218526   3.114   4.267   1.390
 6188TIP3   OH218527   4.839   6.175   4.163
 6188TIP3    H118528   4.906   6.218   4.216
 6188TIP3    H218529   4.874   6.087   4.146
 6189TIP3   OH218530   3.159   0.736   1.030
 6189TIP3    H118531   3.125   0.738   0.941
 6189TIP3    H218532   3.105   0.799   1.078
 6190TIP3   OH218533   0.305   5.820   5.564
 6190TIP3    H118534   0.368   5.768   5.514
 6190TIP3    H218535   0.271   5.884   5.501
 6191TIP3   OH218536   5.400   6.020   5.839
 6191TIP3    H118537   5.463   5.951   5.859
 6191TIP3    H218538   5.388   6.014   5.744
 6192TIP3   OH218539   6.352   5.027   4.182
 6192TIP3    H118540   6.289   5.031   4.255
 6192TIP3    H218541   6.395   4.942   4.192
 6193TIP3   OH218542   5.503   6.252   2.913
 6193TIP3    H118543   5.422   6.212   2.880
 6193TIP3    H218544   5.573   6.207   2.865
 6194TIP3   OH218545   3.111   2.686   5.366
 6194TIP3    H118546   3.107   2.627   5.291
 6194TIP3    H218547   3.067   2.766   5.336
 6195TIP3   OH218548   3.057   4.609   0.904
 6195TIP3    H118549   3.112   4.561   0.842
 6195TIP3    H218550   3.036   4.691   0.859
 6196TIP3   OH218551   2.118   5.410   1.545
 6196TIP3    H118552   2.204   5.453   1.549
 6196TIP3    H218553   2.114   5.374   1.457
 6197TIP3   OH218554   1.601   5.970   1.326
 6197TIP3    H118555   1.618   5.985   1.419
 6197TIP3    H218556   1.688   5.965   1.286
 6198TIP3   OH218557   3.792   2.343   1.917
 6198TIP3    H118558   3.879   2.326   1.880
 6198TIP3    H218559   3.739   2.269   1.887
 6199TIP3   OH218560   3.895   4.284   0.985
 6199TIP3    H118561   3.898   4.306   1.079
 6199TIP3    H218562   3.911   4.190   0.982
 6200TIP3   OH218563   3.334   1.747   1.082
 6200TIP3    H118564   3.373   1.692   1.150
 6200TIP3    H218565   3.281   1.687   1.029
 6201TIP3   OH218566   3.024   2.040   2.715
 6201TIP3    H118567   3.067   1.969   2.762
 6201TIP3    H218568   2.930   2.026   2.730
 6202TIP3   OH218569   0.786   2.019   3.095
 6202TIP3    H118570   0.862   2.075   3.076
 6202TIP3    H218571   0.819   1.930   3.084
 6203TIP3   OH218572   4.384   6.768   1.288
 6203TIP3    H118573   4.440   6.731   1.356
 6203TIP3    H218574   4.299   6.780   1.330
 6204TIP3   OH218575   5.665   4.611   3.807
 6204TIP3    H118576   5.736   4.628   3.746
 6204TIP3    H218577   5.590   4.660   3.772
 6205TIP3   OH218578   5.082   3.970   2.314
 6205TIP3    H118579   4.989   3.951   2.307
 6205TIP3    H218580   5.107   4.001   2.227
 6206TIP3   OH218581   3.690   6.480   0.197
 6206TIP3    H118582   3.614   6.445   0.244
 6206TIP3    H218583   3.744   6.403   0.179
 6207TIP3   OH218584   0.962   5.648   5.714
 6207TIP3    H118585   0.868   5.668   5.716
 6207TIP3    H218586   0.987   5.659   5.622
 6208TIP3   OH218587   0.926   2.901   3.693
 6208TIP3    H118588   0.905   2.973   3.634
 6208TIP3    H218589   1.021   2.907   3.705
 6209TIP3   OH218590   0.461   5.433   4.122
 6209TIP3    H118591   0.538   5.469   4.078
 6209TIP3    H218592   0.391   5.495   4.100
 6210TIP3   OH218593   1.301   2.650   1.505
 6210TIP3    H118594   1.297   2.591   1.430
 6210TIP3    H218595   1.372   2.616   1.560
 6211TIP3   OH218596   6.291   0.712   5.751
 6211TIP3    H118597   6.352   0.662   5.806
 6211TIP3    H218598   6.205   0.696   5.790
 6212TIP3   OH218599   1.565   1.273   0.742
 6212TIP3    H118600   1.593   1.288   0.651
 6212TIP3    H218601   1.473   1.249   0.734
 6213TIP3   OH218602   6.028   5.920   5.501
 6213TIP3    H118603   5.991   5.874   5.426
 6213TIP3    H218604   6.109   5.960   5.468
 6214TIP3   OH218605   6.650   2.882   3.771
 6214TIP3    H118606   6.723   2.842   3.820
 6214TIP3    H218607   6.621   2.813   3.711
 6215TIP3   OH218608   2.361   1.836   0.983
 6215TIP3    H118609   2.421   1.847   1.056
 6215TIP3    H218610   2.313   1.756   1.003
 6216TIP3   OH218611   2.083   5.737   2.327
 6216TIP3    H118612   2.150   5.762   2.391
 6216TIP3    H218613   2.000   5.741   2.375
 6217TIP3   OH218614   0.029   6.578   0.287
 6217TIP3    H118615   0.104   6.631   0.261
 6217TIP3    H218616   0.065   6.516   0.351
 6218TIP3   OH218617   1.058   6.332   2.825
 6218TIP3    H118618   1.033   6.253   2.872
 6218TIP3    H218619   1.083   6.301   2.738
 6219TIP3   OH218620   0.319   5.063   5.441
 6219TIP3    H118621   0.233   5.104   5.433
 6219TIP3    H218622   0.300   4.972   5.463
 6220TIP3   OH218623   4.660   6.682   4.221
 6220TIP3    H118624   4.721   6.751   4.195
 6220TIP3    H218625   4.687   6.606   4.170
 6221TIP3   OH218626   1.944   2.407   1.118
 6221TIP3    H118627   1.949   2.317   1.149
 6221TIP3    H218628   1.916   2.400   1.027
 6222TIP3   OH218629   2.984   4.004   3.744
 6222TIP3    H118630   3.027   3.974   3.664
 6222TIP3    H218631   2.961   3.924   3.791
 6223TIP3   OH218632   5.892   1.701   3.967
 6223TIP3    H118633   5.809   1.676   3.927
 6223TIP3    H218634   5.867   1.745   4.049
 6224TIP3   OH218635   2.069   2.700   2.483
 6224TIP3    H118636   2.052   2.674   2.393
 6224TIP3    H218637   2.048   2.622   2.535
 6225TIP3   OH218638   4.895   5.832   0.281
 6225TIP3    H118639   4.917   5.912   0.329
 6225TIP3    H218640   4.972   5.814   0.227
 6226TIP3   OH218641   3.517   1.865   0.898
 6226TIP3    H118642   3.445   1.846   0.958
 6226TIP3    H218643   3.588   1.808   0.928
 6227TIP3   OH218644   0.304   0.298   2.898
 6227TIP3    H118645   0.285   0.323   2.807
 6227TIP3    H218646   0.292   0.203   2.899
 6228TIP3   OH218647   1.352   0.402   3.250
 6228TIP3    H118648   1.336   0.426   3.159
 6228TIP3    H218649   1.352   0.485   3.298
 6229TIP3   OH218650   6.563   2.843   4.702
 6229TIP3    H118651   6.538   2.822   4.612
 6229TIP3    H218652   6.639   2.788   4.720
 6230TIP3   OH218653   2.989   5.366   1.326
 6230TIP3    H118654   3.076   5.328   1.312
 6230TIP3    H218655   2.967   5.407   1.243
 6231TIP3   OH218656   4.396   3.183   5.387
 6231TIP3    H118657   4.301   3.184   5.374
 6231TIP3    H218658   4.424   3.102   5.345
 6232TIP3   OH218659   6.238   5.516   5.009
 6232TIP3    H118660   6.205   5.512   4.919
 6232TIP3    H218661   6.177   5.574   5.055
 6233TIP3   OH218662   1.449   5.191   4.431
 6233TIP3    H118663   1.453   5.285   4.412
 6233TIP3    H218664   1.536   5.158   4.406
 6234TIP3   OH218665   2.600   3.762   1.403
 6234TIP3    H118666   2.645   3.841   1.433
 6234TIP3    H218667   2.668   3.694   1.401
 6235TIP3   OH218668   5.576   5.777   4.077
 6235TIP3    H118669   5.483   5.790   4.061
 6235TIP3    H218670   5.600   5.701   4.024
 6236TIP3   OH218671   4.157   4.363   1.969
 6236TIP3    H118672   4.116   4.419   2.035
 6236TIP3    H218673   4.242   4.340   2.006
 6237TIP3   OH218674   6.350   5.382   1.803
 6237TIP3    H118675   6.309   5.428   1.730
 6237TIP3    H218676   6.440   5.414   1.805
 6238TIP3   OH218677   5.185   3.315   4.238
 6238TIP3    H118678   5.115   3.315   4.303
 6238TIP3    H218679   5.192   3.406   4.210
 6239TIP3   OH218680   1.093   4.820   3.038
 6239TIP3    H118681   1.033   4.747   3.022
 6239TIP3    H218682   1.169   4.802   2.983
 6240TIP3   OH218683   3.112   1.240   0.661
 6240TIP3    H118684   3.164   1.262   0.584
 6240TIP3    H218685   3.166   1.177   0.709
 6241TIP3   OH218686   2.998   3.854   2.285
 6241TIP3    H118687   2.980   3.947   2.269
 6241TIP3    H218688   3.019   3.849   2.378
 6242TIP3   OH218689   6.202   3.464   2.984
 6242TIP3    H118690   6.219   3.379   3.024
 6242TIP3    H218691   6.154   3.443   2.903
 6243TIP3   OH218692   6.621   3.209   1.085
 6243TIP3    H118693   6.574   3.140   1.037
 6243TIP3    H218694   6.553   3.258   1.130
 6244TIP3   OH218695   1.090   3.044   5.533
 6244TIP3    H118696   1.171   2.995   5.519
 6244TIP3    H218697   1.101   3.085   5.619
 6245TIP3   OH218698   3.980   5.484   5.458
 6245TIP3    H118699   3.916   5.416   5.435
 6245TIP3    H218700   3.948   5.563   5.414
 6246TIP3   OH218701   2.321   0.568   2.941
 6246TIP3    H118702   2.230   0.597   2.936
 6246TIP3    H218703   2.324   0.489   2.887
 6247TIP3   OH218704   2.735   3.169   0.350
 6247TIP3    H118705   2.796   3.111   0.396
 6247TIP3    H218706   2.753   3.154   0.258
 6248TIP3   OH218707   7.038   6.327   4.662
 6248TIP3    H118708   6.970   6.375   4.614
 6248TIP3    H218709   6.991   6.256   4.705
 6249TIP3   OH218710   3.780   4.998   4.610
 6249TIP3    H118711   3.731   5.034   4.536
 6249TIP3    H218712   3.849   4.945   4.570
 6250TIP3   OH218713   0.552   3.043   2.944
 6250TIP3    H118714   0.634   2.993   2.940
 6250TIP3    H218715   0.533   3.052   3.037
 6251TIP3   OH218716   6.963   0.166   1.159
 6251TIP3    H118717   6.957   0.125   1.072
 6251TIP3    H218718   6.908   0.111   1.215
 6252TIP3   OH218719   0.197   5.680   4.065
 6252TIP3    H118720   0.243   5.764   4.068
 6252TIP3    H218721   0.127   5.689   4.129
 6253TIP3   OH218722   3.508   6.703   2.276
 6253TIP3    H118723   3.597   6.717   2.244
 6253TIP3    H218724   3.516   6.639   2.346
 6254TIP3   OH218725   6.130   3.481   4.884
 6254TIP3    H118726   6.144   3.386   4.884
 6254TIP3    H218727   6.079   3.498   4.805
 6255TIP3   OH218728   6.407   3.618   0.017
 6255TIP3    H118729   6.423   3.596   0.108
 6255TIP3    H218730   6.393   3.713   0.017
 6256TIP3   OH218731   5.812   2.349   0.090
 6256TIP3    H118732   5.723   2.323   0.114
 6256TIP3    H218733   5.826   2.309   0.004
 6257TIP3   OH218734   5.344   3.094   5.621
 6257TIP3    H118735   5.355   3.045   5.702
 6257TIP3    H218736   5.288   3.038   5.567
 6258TIP3   OH218737   3.941   6.257   0.984
 6258TIP3    H118738   3.849   6.282   0.988
 6258TIP3    H218739   3.979   6.316   0.919
 6259TIP3   OH218740   2.069   6.268   2.238
 6259TIP3    H118741   2.003   6.255   2.169
 6259TIP3    H218742   2.032   6.222   2.314
 6260TIP3   OH218743   2.226   5.153   3.829
 6260TIP3    H118744   2.244   5.222   3.893
 6260TIP3    H218745   2.263   5.186   3.747
 6261TIP3   OH218746   1.802   0.581   1.511
 6261TIP3    H118747   1.786   0.487   1.514
 6261TIP3    H218748   1.879   0.592   1.455
 6262TIP3   OH218749   4.366   4.421   4.379
 6262TIP3    H118750   4.376   4.515   4.388
 6262TIP3    H218751   4.456   4.388   4.374
 6263TIP3   OH218752   5.141   0.321   2.672
 6263TIP3    H118753   5.118   0.265   2.746
 6263TIP3    H218754   5.229   0.353   2.693
 6264TIP3   OH218755   1.369   0.948   2.941
 6264TIP3    H118756   1.455   0.913   2.965
 6264TIP3    H218757   1.359   1.025   2.996
 6265TIP3   OH218758   5.854   1.419   4.309
 6265TIP3    H118759   5.928   1.478   4.295
 6265TIP3    H218760   5.777   1.476   4.297
 6266TIP3   OH218761   4.341   1.939   5.372
 6266TIP3    H118762   4.396   1.975   5.441
 6266TIP3    H218763   4.257   1.984   5.381
 6267TIP3   OH218764   5.131   6.500   5.679
 6267TIP3    H118765   5.131   6.578   5.734
 6267TIP3    H218766   5.136   6.427   5.742
 6268TIP3   OH218767   1.235   5.978   0.234
 6268TIP3    H118768   1.309   5.941   0.282
 6268TIP3    H218769   1.210   6.056   0.284
 6269TIP3   OH218770   2.964   4.777   1.743
 6269TIP3    H118771   2.886   4.723   1.759
 6269TIP3    H218772   3.020   4.761   1.819
 6270TIP3   OH218773   1.454   6.655   4.852
 6270TIP3    H118774   1.450   6.690   4.763
 6270TIP3    H218775   1.516   6.712   4.897
 6271TIP3   OH218776   6.508   4.392   5.302
 6271TIP3    H118777   6.440   4.430   5.358
 6271TIP3    H218778   6.476   4.304   5.281
 6272TIP3   OH218779   2.272   1.424   5.159
 6272TIP3    H118780   2.286   1.329   5.153
 6272TIP3    H218781   2.184   1.433   5.196
 6273TIP3   OH218782   2.609   0.913   2.218
 6273TIP3    H118783   2.688   0.964   2.235
 6273TIP3    H218784   2.576   0.946   2.134
 6274TIP3   OH218785   1.255   1.639   2.536
 6274TIP3    H118786   1.267   1.551   2.500
 6274TIP3    H218787   1.219   1.624   2.624
 6275TIP3   OH218788   6.397   3.064   3.511
 6275TIP3    H118789   6.471   3.080   3.570
 6275TIP3    H218790   6.424   2.989   3.459
 6276TIP3   OH218791   0.593   2.742   0.593
 6276TIP3    H118792   0.645   2.814   0.628
 6276TIP3    H218793   0.653   2.668   0.589
 6277TIP3   OH218794   4.379   6.309   5.654
 6277TIP3    H118795   4.387   6.355   5.571
 6277TIP3    H218796   4.362   6.218   5.629
 6278TIP3   OH218797   5.256   0.518   5.263
 6278TIP3    H118798   5.161   0.520   5.254
 6278TIP3    H218799   5.284   0.443   5.212
 6279TIP3   OH218800   1.110   5.527   2.649
 6279TIP3    H118801   1.201   5.498   2.661
 6279TIP3    H218802   1.074   5.531   2.737
 6280TIP3   OH218803   5.720   5.076   2.222
 6280TIP3    H118804   5.662   5.143   2.258
 6280TIP3    H218805   5.706   4.999   2.278
 6281TIP3   OH218806   5.747   1.029   1.935
 6281TIP3    H118807   5.804   1.105   1.925
 6281TIP3    H218808   5.669   1.063   1.977
 6282TIP3   OH218809   6.262   6.272   0.582
 6282TIP3    H118810   6.283   6.274   0.489
 6282TIP3    H218811   6.322   6.335   0.622
 6283TIP3   OH218812   2.020   1.611   2.677
 6283TIP3    H118813   2.033   1.692   2.725
 6283TIP3    H218814   1.935   1.578   2.707
 6284TIP3   OH218815   0.610   0.133   4.643
 6284TIP3    H118816   0.546   0.065   4.621
 6284TIP3    H218817   0.694   0.087   4.645
 6285TIP3   OH218818   5.726   1.402   3.985
 6285TIP3    H118819   5.738   1.485   3.940
 6285TIP3    H218820   5.638   1.406   4.021
 6286TIP3   OH218821   4.169   4.135   1.260
 6286TIP3    H118822   4.173   4.229   1.276
 6286TIP3    H218823   4.253   4.101   1.291
 6287TIP3   OH218824   2.685   3.065   2.781
 6287TIP3    H118825   2.699   2.979   2.742
 6287TIP3    H218826   2.685   3.126   2.707
 6288TIP3   OH218827   2.155   2.532   5.108
 6288TIP3    H118828   2.245   2.508   5.089
 6288TIP3    H218829   2.102   2.462   5.069
 6289TIP3   OH218830   3.600   3.553   1.359
 6289TIP3    H118831   3.636   3.514   1.438
 6289TIP3    H218832   3.669   3.612   1.328
 6290TIP3   OH218833   4.058   2.460   5.643
 6290TIP3    H118834   4.145   2.462   5.603
 6290TIP3    H218835   4.065   2.397   5.714
 6291TIP3   OH218836   5.246   3.992   4.576
 6291TIP3    H118837   5.152   4.003   4.565
 6291TIP3    H218838   5.279   3.977   4.487
 6292TIP3   OH218839   5.940   3.585   3.040
 6292TIP3    H118840   5.866   3.525   3.033
 6292TIP3    H218841   6.012   3.531   3.072
 6293TIP3   OH218842   0.979   0.718   0.271
 6293TIP3    H118843   0.995   0.776   0.345
 6293TIP3    H218844   1.022   0.761   0.196
 6294TIP3   OH218845   1.561   5.863   4.713
 6294TIP3    H118846   1.482   5.876   4.660
 6294TIP3    H218847   1.618   5.809   4.659
 6295TIP3   OH218848   0.439   3.106   5.311
 6295TIP3    H118849   0.483   3.153   5.239
 6295TIP3    H218850   0.366   3.162   5.335
 6296TIP3   OH218851   4.742   0.604   5.238
 6296TIP3    H118852   4.718   0.530   5.293
 6296TIP3    H218853   4.714   0.681   5.288
 6297TIP3   OH218854   6.721   4.339   1.150
 6297TIP3    H118855   6.710   4.361   1.243
 6297TIP3    H218856   6.736   4.245   1.150
 6298TIP3   OH218857   6.066   3.812   2.910
 6298TIP3    H118858   6.045   3.720   2.926
 6298TIP3    H218859   6.007   3.861   2.968
 6299TIP3   OH218860   6.640   1.768   1.231
 6299TIP3    H118861   6.650   1.686   1.280
 6299TIP3    H218862   6.666   1.746   1.141
 6300TIP3   OH218863   2.045   0.560   3.014
 6300TIP3    H118864   2.095   0.540   3.093
 6300TIP3    H218865   1.956   0.530   3.033
 6301TIP3   OH218866   5.910   6.720   2.909
 6301TIP3    H118867   5.898   6.788   2.974
 6301TIP3    H218868   6.004   6.704   2.907
 6302TIP3   OH218869   5.409   6.608   4.889
 6302TIP3    H118870   5.414   6.514   4.871
 6302TIP3    H218871   5.492   6.628   4.933
 6303TIP3   OH218872   1.462   0.008   1.392
 6303TIP3    H118873   1.483   0.032   1.302
 6303TIP3    H218874   1.544   0.021   1.440
 6304TIP3   OH218875   2.679   0.605   4.533
 6304TIP3    H118876   2.741   0.581   4.463
 6304TIP3    H218877   2.595   0.571   4.502
 6305TIP3   OH218878   1.205   0.756   5.329
 6305TIP3    H118879   1.215   0.850   5.343
 6305TIP3    H218880   1.281   0.717   5.374
 6306TIP3   OH218881   3.685   0.874   1.871
 6306TIP3    H118882   3.753   0.911   1.815
 6306TIP3    H218883   3.697   0.779   1.865
 6307TIP3   OH218884   2.606   5.551   2.664
 6307TIP3    H118885   2.564   5.616   2.720
 6307TIP3    H218886   2.603   5.590   2.576
 6308TIP3   OH218887   3.226   0.090   1.299
 6308TIP3    H118888   3.237   0.163   1.238
 6308TIP3    H218889   3.138   0.101   1.334
 6309TIP3   OH218890   0.724   5.635   4.820
 6309TIP3    H118891   0.694   5.717   4.860
 6309TIP3    H218892   0.750   5.580   4.894
 6310TIP3   OH218893   4.547   1.229   2.395
 6310TIP3    H118894   4.566   1.298   2.332
 6310TIP3    H218895   4.453   1.237   2.412
 6311TIP3   OH218896   4.724   5.499   4.768
 6311TIP3    H118897   4.753   5.409   4.755
 6311TIP3    H218898   4.798   5.552   4.737
 6312TIP3   OH218899   5.832   6.768   5.905
 6312TIP3    H118900   5.898   6.836   5.918
 6312TIP3    H218901   5.796   6.786   5.818
 6313TIP3   OH218902   3.856   2.876   5.072
 6313TIP3    H118903   3.828   2.790   5.104
 6313TIP3    H218904   3.777   2.931   5.079
 6314TIP3   OH218905   1.264   2.717   4.610
 6314TIP3    H118906   1.220   2.649   4.558
 6314TIP3    H218907   1.215   2.797   4.590
 6315TIP3   OH218908   0.484   5.563   2.752
 6315TIP3    H118909   0.534   5.633   2.711
 6315TIP3    H218910   0.441   5.517   2.679
 6316TIP3   OH218911   2.725   2.821   2.612
 6316TIP3    H118912   2.741   2.852   2.523
 6316TIP3    H218913   2.788   2.750   2.624
 6317TIP3   OH218914   3.385   0.614   2.503
 6317TIP3    H118915   3.423   0.698   2.477
 6317TIP3    H218916   3.449   0.549   2.475
 6318TIP3   OH218917   7.073   2.299   3.907
 6318TIP3    H118918   7.030   2.223   3.945
 6318TIP3    H218919   7.163   2.294   3.941
 6319TIP3   OH218920   0.784   4.795   2.742
 6319TIP3    H118921   0.876   4.769   2.734
 6319TIP3    H218922   0.783   4.863   2.809
 6320TIP3   OH218923   3.287   6.450   3.520
 6320TIP3    H118924   3.273   6.544   3.524
 6320TIP3    H218925   3.264   6.426   3.430
 6321TIP3   OH218926   3.668   4.208   3.327
 6321TIP3    H118927   3.733   4.278   3.337
 6321TIP3    H218928   3.597   4.249   3.277
 6322TIP3   OH218929   4.900   1.009   4.495
 6322TIP3    H118930   4.909   0.921   4.458
 6322TIP3    H218931   4.905   0.997   4.589
 6323TIP3   OH218932   1.485   2.889   2.287
 6323TIP3    H118933   1.532   2.940   2.352
 6323TIP3    H218934   1.450   2.814   2.335
 6324TIP3   OH218935   1.176   6.487   1.456
 6324TIP3    H118936   1.226   6.542   1.396
 6324TIP3    H218937   1.228   6.488   1.537
 6325TIP3   OH218938   2.478   1.642   1.303
 6325TIP3    H118939   2.491   1.630   1.209
 6325TIP3    H218940   2.563   1.620   1.341
 6326TIP3   OH218941   2.394   2.004   0.482
 6326TIP3    H118942   2.322   2.062   0.509
 6326TIP3    H218943   2.470   2.061   0.477
 6327TIP3   OH218944   6.891   4.984   4.095
 6327TIP3    H118945   6.828   5.009   4.028
 6327TIP3    H218946   6.938   5.066   4.115
 6328TIP3   OH218947   5.346   4.058   0.705
 6328TIP3    H118948   5.322   3.982   0.651
 6328TIP3    H218949   5.437   4.076   0.681
 6329TIP3   OH218950   1.942   5.676   4.320
 6329TIP3    H118951   1.971   5.719   4.400
 6329TIP3    H218952   1.857   5.716   4.300
 6330TIP3   OH218953   7.017   3.099   4.807
 6330TIP3    H118954   6.962   3.172   4.780
 6330TIP3    H218955   7.004   3.033   4.739
 6331TIP3   OH218956   0.890   0.320   1.019
 6331TIP3    H118957   0.808   0.346   0.977
 6331TIP3    H218958   0.865   0.259   1.088
 6332TIP3   OH218959   3.296   6.075   2.889
 6332TIP3    H118960   3.332   6.151   2.934
 6332TIP3    H218961   3.266   6.109   2.804
 6333TIP3   OH218962   1.978   2.260   5.798
 6333TIP3    H118963   1.940   2.205   5.730
 6333TIP3    H218964   2.054   2.301   5.757
 6334TIP3   OH218965   4.933   2.898   3.115
 6334TIP3    H118966   4.847   2.928   3.143
 6334TIP3    H218967   4.915   2.830   3.049
 6335TIP3   OH218968   1.096   2.869   0.644
 6335TIP3    H118969   1.186   2.899   0.656
 6335TIP3    H218970   1.083   2.804   0.713
 6336TIP3   OH218971   7.185   2.218   0.821
 6336TIP3    H118972   7.227   2.303   0.833
 6336TIP3    H218973   7.143   2.199   0.905
 6337TIP3   OH218974   6.904   1.437   4.999
 6337TIP3    H118975   6.850   1.368   5.037
 6337TIP3    H218976   6.841   1.494   4.955
 6338TIP3   OH218977   2.616   0.666   2.317
 6338TIP3    H118978   2.627   0.755   2.282
 6338TIP3    H218979   2.691   0.618   2.284
 6339TIP3   OH218980   4.934   1.378   4.763
 6339TIP3    H118981   4.877   1.431   4.707
 6339TIP3    H218982   5.012   1.362   4.710
 6340TIP3   OH218983   0.122   1.589   4.593
 6340TIP3    H118984   0.039   1.546   4.571
 6340TIP3    H218985   0.096   1.667   4.642
 6341TIP3   OH218986   4.806   3.007   0.758
 6341TIP3    H118987   4.775   2.994   0.847
 6341TIP3    H218988   4.837   3.098   0.756
 6342TIP3   OH218989   5.578   3.295   4.932
 6342TIP3    H118990   5.516   3.260   4.996
 6342TIP3    H218991   5.651   3.233   4.933
 6343TIP3   OH218992   6.619   1.893   3.237
 6343TIP3    H118993   6.646   1.807   3.206
 6343TIP3    H218994   6.626   1.950   3.160
 6344TIP3   OH218995   6.056   1.873   3.179
 6344TIP3    H118996   6.017   1.808   3.238
 6344TIP3    H218997   5.993   1.945   3.177
 6345TIP3   OH218998   4.037   3.265   0.560
 6345TIP3    H118999   4.039   3.357   0.536
 6345TIP3    H219000   4.124   3.248   0.595
 6346TIP3   OH219001   4.439   3.087   1.696
 6346TIP3    H119002   4.528   3.053   1.703
 6346TIP3    H219003   4.397   3.060   1.778
 6347TIP3   OH219004   5.463   2.553   2.738
 6347TIP3    H119005   5.446   2.481   2.800
 6347TIP3    H219006   5.450   2.514   2.652
 6348TIP3   OH219007   0.444   4.497   5.580
 6348TIP3    H119008   0.391   4.525   5.506
 6348TIP3    H219009   0.380   4.463   5.644
 6349TIP3   OH219010   4.057   0.226   1.677
 6349TIP3    H119011   4.055   0.202   1.585
 6349TIP3    H219012   3.964   0.236   1.701
 6350TIP3   OH219013   5.578   1.262   1.949
 6350TIP3    H119014   5.604   1.305   2.031
 6350TIP3    H219015   5.565   1.334   1.888
 6351TIP3   OH219016   4.980   1.108   0.625
 6351TIP3    H119017   4.915   1.178   0.632
 6351TIP3    H219018   4.941   1.046   0.563
 6352TIP3   OH219019   6.791   0.990   0.894
 6352TIP3    H119020   6.763   1.081   0.903
 6352TIP3    H219021   6.872   0.984   0.945
 6353TIP3   OH219022   2.275   3.658   4.048
 6353TIP3    H119023   2.286   3.565   4.069
 6353TIP3    H219024   2.219   3.692   4.118
 6354TIP3   OH219025   5.788   2.869   1.047
 6354TIP3    H119026   5.698   2.838   1.054
 6354TIP3    H219027   5.784   2.961   1.070
 6355TIP3   OH219028   4.988   0.374   5.663
 6355TIP3    H119029   4.903   0.388   5.621
 6355TIP3    H219030   5.031   0.460   5.661
 6356TIP3   OH219031   0.048   1.908   4.445
 6356TIP3    H119032  -0.014   1.856   4.394
 6356TIP3    H219033   0.077   1.849   4.515
 6357TIP3   OH219034   4.178   0.745   2.818
 6357TIP3    H119035   4.262   0.713   2.785
 6357TIP3    H219036   4.186   0.740   2.913
 6358TIP3   OH219037   3.076   5.077   2.361
 6358TIP3    H119038   3.084   5.169   2.337
 6358TIP3    H219039   3.165   5.051   2.384
 6359TIP3   OH219040   6.305   0.623   2.361
 6359TIP3    H119041   6.214   0.595   2.367
 6359TIP3    H219042   6.305   0.711   2.398
 6360TIP3   OH219043   5.735   3.428   0.548
 6360TIP3    H119044   5.769   3.339   0.546
 6360TIP3    H219045   5.791   3.477   0.487
 6361TIP3   OH219046   3.780   5.141   4.135
 6361TIP3    H119047   3.732   5.147   4.052
 6361TIP3    H219048   3.802   5.048   4.143
 6362TIP3   OH219049   2.798   4.839   0.087
 6362TIP3    H119050   2.814   4.879   0.001
 6362TIP3    H219051   2.778   4.912   0.145
 6363TIP3   OH219052   4.994   0.215   4.266
 6363TIP3    H119053   5.060   0.181   4.326
 6363TIP3    H219054   5.038   0.219   4.181
 6364TIP3   OH219055   1.068   3.354   0.909
 6364TIP3    H119056   1.000   3.328   0.847
 6364TIP3    H219057   1.066   3.450   0.908
 6365TIP3   OH219058   6.990   3.496   1.837
 6365TIP3    H119059   7.009   3.536   1.922
 6365TIP3    H219060   7.060   3.528   1.780
 6366TIP3   OH219061   0.255   6.272   2.964
 6366TIP3    H119062   0.184   6.315   2.917
 6366TIP3    H219063   0.320   6.252   2.896
 6367TIP3   OH219064   1.078   1.493   0.144
 6367TIP3    H119065   1.134   1.568   0.124
 6367TIP3    H219066   0.993   1.531   0.165
 6368TIP3   OH219067   2.180   3.605   0.138
 6368TIP3    H119068   2.250   3.634   0.078
 6368TIP3    H219069   2.224   3.595   0.222
 6369TIP3   OH219070   0.946   3.354   4.633
 6369TIP3    H119071   0.892   3.343   4.712
 6369TIP3    H219072   0.883   3.366   4.562
 6370TIP3   OH219073   2.233   0.713   4.454
 6370TIP3    H119074   2.248   0.756   4.538
 6370TIP3    H219075   2.278   0.768   4.390
 6371TIP3   OH219076   2.890   4.972   3.043
 6371TIP3    H119077   2.804   4.930   3.045
 6371TIP3    H219078   2.892   5.020   2.960
 6372TIP3   OH219079   1.824   2.722   4.544
 6372TIP3    H119080   1.757   2.695   4.480
 6372TIP3    H219081   1.907   2.707   4.499
 6373TIP3   OH219082   5.272   0.247   0.911
 6373TIP3    H119083   5.187   0.286   0.890
 6373TIP3    H219084   5.335   0.306   0.870
 6374TIP3   OH219085   1.263   1.025   2.544
 6374TIP3    H119086   1.286   1.095   2.605
 6374TIP3    H219087   1.339   1.019   2.485
 6375TIP3   OH219088   3.433   3.927   0.252
 6375TIP3    H119089   3.421   3.834   0.231
 6375TIP3    H219090   3.344   3.962   0.254
 6376TIP3   OH219091   4.305   0.906   0.802
 6376TIP3    H119092   4.363   0.980   0.786
 6376TIP3    H219093   4.225   0.946   0.837
 6377TIP3   OH219094   0.119   5.582   5.787
 6377TIP3    H119095   0.211   5.571   5.762
 6377TIP3    H219096   0.111   5.674   5.809
 6378TIP3   OH219097   6.698   3.902   2.961
 6378TIP3    H119098   6.762   3.888   3.031
 6378TIP3    H219099   6.678   3.815   2.928
 6379TIP3   OH219100   4.849   2.197   0.968
 6379TIP3    H119101   4.918   2.256   0.940
 6379TIP3    H219102   4.894   2.127   1.016
 6380TIP3   OH219103   7.281   1.253   4.014
 6380TIP3    H119104   7.191   1.263   3.983
 6380TIP3    H219105   7.274   1.252   4.109
 6381TIP3   OH219106   5.178   4.967   3.744
 6381TIP3    H119107   5.190   4.873   3.757
 6381TIP3    H219108   5.190   4.980   3.650
 6382TIP3   OH219109   0.569   6.096   2.222
 6382TIP3    H119110   0.545   6.084   2.130
 6382TIP3    H219111   0.488   6.079   2.270
 6383TIP3   OH219112   5.990   3.654   1.657
 6383TIP3    H119113   6.055   3.612   1.601
 6383TIP3    H219114   5.962   3.585   1.718
 6384TIP3   OH219115   3.559   5.258   4.601
 6384TIP3    H119116   3.565   5.242   4.695
 6384TIP3    H219117   3.646   5.236   4.567
 6385TIP3   OH219118   5.690   2.047   4.016
 6385TIP3    H119119   5.605   2.073   3.980
 6385TIP3    H219120   5.729   1.992   3.948
 6386TIP3   OH219121   0.205   2.924   1.878
 6386TIP3    H119122   0.109   2.919   1.872
 6386TIP3    H219123   0.227   3.006   1.833
 6387TIP3   OH219124   4.111   5.637   1.578
 6387TIP3    H119125   4.143   5.703   1.640
 6387TIP3    H219126   4.058   5.686   1.516
 6388TIP3   OH219127   5.153   6.294   5.143
 6388TIP3    H119128   5.096   6.249   5.205
 6388TIP3    H219129   5.095   6.319   5.070
 6389TIP3   OH219130   4.600   3.220   4.231
 6389TIP3    H119131   4.551   3.239   4.151
 6389TIP3    H219132   4.538   3.237   4.302
 6390TIP3   OH219133   7.101   2.230   5.348
 6390TIP3    H119134   7.031   2.221   5.284
 6390TIP3    H219135   7.092   2.154   5.405
 6391TIP3   OH219136   1.699   1.720   3.300
 6391TIP3    H119137   1.756   1.795   3.318
 6391TIP3    H219138   1.753   1.643   3.316
 6392TIP3   OH219139   0.021   2.936   0.900
 6392TIP3    H119140   0.045   2.880   0.975
 6392TIP3    H219141   0.062   3.020   0.920
 6393TIP3   OH219142   7.025   4.149   2.255
 6393TIP3    H119143   7.100   4.142   2.314
 6393TIP3    H219144   7.036   4.076   2.194
 6394TIP3   OH219145   0.638   4.208   0.526
 6394TIP3    H119146   0.644   4.213   0.430
 6394TIP3    H219147   0.693   4.133   0.549
 6395TIP3   OH219148   1.034   4.342   3.376
 6395TIP3    H119149   1.070   4.363   3.462
 6395TIP3    H219150   0.946   4.378   3.377
 6396TIP3   OH219151   6.748   0.506   1.586
 6396TIP3    H119152   6.661   0.511   1.547
 6396TIP3    H219153   6.732   0.499   1.680
 6397TIP3   OH219154   3.610   5.552   3.849
 6397TIP3    H119155   3.519   5.569   3.827
 6397TIP3    H219156   3.625   5.604   3.928
 6398TIP3   OH219157   1.350   2.434   3.520
 6398TIP3    H119158   1.308   2.441   3.606
 6398TIP3    H219159   1.289   2.478   3.460
 6399TIP3   OH219160   6.621   1.529   1.355
 6399TIP3    H119161   6.646   1.455   1.300
 6399TIP3    H219162   6.660   1.510   1.440
 6400TIP3   OH219163   5.335   3.737   0.981
 6400TIP3    H119164   5.328   3.657   1.033
 6400TIP3    H219165   5.429   3.746   0.964
 6401TIP3   OH219166   0.367   3.767   3.142
 6401TIP3    H119167   0.433   3.711   3.100
 6401TIP3    H219168   0.418   3.836   3.183
 6402TIP3   OH219169   6.485   5.074   4.975
 6402TIP3    H119170   6.516   5.136   5.041
 6402TIP3    H219171   6.466   4.994   5.024
 6403TIP3   OH219172   6.863   3.361   4.372
 6403TIP3    H119173   6.799   3.339   4.440
 6403TIP3    H219174   6.875   3.455   4.380
 6404TIP3   OH219175   6.592   2.665   0.974
 6404TIP3    H119176   6.630   2.597   1.028
 6404TIP3    H219177   6.662   2.689   0.913
 6405TIP3   OH219178   1.073   0.434   1.775
 6405TIP3    H119179   1.057   0.524   1.748
 6405TIP3    H219180   1.088   0.386   1.694
 6406TIP3   OH219181   3.994   1.530   0.070
 6406TIP3    H119182   3.939   1.586   0.015
 6406TIP3    H219183   4.064   1.588   0.100
 6407TIP3   OH219184   5.029   5.968   1.970
 6407TIP3    H119185   4.956   6.011   2.015
 6407TIP3    H219186   4.988   5.924   1.896
 6408TIP3   OH219187   2.513   1.036   2.551
 6408TIP3    H119188   2.472   0.957   2.518
 6408TIP3    H219189   2.442   1.085   2.593
 6409TIP3   OH219190   3.689   2.012   4.052
 6409TIP3    H119191   3.618   1.963   4.093
 6409TIP3    H219192   3.645   2.087   4.011
 6410TIP3   OH219193   3.218   2.214   4.825
 6410TIP3    H119194   3.264   2.208   4.741
 6410TIP3    H219195   3.209   2.307   4.842
 6411TIP3   OH219196   1.429   6.163   1.400
 6411TIP3    H119197   1.461   6.091   1.346
 6411TIP3    H219198   1.386   6.222   1.338
 6412TIP3   OH219199   2.269   5.413   2.770
 6412TIP3    H119200   2.248   5.464   2.692
 6412TIP3    H219201   2.341   5.462   2.811
 6413TIP3   OH219202   6.453   6.707   3.118
 6413TIP3    H119203   6.422   6.617   3.106
 6413TIP3    H219204   6.392   6.760   3.066
 6414TIP3   OH219205   5.764   2.117   0.605
 6414TIP3    H119206   5.762   2.033   0.559
 6414TIP3    H219207   5.750   2.183   0.537
 6415TIP3   OH219208   0.131   5.617   2.588
 6415TIP3    H119209   0.107   5.542   2.533
 6415TIP3    H219210   0.223   5.602   2.610
 6416TIP3   OH219211   5.211   5.812   2.318
 6416TIP3    H119212   5.142   5.800   2.383
 6416TIP3    H219213   5.286   5.764   2.354
 6417TIP3   OH219214   4.815   0.070   4.903
 6417TIP3    H119215   4.872   0.094   4.976
 6417TIP3    H219216   4.845   0.124   4.830
 6418TIP3   OH219217   1.222   6.425   2.116
 6418TIP3    H119218   1.159   6.398   2.183
 6418TIP3    H219219   1.208   6.365   2.043
 6419TIP3   OH219220   4.582   5.969   2.668
 6419TIP3    H119221   4.519   6.037   2.641
 6419TIP3    H219222   4.553   5.942   2.755
 6420TIP3   OH219223   1.097   4.844   0.485
 6420TIP3    H119224   1.047   4.879   0.559
 6420TIP3    H219225   1.036   4.845   0.411
 6421TIP3   OH219226   1.105   0.428   5.272
 6421TIP3    H119227   1.030   0.453   5.220
 6421TIP3    H219228   1.166   0.501   5.264
 6422TIP3   OH219229   5.018   0.974   5.225
 6422TIP3    H119230   5.069   0.893   5.233
 6422TIP3    H219231   5.002   1.001   5.316
 6423TIP3   OH219232   2.928   0.936   4.325
 6423TIP3    H119233   2.978   0.976   4.254
 6423TIP3    H219234   2.995   0.906   4.387
 6424TIP3   OH219235   6.897   5.511   2.270
 6424TIP3    H119236   6.835   5.583   2.282
 6424TIP3    H219237   6.873   5.473   2.185
 6425TIP3   OH219238   0.281   4.977   0.975
 6425TIP3    H119239   0.231   4.923   1.035
 6425TIP3    H219240   0.336   4.916   0.927
 6426TIP3   OH219241   6.544   6.299   4.303
 6426TIP3    H119242   6.564   6.381   4.349
 6426TIP3    H219243   6.479   6.256   4.357
 6427TIP3   OH219244   5.342   5.808   3.423
 6427TIP3    H119245   5.302   5.889   3.454
 6427TIP3    H219246   5.376   5.766   3.502
 6428TIP3   OH219247   6.595   6.333   5.044
 6428TIP3    H119248   6.579   6.344   5.137
 6428TIP3    H219249   6.688   6.353   5.033
 6429TIP3   OH219250   1.168   5.064   3.180
 6429TIP3    H119251   1.191   5.071   3.088
 6429TIP3    H219252   1.120   4.981   3.187
 6430TIP3   OH219253   5.390   2.873   2.245
 6430TIP3    H119254   5.362   2.895   2.156
 6430TIP3    H219255   5.339   2.796   2.268
 6431TIP3   OH219256   5.546   5.446   5.861
 6431TIP3    H119257   5.547   5.522   5.803
 6431TIP3    H219258   5.477   5.465   5.925
 6432TIP3   OH219259   1.271   2.758   0.339
 6432TIP3    H119260   1.304   2.827   0.282
 6432TIP3    H219261   1.178   2.776   0.346
 6433TIP3   OH219262   1.281   2.955   0.818
 6433TIP3    H119263   1.234   3.005   0.885
 6433TIP3    H219264   1.293   2.868   0.858
 6434TIP3   OH219265   2.322   6.021   5.225
 6434TIP3    H119266   2.258   6.041   5.294
 6434TIP3    H219267   2.406   6.019   5.271
 6435TIP3   OH219268   4.018   6.007   0.343
 6435TIP3    H119269   4.027   6.031   0.251
 6435TIP3    H219270   3.932   5.965   0.349
 6436TIP3   OH219271   1.618   0.146   4.374
 6436TIP3    H119272   1.658   0.153   4.287
 6436TIP3    H219273   1.599   0.053   4.386
 6437TIP3   OH219274   4.452   2.606   4.818
 6437TIP3    H119275   4.520   2.649   4.766
 6437TIP3    H219276   4.388   2.576   4.754
 6438TIP3   OH219277   1.223   6.645   3.047
 6438TIP3    H119278   1.171   6.718   3.080
 6438TIP3    H219279   1.271   6.613   3.124
 6439TIP3   OH219280   6.194   0.778   4.542
 6439TIP3    H119281   6.101   0.784   4.561
 6439TIP3    H219282   6.237   0.816   4.619
 6440TIP3   OH219283   1.836   0.286   1.925
 6440TIP3    H119284   1.927   0.300   1.952
 6440TIP3    H219285   1.813   0.364   1.875
 6441TIP3   OH219286   3.823   5.227   1.951
 6441TIP3    H119287   3.771   5.307   1.952
 6441TIP3    H219288   3.856   5.222   1.862
 6442TIP3   OH219289   2.885   2.238   5.818
 6442TIP3    H119290   2.941   2.162   5.830
 6442TIP3    H219291   2.944   2.313   5.826
 6443TIP3   OH219292   3.640   0.594   1.863
 6443TIP3    H119293   3.625   0.522   1.925
 6443TIP3    H219294   3.579   0.578   1.792
 6444TIP3   OH219295   3.419   2.175   4.253
 6444TIP3    H119296   3.442   2.173   4.160
 6444TIP3    H219297   3.348   2.110   4.262
 6445TIP3   OH219298   5.185   3.158   2.107
 6445TIP3    H119299   5.168   3.168   2.201
 6445TIP3    H219300   5.219   3.243   2.080
 6446TIP3   OH219301   5.286   5.880   1.021
 6446TIP3    H119302   5.374   5.845   1.035
 6446TIP3    H219303   5.293   5.927   0.938
 6447TIP3   OH219304   6.578   4.138   3.396
 6447TIP3    H119305   6.572   4.101   3.308
 6447TIP3    H219306   6.547   4.067   3.454
 6448TIP3   OH219307   0.190   2.924   5.527
 6448TIP3    H119308   0.140   2.999   5.557
 6448TIP3    H219309   0.277   2.936   5.563
 6449TIP3   OH219310   1.205   3.058   4.882
 6449TIP3    H119311   1.226   3.130   4.823
 6449TIP3    H219312   1.265   2.988   4.857
 6450TIP3   OH219313   4.889   3.587   3.061
 6450TIP3    H119314   4.915   3.674   3.093
 6450TIP3    H219315   4.854   3.543   3.138
 6451TIP3   OH219316   4.767   2.440   4.273
 6451TIP3    H119317   4.848   2.490   4.281
 6451TIP3    H219318   4.778   2.366   4.333
 6452TIP3   OH219319   0.643   1.788   0.713
 6452TIP3    H119320   0.637   1.857   0.647
 6452TIP3    H219321   0.563   1.738   0.703
 6453TIP3   OH219322   4.651   4.174   5.596
 6453TIP3    H119323   4.710   4.201   5.667
 6453TIP3    H219324   4.710   4.142   5.528
 6454TIP3   OH219325   1.132   5.937   0.526
 6454TIP3    H119326   1.043   5.907   0.507
 6454TIP3    H219327   1.139   6.020   0.479
 6455TIP3   OH219328   3.074   3.006   1.694
 6455TIP3    H119329   3.119   2.966   1.620
 6455TIP3    H219330   2.999   3.051   1.654
 6456TIP3   OH219331   1.879   6.708   1.335
 6456TIP3    H119332   1.817   6.653   1.382
 6456TIP3    H219333   1.862   6.797   1.366
 6457TIP3   OH219334   3.215   5.251   0.206
 6457TIP3    H119335   3.129   5.278   0.237
 6457TIP3    H219336   3.206   5.243   0.111
 6458TIP3   OH219337   4.958   3.469   1.050
 6458TIP3    H119338   4.867   3.494   1.067
 6458TIP3    H219339   5.006   3.500   1.127
 6459TIP3   OH219340   3.444   2.443   1.371
 6459TIP3    H119341   3.506   2.506   1.334
 6459TIP3    H219342   3.495   2.396   1.437
 6460TIP3   OH219343   6.781   6.417   0.326
 6460TIP3    H119344   6.773   6.373   0.410
 6460TIP3    H219345   6.697   6.401   0.282
 6461TIP3   OH219346   6.150  -0.024   3.710
 6461TIP3    H119347   6.230  -0.033   3.762
 6461TIP3    H219348   6.173   0.041   3.643
 6462TIP3   OH219349   2.656   3.882   1.799
 6462TIP3    H119350   2.573   3.840   1.822
 6462TIP3    H219351   2.683   3.927   1.879
 6463TIP3   OH219352   2.090   3.413   0.783
 6463TIP3    H119353   2.157   3.361   0.738
 6463TIP3    H219354   2.022   3.427   0.716
 6464TIP3   OH219355   4.181   3.349   1.880
 6464TIP3    H119356   4.091   3.324   1.899
 6464TIP3    H219357   4.209   3.399   1.957
 6465TIP3   OH219358   1.460   6.792   1.817
 6465TIP3    H119359   1.521   6.743   1.761
 6465TIP3    H219360   1.404   6.725   1.856
 6466TIP3   OH219361   3.768   4.595   4.435
 6466TIP3    H119362   3.789   4.688   4.443
 6466TIP3    H219363   3.842   4.550   4.477
 6467TIP3   OH219364   1.529   5.511   3.120
 6467TIP3    H119365   1.583   5.568   3.067
 6467TIP3    H219366   1.590   5.471   3.183
 6468TIP3   OH219367   6.261   2.234   3.900
 6468TIP3    H119368   6.349   2.270   3.903
 6468TIP3    H219369   6.226   2.261   3.815
 6469TIP3   OH219370   4.749   0.422   2.404
 6469TIP3    H119371   4.745   0.499   2.348
 6469TIP3    H219372   4.838   0.388   2.392
 6470TIP3   OH219373   4.033   5.468   0.788
 6470TIP3    H119374   4.068   5.529   0.853
 6470TIP3    H219375   3.961   5.424   0.833
 6471TIP3   OH219376   3.954   0.388   0.207
 6471TIP3    H119377   4.011   0.318   0.173
 6471TIP3    H219378   4.000   0.421   0.284
 6472TIP3   OH219379   4.888   5.831   3.189
 6472TIP3    H119380   4.843   5.891   3.250
 6472TIP3    H219381   4.915   5.887   3.117
 6473TIP3   OH219382   1.227   3.660   2.817
 6473TIP3    H119383   1.265   3.723   2.878
 6473TIP3    H219384   1.133   3.678   2.820
 6474TIP3   OH219385   5.419   3.373   0.522
 6474TIP3    H119386   5.434   3.295   0.469
 6474TIP3    H219387   5.502   3.389   0.566
 6475TIP3   OH219388   6.841   2.789   1.782
 6475TIP3    H119389   6.763   2.842   1.800
 6475TIP3    H219390   6.836   2.717   1.844
 6476TIP3   OH219391   7.146   0.168   0.683
 6476TIP3    H119392   7.208   0.235   0.656
 6476TIP3    H219393   7.192   0.086   0.668
 6477TIP3   OH219394   1.116   2.992   3.994
 6477TIP3    H119395   1.031   2.953   4.014
 6477TIP3    H219396   1.172   2.966   4.067
 6478TIP3   OH219397   3.867   6.797   0.637
 6478TIP3    H119398   3.962   6.801   0.636
 6478TIP3    H219399   3.842   6.772   0.548
 6479TIP3   OH219400   6.841   4.694   2.999
 6479TIP3    H119401   6.749   4.681   2.975
 6479TIP3    H219402   6.877   4.747   2.928
 6480TIP3   OH219403   1.271   1.346   4.671
 6480TIP3    H119404   1.349   1.372   4.720
 6480TIP3    H219405   1.259   1.416   4.607
 6481TIP3   OH219406   1.475   1.066   2.376
 6481TIP3    H119407   1.469   1.006   2.302
 6481TIP3    H219408   1.511   1.146   2.339
 6482TIP3   OH219409   2.074   3.904   4.559
 6482TIP3    H119410   2.120   3.973   4.606
 6482TIP3    H219411   1.991   3.943   4.533
 6483TIP3   OH219412   2.294   1.582   1.508
 6483TIP3    H119413   2.268   1.504   1.458
 6483TIP3    H219414   2.366   1.620   1.457
 6484TIP3   OH219415   5.505   0.696   2.285
 6484TIP3    H119416   5.430   0.740   2.245
 6484TIP3    H219417   5.533   0.755   2.355
 6485TIP3   OH219418   4.121   5.216   1.993
 6485TIP3    H119419   4.157   5.270   2.063
 6485TIP3    H219420   4.144   5.262   1.912
 6486TIP3   OH219421   5.571   1.501   1.812
 6486TIP3    H119422   5.593   1.580   1.762
 6486TIP3    H219423   5.525   1.534   1.889
 6487TIP3   OH219424   4.661   1.831   2.360
 6487TIP3    H119425   4.736   1.871   2.315
 6487TIP3    H219426   4.695   1.808   2.447
 6488TIP3   OH219427   1.182   3.361   5.707
 6488TIP3    H119428   1.176   3.398   5.795
 6488TIP3    H219429   1.229   3.278   5.719
 6489TIP3   OH219430   0.371   1.601   2.918
 6489TIP3    H119431   0.325   1.593   2.834
 6489TIP3    H219432   0.463   1.607   2.895
 6490TIP3   OH219433   1.742   4.979   1.328
 6490TIP3    H119434   1.816   5.040   1.338
 6490TIP3    H219435   1.671   5.020   1.377
 6491TIP3   OH219436   3.169   0.411   4.258
 6491TIP3    H119437   3.132   0.480   4.313
 6491TIP3    H219438   3.191   0.341   4.320
 6492TIP3   OH219439   6.109   0.652   0.859
 6492TIP3    H119440   6.097   0.564   0.823
 6492TIP3    H219441   6.059   0.651   0.941
 6493TIP3   OH219442   4.670   3.039   5.181
 6493TIP3    H119443   4.600   2.998   5.233
 6493TIP3    H219444   4.742   2.976   5.183
 6494TIP3   OH219445   6.117   3.410   2.470
 6494TIP3    H119446   6.198   3.433   2.516
 6494TIP3    H219447   6.143   3.408   2.377
 6495TIP3   OH219448   5.494   5.607   3.911
 6495TIP3    H119449   5.449   5.522   3.904
 6495TIP3    H219450   5.567   5.601   3.850
 6496TIP3   OH219451   5.127   4.388   4.546
 6496TIP3    H119452   5.077   4.351   4.473
 6496TIP3    H219453   5.214   4.350   4.537
 6497TIP3   OH219454   3.288   3.034   3.407
 6497TIP3    H119455   3.271   3.077   3.491
 6497TIP3    H219456   3.354   2.968   3.427
 6498TIP3   OH219457   4.613   2.360   2.802
 6498TIP3    H119458   4.572   2.364   2.716
 6498TIP3    H219459   4.691   2.414   2.795
 6499TIP3   OH219460   4.324   5.812   1.391
 6499TIP3    H119461   4.252   5.845   1.338
 6499TIP3    H219462   4.394   5.793   1.328
 6500TIP3   OH219463   4.947   3.829   5.580
 6500TIP3    H119464   4.940   3.901   5.518
 6500TIP3    H219465   5.002   3.863   5.651
 6501TIP3   OH219466   2.224   2.257   3.144
 6501TIP3    H119467   2.222   2.163   3.160
 6501TIP3    H219468   2.229   2.265   3.049
 6502TIP3   OH219469   3.452   4.665   1.426
 6502TIP3    H119470   3.378   4.704   1.472
 6502TIP3    H219471   3.491   4.604   1.489
 6503TIP3   OH219472   1.158   4.030   4.364
 6503TIP3    H119473   1.095   4.091   4.326
 6503TIP3    H219474   1.136   4.027   4.457
 6504TIP3   OH219475   5.166   2.025   5.207
 6504TIP3    H119476   5.094   1.964   5.193
 6504TIP3    H219477   5.181   2.023   5.301
 6505TIP3   OH219478   4.044   3.693   3.626
 6505TIP3    H119479   4.135   3.666   3.627
 6505TIP3    H219480   3.995   3.616   3.654
 6506TIP3   OH219481   4.034   2.128   0.539
 6506TIP3    H119482   4.117   2.116   0.494
 6506TIP3    H219483   4.018   2.222   0.536
 6507TIP3   OH219484   6.094   0.231   1.721
 6507TIP3    H119485   6.099   0.278   1.804
 6507TIP3    H219486   6.123   0.294   1.655
 6508TIP3   OH219487   6.160   4.030   4.735
 6508TIP3    H119488   6.232   4.011   4.676
 6508TIP3    H219489   6.125   3.944   4.759
 6509TIP3   OH219490   3.023   5.942   4.435
 6509TIP3    H119491   3.037   5.990   4.516
 6509TIP3    H219492   3.108   5.945   4.391
 6510TIP3   OH219493   6.632   6.331   0.595
 6510TIP3    H119494   6.565   6.351   0.660
 6510TIP3    H219495   6.694   6.403   0.602
 6511TIP3   OH219496   1.842   4.528   2.415
 6511TIP3    H119497   1.757   4.525   2.370
 6511TIP3    H219498   1.877   4.615   2.392
 6512TIP3   OH219499   6.332   1.804   5.421
 6512TIP3    H119500   6.243   1.768   5.417
 6512TIP3    H219501   6.352   1.808   5.515
 6513TIP3   OH219502   2.072   1.789   4.909
 6513TIP3    H119503   2.148   1.838   4.939
 6513TIP3    H219504   2.099   1.697   4.912
 6514TIP3   OH219505   4.553   5.924   0.667
 6514TIP3    H119506   4.613   5.891   0.600
 6514TIP3    H219507   4.538   6.016   0.643
 6515TIP3   OH219508   2.153   4.249   2.767
 6515TIP3    H119509   2.193   4.162   2.758
 6515TIP3    H219510   2.224   4.310   2.747
 6516TIP3   OH219511   1.146   2.286   1.433
 6516TIP3    H119512   1.088   2.225   1.479
 6516TIP3    H219513   1.232   2.274   1.474
 6517TIP3   OH219514   2.094   4.981   5.577
 6517TIP3    H119515   2.079   4.900   5.528
 6517TIP3    H219516   2.186   5.001   5.564
 6518TIP3   OH219517   0.418   2.542   2.729
 6518TIP3    H119518   0.436   2.629   2.765
 6518TIP3    H219519   0.354   2.504   2.789
 6519TIP3   OH219520   5.518   1.361   1.576
 6519TIP3    H119521   5.522   1.412   1.657
 6519TIP3    H219522   5.538   1.272   1.603
 6520TIP3   OH219523   2.414   6.112   2.416
 6520TIP3    H119524   2.389   6.197   2.379
 6520TIP3    H219525   2.445   6.133   2.504
 6521TIP3   OH219526   2.288   1.991   5.866
 6521TIP3    H119527   2.252   1.997   5.954
 6521TIP3    H219528   2.314   2.081   5.845
 6522TIP3   OH219529   3.714   2.666   3.171
 6522TIP3    H119530   3.778   2.695   3.107
 6522TIP3    H219531   3.667   2.745   3.197
 6523TIP3   OH219532   0.720   2.941   0.723
 6523TIP3    H119533   0.670   3.023   0.725
 6523TIP3    H219534   0.786   2.952   0.792
 6524TIP3   OH219535   3.742   4.122   3.581
 6524TIP3    H119536   3.737   4.135   3.487
 6524TIP3    H219537   3.654   4.144   3.613
 6525TIP3   OH219538   1.225   2.327   3.840
 6525TIP3    H119539   1.176   2.335   3.758
 6525TIP3    H219540   1.254   2.416   3.859
 6526TIP3   OH219541   4.660   0.664   1.256
 6526TIP3    H119542   4.693   0.576   1.237
 6526TIP3    H219543   4.609   0.653   1.337
 6527TIP3   OH219544   4.268   3.950   3.230
 6527TIP3    H119545   4.362   3.931   3.235
 6527TIP3    H219546   4.226   3.864   3.226
 6528TIP3   OH219547   4.021   5.170   0.484
 6528TIP3    H119548   4.091   5.135   0.539
 6528TIP3    H219549   3.947   5.181   0.544
 6529TIP3   OH219550   1.571   2.262   3.452
 6529TIP3    H119551   1.481   2.294   3.458
 6529TIP3    H219552   1.625   2.341   3.456
 6530TIP3   OH219553   4.542   3.111   4.961
 6530TIP3    H119554   4.533   3.201   4.992
 6530TIP3    H219555   4.573   3.062   5.037
 6531TIP3   OH219556   3.587   0.108   4.117
 6531TIP3    H119557   3.622   0.104   4.028
 6531TIP3    H219558   3.545   0.023   4.130
 6532TIP3   OH219559   0.943   5.584   0.958
 6532TIP3    H119560   0.957   5.678   0.967
 6532TIP3    H219561   0.848   5.575   0.947
 6533TIP3   OH219562   6.175   5.659   0.105
 6533TIP3    H119563   6.121   5.736   0.087
 6533TIP3    H219564   6.116   5.598   0.150
 6534TIP3   OH219565   0.965   6.658   0.598
 6534TIP3    H119566   1.051   6.616   0.600
 6534TIP3    H219567   0.964   6.714   0.676
 6535TIP3   OH219568   4.273   3.811   5.377
 6535TIP3    H119569   4.196   3.867   5.373
 6535TIP3    H219570   4.253   3.748   5.446
 6536TIP3   OH219571   4.368   2.300   1.783
 6536TIP3    H119572   4.374   2.205   1.797
 6536TIP3    H219573   4.426   2.317   1.708
 6537TIP3   OH219574   4.914   3.565   5.283
 6537TIP3    H119575   4.856   3.495   5.311
 6537TIP3    H219576   4.978   3.521   5.227
 6538TIP3   OH219577   0.161   2.243   5.248
 6538TIP3    H119578   0.070   2.226   5.270
 6538TIP3    H219579   0.157   2.305   5.174
 6539TIP3   OH219580   1.551   5.570   2.446
 6539TIP3    H119581   1.530   5.527   2.363
 6539TIP3    H219582   1.504   5.653   2.444
 6540TIP3   OH219583   4.898   3.267   2.775
 6540TIP3    H119584   4.939   3.345   2.811
 6540TIP3    H219585   4.806   3.275   2.797
 6541TIP3   OH219586   5.755   1.287   2.156
 6541TIP3    H119587   5.728   1.217   2.215
 6541TIP3    H219588   5.834   1.253   2.113
 6542TIP3   OH219589   6.177   4.201   0.096
 6542TIP3    H119590   6.144   4.211   0.185
 6542TIP3    H219591   6.268   4.174   0.107
 6543TIP3   OH219592   0.869   2.917   2.528
 6543TIP3    H119593   0.917   2.885   2.451
 6543TIP3    H219594   0.784   2.873   2.523
 6544TIP3   OH219595   0.882   3.355   2.602
 6544TIP3    H119596   0.948   3.291   2.575
 6544TIP3    H219597   0.926   3.409   2.668
 6545TIP3   OH219598   7.098   2.629   0.227
 6545TIP3    H119599   7.149   2.594   0.300
 6545TIP3    H219600   7.151   2.611   0.149
 6546TIP3   OH219601   0.010   3.883   4.435
 6546TIP3    H119602   0.035   3.875   4.527
 6546TIP3    H219603   0.063   3.955   4.402
 6547TIP3   OH219604   5.979   6.774   4.917
 6547TIP3    H119605   6.065   6.779   4.876
 6547TIP3    H219606   5.936   6.699   4.875
 6548TIP3   OH219607   0.390   4.103   5.854
 6548TIP3    H119608   0.456   4.097   5.785
 6548TIP3    H219609   0.339   4.022   5.846
 6549TIP3   OH219610   2.212   2.504   5.458
 6549TIP3    H119611   2.196   2.474   5.548
 6549TIP3    H219612   2.233   2.424   5.410
 6550TIP3   OH219613   3.217   3.957   0.064
 6550TIP3    H119614   3.218   4.014  -0.012
 6550TIP3    H219615   3.162   4.002   0.128
 6551TIP3   OH219616   6.034   2.056   0.269
 6551TIP3    H119617   6.046   1.977   0.322
 6551TIP3    H219618   6.098   2.118   0.305
 6552TIP3   OH219619   2.002   0.767   2.827
 6552TIP3    H119620   2.012   0.715   2.747
 6552TIP3    H219621   2.027   0.707   2.898
 6553TIP3   OH219622   2.523   4.999   0.721
 6553TIP3    H119623   2.438   5.042   0.707
 6553TIP3    H219624   2.501   4.912   0.753
 6554TIP3   OH219625   6.773   4.420   3.843
 6554TIP3    H119626   6.840   4.392   3.781
 6554TIP3    H219627   6.800   4.381   3.926
 6555TIP3   OH219628   1.264   5.807   3.109
 6555TIP3    H119629   1.332   5.835   3.048
 6555TIP3    H219630   1.182   5.823   3.062
 6556TIP3   OH219631   1.534   5.578   1.975
 6556TIP3    H119632   1.538   5.669   1.946
 6556TIP3    H219633   1.611   5.568   2.031
 6557TIP3   OH219634   2.197   3.026   3.137
 6557TIP3    H119635   2.286   3.004   3.165
 6557TIP3    H219636   2.188   2.985   3.051
 6558TIP3   OH219637   7.178   0.579   2.920
 6558TIP3    H119638   7.177   0.639   2.995
 6558TIP3    H219639   7.271   0.559   2.907
 6559TIP3   OH219640   0.766   2.070   1.090
 6559TIP3    H119641   0.770   1.982   1.129
 6559TIP3    H219642   0.831   2.120   1.139
 6560TIP3   OH219643   0.792   1.074   0.701
 6560TIP3    H119644   0.870   1.055   0.752
 6560TIP3    H219645   0.817   1.149   0.647
 6561TIP3   OH219646   2.776   5.825   0.771
 6561TIP3    H119647   2.750   5.790   0.686
 6561TIP3    H219648   2.844   5.889   0.751
 6562TIP3   OH219649   0.500   4.410   4.292
 6562TIP3    H119650   0.589   4.430   4.323
 6562TIP3    H219651   0.513   4.350   4.219
 6563TIP3   OH219652   4.664   4.702   0.310
 6563TIP3    H119653   4.667   4.625   0.367
 6563TIP3    H219654   4.702   4.773   0.362
 6564TIP3   OH219655   2.913   0.401   2.559
 6564TIP3    H119656   2.895   0.335   2.626
 6564TIP3    H219657   2.981   0.456   2.597
 6565TIP3   OH219658   6.761   6.722   2.361
 6565TIP3    H119659   6.775   6.768   2.278
 6565TIP3    H219660   6.714   6.784   2.416
 6566TIP3   OH219661   3.916   5.955   2.348
 6566TIP3    H119662   3.918   5.929   2.440
 6566TIP3    H219663   3.840   5.908   2.312
 6567TIP3   OH219664   1.879   4.560   3.900
 6567TIP3    H119665   1.872   4.612   3.980
 6567TIP3    H219666   1.957   4.507   3.913
 6568TIP3   OH219667   1.061   1.172   4.650
 6568TIP3    H119668   1.138   1.226   4.664
 6568TIP3    H219669   1.002   1.193   4.722
 6569TIP3   OH219670   2.230   1.501   3.607
 6569TIP3    H119671   2.269   1.422   3.646
 6569TIP3    H219672   2.292   1.528   3.540
 6570TIP3   OH219673   4.343   5.300   4.830
 6570TIP3    H119674   4.408   5.277   4.896
 6570TIP3    H219675   4.381   5.374   4.783
 6571TIP3   OH219676   0.615   4.775   0.554
 6571TIP3    H119677   0.658   4.808   0.474
 6571TIP3    H219678   0.524   4.764   0.529
 6572TIP3   OH219679   5.554   2.724   4.486
 6572TIP3    H119680   5.589   2.809   4.460
 6572TIP3    H219681   5.550   2.729   4.582
 6573TIP3   OH219682   2.567   6.038   3.157
 6573TIP3    H119683   2.509   6.102   3.199
 6573TIP3    H219684   2.634   6.091   3.114
 6574TIP3   OH219685   1.153   3.396   0.610
 6574TIP3    H119686   1.073   3.361   0.648
 6574TIP3    H219687   1.128   3.483   0.577
 6575TIP3   OH219688   5.812   5.194   1.224
 6575TIP3    H119689   5.756   5.194   1.146
 6575TIP3    H219690   5.900   5.177   1.189
 6576TIP3   OH219691   2.654   2.612   4.709
 6576TIP3    H119692   2.577   2.557   4.722
 6576TIP3    H219693   2.694   2.579   4.628
 6577TIP3   OH219694   2.674   2.685   3.662
 6577TIP3    H119695   2.674   2.617   3.729
 6577TIP3    H219696   2.657   2.638   3.580
 6578TIP3   OH219697   2.489   5.400   2.401
 6578TIP3    H119698   2.530   5.486   2.398
 6578TIP3    H219699   2.547   5.348   2.457
 6579TIP3   OH219700   4.603   2.081   2.581
 6579TIP3    H119701   4.635   2.104   2.493
 6579TIP3    H219702   4.533   2.144   2.598
 6580TIP3   OH219703   5.524   3.255   4.670
 6580TIP3    H119704   5.456   3.188   4.684
 6580TIP3    H219705   5.522   3.307   4.750
 6581TIP3   OH219706   5.623   0.310   3.504
 6581TIP3    H119707   5.699   0.296   3.561
 6581TIP3    H219708   5.556   0.252   3.539
 6582TIP3   OH219709   6.873   2.080   4.794
 6582TIP3    H119710   6.940   2.134   4.836
 6582TIP3    H219711   6.901   2.071   4.704
 6583TIP3   OH219712   6.324   5.334   0.647
 6583TIP3    H119713   6.376   5.259   0.619
 6583TIP3    H219714   6.375   5.410   0.623
 6584TIP3   OH219715   7.079   2.667   3.068
 6584TIP3    H119716   7.082   2.760   3.091
 6584TIP3    H219717   7.127   2.624   3.138
 6585TIP3   OH219718   5.631   0.046   3.731
 6585TIP3    H119719   5.683   0.049   3.812
 6585TIP3    H219720   5.557   0.104   3.749
 6586TIP3   OH219721   0.377   1.614   2.156
 6586TIP3    H119722   0.379   1.611   2.252
 6586TIP3    H219723   0.466   1.590   2.130
 6587TIP3   OH219724   0.053   6.497   4.302
 6587TIP3    H119725   0.094   6.427   4.354
 6587TIP3    H219726  -0.005   6.451   4.242
 6588TIP3   OH219727   2.008   3.204   5.076
 6588TIP3    H119728   2.098   3.188   5.106
 6588TIP3    H219729   1.995   3.144   5.003
 6589TIP3   OH219730   2.373   4.530   1.027
 6589TIP3    H119731   2.376   4.579   1.109
 6589TIP3    H219732   2.282   4.503   1.018
 6590TIP3   OH219733   6.108   3.104   3.608
 6590TIP3    H119734   6.070   3.163   3.543
 6590TIP3    H219735   6.196   3.085   3.575
 6591TIP3   OH219736   0.900   5.870   0.727
 6591TIP3    H119737   0.960   5.909   0.790
 6591TIP3    H219738   0.813   5.885   0.764
 6592TIP3   OH219739   4.815   5.832   2.575
 6592TIP3    H119740   4.814   5.836   2.479
 6592TIP3    H219741   4.786   5.919   2.603
 6593TIP3   OH219742   0.328   3.289   2.005
 6593TIP3    H119743   0.252   3.258   2.054
 6593TIP3    H219744   0.363   3.361   2.057
 6594TIP3   OH219745   3.707   0.724   5.072
 6594TIP3    H119746   3.614   0.749   5.071
 6594TIP3    H219747   3.707   0.631   5.094
 6595TIP3   OH219748   4.680   6.570   1.778
 6595TIP3    H119749   4.603   6.627   1.781
 6595TIP3    H219750   4.695   6.546   1.869
 6596TIP3   OH219751   4.086   1.523   5.036
 6596TIP3    H119752   4.143   1.600   5.048
 6596TIP3    H219753   4.007   1.558   4.996
 6597TIP3   OH219754   4.796   1.463   0.321
 6597TIP3    H119755   4.816   1.372   0.344
 6597TIP3    H219756   4.879   1.509   0.329
 6598TIP3   OH219757   2.823   3.597   0.127
 6598TIP3    H119758   2.838   3.539   0.201
 6598TIP3    H219759   2.784   3.676   0.165
 6599TIP3   OH219760   2.610  -0.037   2.080
 6599TIP3    H119761   2.530  -0.032   2.028
 6599TIP3    H219762   2.585  -0.002   2.166
 6600TIP3   OH219763   5.229   5.218   4.978
 6600TIP3    H119764   5.232   5.142   4.920
 6600TIP3    H219765   5.320   5.234   5.002
 6601TIP3   OH219766   3.304   5.708   0.072
 6601TIP3    H119767   3.325   5.801   0.073
 6601TIP3    H219768   3.241   5.697   0.144
 6602TIP3   OH219769   4.655   3.935   1.462
 6602TIP3    H119770   4.640   3.999   1.532
 6602TIP3    H219771   4.725   3.879   1.496
 6603TIP3   OH219772   0.794   5.446   3.829
 6603TIP3    H119773   0.736   5.387   3.781
 6603TIP3    H219774   0.741   5.479   3.901
 6604TIP3   OH219775   6.110   5.274   2.467
 6604TIP3    H119776   6.021   5.302   2.444
 6604TIP3    H219777   6.120   5.301   2.558
 6605TIP3   OH219778   6.898   4.508   2.713
 6605TIP3    H119779   6.816   4.538   2.753
 6605TIP3    H219780   6.929   4.438   2.770
 6606TIP3   OH219781   1.485   4.046   4.494
 6606TIP3    H119782   1.391   4.040   4.511
 6606TIP3    H219783   1.524   4.070   4.578
 6607TIP3   OH219784   6.604   2.039   0.378
 6607TIP3    H119785   6.638   2.100   0.312
 6607TIP3    H219786   6.527   2.000   0.337
 6608TIP3   OH219787   2.533   6.779   4.475
 6608TIP3    H119788   2.599   6.760   4.408
 6608TIP3    H219789   2.473   6.704   4.471
 6609TIP3   OH219790   2.584   1.914   4.515
 6609TIP3    H119791   2.675   1.886   4.504
 6609TIP3    H219792   2.533   1.842   4.479
 6610TIP3   OH219793   2.833   4.259   1.628
 6610TIP3    H119794   2.801   4.337   1.584
 6610TIP3    H219795   2.757   4.225   1.676
 6611TIP3   OH219796   0.102   4.764   5.130
 6611TIP3    H119797   0.175   4.742   5.072
 6611TIP3    H219798   0.127   4.726   5.215
 6612TIP3   OH219799   6.614   0.757   4.675
 6612TIP3    H119800   6.618   0.822   4.606
 6612TIP3    H219801   6.563   0.685   4.638
 6613TIP3   OH219802   3.522   1.760   4.630
 6613TIP3    H119803   3.445   1.703   4.626
 6613TIP3    H219804   3.497   1.837   4.579
 6614TIP3   OH219805   5.367   2.219   3.411
 6614TIP3    H119806   5.275   2.221   3.437
 6614TIP3    H219807   5.407   2.155   3.471
 6615TIP3   OH219808   3.177   6.072   2.330
 6615TIP3    H119809   3.139   6.160   2.319
 6615TIP3    H219810   3.115   6.014   2.287
 6616TIP3   OH219811   4.703   2.036   0.551
 6616TIP3    H119812   4.714   2.020   0.457
 6616TIP3    H219813   4.658   2.121   0.555
 6617TIP3   OH219814   1.508   5.433   1.307
 6617TIP3    H119815   1.511   5.528   1.296
 6617TIP3    H219816   1.599   5.408   1.320
 6618TIP3   OH219817   0.835   2.902   5.250
 6618TIP3    H119818   0.828   2.994   5.226
 6618TIP3    H219819   0.915   2.897   5.303
 6619TIP3   OH219820   4.794   1.733   4.251
 6619TIP3    H119821   4.863   1.737   4.317
 6619TIP3    H219822   4.839   1.711   4.169
 6620TIP3   OH219823   2.899   3.699   1.681
 6620TIP3    H119824   2.838   3.771   1.668
 6620TIP3    H219825   2.891   3.677   1.774
 6621TIP3   OH219826   5.679   5.752   3.511
 6621TIP3    H119827   5.641   5.679   3.461
 6621TIP3    H219828   5.685   5.824   3.449
 6622TIP3   OH219829   4.385   3.083   3.270
 6622TIP3    H119830   4.397   3.100   3.176
 6622TIP3    H219831   4.290   3.085   3.282
 6623TIP3   OH219832   0.151   0.724   5.607
 6623TIP3    H119833   0.118   0.756   5.691
 6623TIP3    H219834   0.074   0.689   5.563
 6624TIP3   OH219835   1.931   1.811   5.346
 6624TIP3    H119836   1.904   1.748   5.279
 6624TIP3    H219837   1.851   1.857   5.369
 6625TIP3   OH219838   2.973   3.413   5.084
 6625TIP3    H119839   2.917   3.369   5.021
 6625TIP3    H219840   3.062   3.387   5.058
 6626TIP3   OH219841   6.418   0.377   0.897
 6626TIP3    H119842   6.509   0.374   0.926
 6626TIP3    H219843   6.386   0.461   0.929
 6627TIP3   OH219844   6.647   4.982   0.436
 6627TIP3    H119845   6.723   4.928   0.457
 6627TIP3    H219846   6.587   4.923   0.391
 6628TIP3   OH219847   4.381   2.705   1.740
 6628TIP3    H119848   4.342   2.771   1.797
 6628TIP3    H219849   4.325   2.628   1.750
 6629TIP3   OH219850   3.994   4.390   5.031
 6629TIP3    H119851   3.960   4.300   5.035
 6629TIP3    H219852   4.059   4.387   4.961
 6630TIP3   OH219853   2.741   6.231   2.455
 6630TIP3    H119854   2.675   6.297   2.477
 6630TIP3    H219855   2.818   6.256   2.506
 6631TIP3   OH219856   6.029   6.004   1.890
 6631TIP3    H119857   5.942   5.966   1.874
 6631TIP3    H219858   6.075   5.936   1.940
 6632TIP3   OH219859   2.206   4.266   3.430
 6632TIP3    H119860   2.280   4.268   3.490
 6632TIP3    H219861   2.170   4.354   3.434
 6633TIP3   OH219862   4.582   4.770   0.938
 6633TIP3    H119863   4.576   4.686   0.984
 6633TIP3    H219864   4.606   4.833   1.006
 6634TIP3   OH219865   5.710   3.851   3.234
 6634TIP3    H119866   5.720   3.836   3.328
 6634TIP3    H219867   5.619   3.828   3.216
 6635TIP3   OH219868   6.767   0.111   0.578
 6635TIP3    H119869   6.796   0.197   0.609
 6635TIP3    H219870   6.817   0.097   0.498
 6636TIP3   OH219871   1.176   0.951   4.541
 6636TIP3    H119872   1.235   0.930   4.613
 6636TIP3    H219873   1.137   1.035   4.565
 6637TIP3   OH219874   6.671   1.065   2.633
 6637TIP3    H119875   6.744   1.122   2.658
 6637TIP3    H219876   6.625   1.114   2.565
 6638TIP3   OH219877   7.022   1.283   0.254
 6638TIP3    H119878   7.106   1.238   0.240
 6638TIP3    H219879   6.964   1.215   0.288
 6639TIP3   OH219880   1.105   0.064   4.162
 6639TIP3    H119881   1.196   0.065   4.192
 6639TIP3    H219882   1.053   0.076   4.242
 6640TIP3   OH219883   4.997   0.161   2.858
 6640TIP3    H119884   5.025   0.109   2.933
 6640TIP3    H219885   4.907   0.133   2.842
 6641TIP3   OH219886   5.284   1.447   0.877
 6641TIP3    H119887   5.306   1.360   0.911
 6641TIP3    H219888   5.283   1.436   0.782
 6642TIP3   OH219889   4.081   0.555   4.289
 6642TIP3    H119890   4.151   0.534   4.350
 6642TIP3    H219891   4.021   0.480   4.294
 6643TIP3   OH219892   6.619   5.312   0.759
 6643TIP3    H119893   6.695   5.262   0.732
 6643TIP3    H219894   6.617   5.388   0.700
 6644TIP3   OH219895   6.549   4.445   3.046
 6644TIP3    H119896   6.568   4.495   3.126
 6644TIP3    H219897   6.611   4.371   3.049
 6645TIP3   OH219898   0.638   5.474   2.426
 6645TIP3    H119899   0.631   5.390   2.381
 6645TIP3    H219900   0.561   5.523   2.398
 6646TIP3   OH219901   5.816   2.915   0.484
 6646TIP3    H119902   5.765   2.875   0.554
 6646TIP3    H219903   5.756   2.919   0.409
 6647TIP3   OH219904   0.268   4.799   5.489
 6647TIP3    H119905   0.204   4.733   5.462
 6647TIP3    H219906   0.352   4.763   5.462
 6648TIP3   OH219907   5.180   2.852   4.611
 6648TIP3    H119908   5.103   2.904   4.634
 6648TIP3    H219909   5.201   2.805   4.692
 6649TIP3   OH219910   2.838   0.287   4.282
 6649TIP3    H119911   2.760   0.238   4.310
 6649TIP3    H219912   2.903   0.219   4.265
 6650TIP3   OH219913   2.484   5.313   5.414
 6650TIP3    H119914   2.461   5.393   5.367
 6650TIP3    H219915   2.423   5.310   5.488
 6651TIP3   OH219916   6.075   3.499   1.164
 6651TIP3    H119917   6.086   3.408   1.192
 6651TIP3    H219918   6.129   3.549   1.224
 6652TIP3   OH219919   3.646   3.997   2.435
 6652TIP3    H119920   3.603   3.963   2.514
 6652TIP3    H219921   3.650   3.921   2.376
 6653TIP3   OH219922  -0.023   1.841   1.407
 6653TIP3    H119923  -0.083   1.832   1.481
 6653TIP3    H219924   0.015   1.928   1.417
 6654TIP3   OH219925   2.837   0.244   3.672
 6654TIP3    H119926   2.779   0.175   3.641
 6654TIP3    H219927   2.854   0.222   3.763
 6655TIP3   OH219928   3.916   6.635   2.929
 6655TIP3    H119929   3.914   6.725   2.963
 6655TIP3    H219930   4.007   6.621   2.903
 6656TIP3   OH219931   1.549   2.050   4.566
 6656TIP3    H119932   1.624   2.050   4.507
 6656TIP3    H219933   1.586   2.044   4.654
 6657TIP3   OH219934   7.024   3.512   3.582
 6657TIP3    H119935   7.094   3.465   3.627
 6657TIP3    H219936   6.943   3.478   3.620
 6658TIP3   OH219937   4.809   0.902   0.415
 6658TIP3    H119938   4.801   0.874   0.506
 6658TIP3    H219939   4.741   0.852   0.368
 6659TIP3   OH219940   5.515   3.307   2.446
 6659TIP3    H119941   5.477   3.219   2.448
 6659TIP3    H219942   5.462   3.358   2.507
 6660TIP3   OH219943   1.530   0.334   2.937
 6660TIP3    H119944   1.514   0.262   2.997
 6660TIP3    H219945   1.443   0.367   2.916
 6661TIP3   OH219946   5.091   1.447   5.021
 6661TIP3    H119947   5.075   1.352   5.020
 6661TIP3    H219948   5.111   1.468   4.930
 6662TIP3   OH219949   1.574   1.615   3.519
 6662TIP3    H119950   1.507   1.548   3.506
 6662TIP3    H219951   1.595   1.646   3.431
 6663TIP3   OH219952   4.735   5.910   1.372
 6663TIP3    H119953   4.753   5.958   1.453
 6663TIP3    H219954   4.821   5.889   1.338
 6664TIP3   OH219955   0.636   1.343   0.711
 6664TIP3    H119956   0.643   1.323   0.804
 6664TIP3    H219957   0.694   1.418   0.698
 6665TIP3   OH219958   4.737   0.400   5.038
 6665TIP3    H119959   4.648   0.375   5.013
 6665TIP3    H219960   4.726   0.475   5.097
 6666TIP3   OH219961   0.373   5.244   2.028
 6666TIP3    H119962   0.341   5.309   2.090
 6666TIP3    H219963   0.293   5.212   1.984
 6667TIP3   OH219964   0.549   2.555   5.395
 6667TIP3    H119965   0.612   2.564   5.323
 6667TIP3    H219966   0.497   2.478   5.371
 6668TIP3   OH219967   0.067   0.812   2.485
 6668TIP3    H119968  -0.011   0.762   2.460
 6668TIP3    H219969   0.134   0.746   2.502
 6669TIP3   OH219970   1.221   6.007   1.496
 6669TIP3    H119971   1.264   5.959   1.567
 6669TIP3    H219972   1.290   6.063   1.460
 6670TIP3   OH219973   1.738   3.005   1.692
 6670TIP3    H119974   1.666   2.942   1.702
 6670TIP3    H219975   1.716   3.055   1.614
 6671TIP3   OH219976   1.058   2.754   1.441
 6671TIP3    H119977   1.054   2.825   1.377
 6671TIP3    H219978   1.151   2.743   1.459
 6672TIP3   OH219979   2.403   5.930   5.895
 6672TIP3    H119980   2.488   5.888   5.909
 6672TIP3    H219981   2.412   5.974   5.811
 6673TIP3   OH219982   4.803   0.837   0.680
 6673TIP3    H119983   4.890   0.804   0.701
 6673TIP3    H219984   4.744   0.786   0.736
 6674TIP3   OH219985   5.898   4.506   4.752
 6674TIP3    H119986   5.964   4.569   4.781
 6674TIP3    H219987   5.923   4.485   4.662
 6675TIP3   OH219988   3.235   2.700   1.115
 6675TIP3    H119989   3.211   2.615   1.151
 6675TIP3    H219990   3.225   2.761   1.189
 6676TIP3   OH219991   2.789   3.910   4.117
 6676TIP3    H119992   2.774   3.850   4.044
 6676TIP3    H219993   2.795   3.853   4.194
 6677TIP3   OH219994   6.369   5.185   4.758
 6677TIP3    H119995   6.416   5.138   4.828
 6677TIP3    H219996   6.429   5.182   4.683
 6678TIP3   OH219997   3.741   6.488   3.867
 6678TIP3    H119998   3.719   6.397   3.846
 6678TIP3    H219999   3.662   6.537   3.844
 6679TIP3   OH220000   1.808   0.744   3.656
 6679TIP3    H120001   1.861   0.734   3.577
 6679TIP3    H220002   1.850   0.816   3.704
 6680TIP3   OH220003   3.291   0.979   4.325
 6680TIP3    H120004   3.249   1.000   4.242
 6680TIP3    H220005   3.268   0.887   4.341
 6681TIP3   OH220006   5.710   2.896   3.980
 6681TIP3    H120007   5.628   2.877   4.025
 6681TIP3    H220008   5.777   2.887   4.047
 6682TIP3   OH220009   2.410   0.903   1.584
 6682TIP3    H120010   2.388   0.919   1.675
 6682TIP3    H220011   2.380   0.982   1.538
 6683TIP3   OH220012   0.078   5.320   3.902
 6683TIP3    H120013   0.079   5.229   3.873
 6683TIP3    H220014   0.000   5.358   3.861
 6684TIP3   OH220015   1.892   4.392   5.008
 6684TIP3    H120016   1.935   4.441   5.078
 6684TIP3    H220017   1.898   4.448   4.931
 6685TIP3   OH220018   0.132   3.475   3.865
 6685TIP3    H120019   0.102   3.563   3.888
 6685TIP3    H220020   0.226   3.484   3.852
 6686TIP3   OH220021   2.632   5.122   0.501
 6686TIP3    H120022   2.614   5.069   0.579
 6686TIP3    H220023   2.703   5.075   0.457
 6687TIP3   OH220024   1.296   4.201   3.336
 6687TIP3    H120025   1.246   4.282   3.327
 6687TIP3    H220026   1.385   4.225   3.311
 6688TIP3   OH220027   3.890   3.077   2.655
 6688TIP3    H120028   3.942   3.138   2.603
 6688TIP3    H220029   3.884   3.117   2.742
 6689TIP3   OH220030   5.144   5.083   4.144
 6689TIP3    H120031   5.239   5.072   4.132
 6689TIP3    H220032   5.114   5.122   4.062
 6690TIP3   OH220033   3.755   2.688   4.561
 6690TIP3    H120034   3.694   2.617   4.581
 6690TIP3    H220035   3.841   2.653   4.585
 6691TIP3   OH220036   5.578   4.881   0.779
 6691TIP3    H120037   5.527   4.926   0.846
 6691TIP3    H220038   5.608   4.951   0.721
 6692TIP3   OH220039   2.803   0.290   2.033
 6692TIP3    H120040   2.866   0.276   2.103
 6692TIP3    H220041   2.719   0.263   2.069
 6693TIP3   OH220042   0.531   5.795   1.076
 6693TIP3    H120043   0.572   5.844   1.147
 6693TIP3    H220044   0.573   5.829   0.997
 6694TIP3   OH220045   7.090   6.173   2.497
 6694TIP3    H120046   7.173   6.127   2.509
 6694TIP3    H220047   7.024   6.104   2.498
 6695TIP3   OH220048   5.696   3.025   2.299
 6695TIP3    H120049   5.683   2.981   2.383
 6695TIP3    H220050   5.741   3.107   2.323
 6696TIP3   OH220051   6.346   1.471   1.806
 6696TIP3    H120052   6.253   1.487   1.789
 6696TIP3    H220053   6.391   1.507   1.730
 6697TIP3   OH220054   5.158   1.474   2.320
 6697TIP3    H120055   5.116   1.401   2.366
 6697TIP3    H220056   5.087   1.517   2.273
 6698TIP3   OH220057   3.705   1.944   3.320
 6698TIP3    H120058   3.713   2.037   3.300
 6698TIP3    H220059   3.780   1.904   3.277
 6699TIP3   OH220060   1.175   0.771   3.480
 6699TIP3    H120061   1.116   0.699   3.501
 6699TIP3    H220062   1.256   0.729   3.454
 6700TIP3   OH220063   0.118   3.990   5.182
 6700TIP3    H120064   0.205   3.952   5.177
 6700TIP3    H220065   0.081   3.952   5.262
 6701TIP3   OH220066   3.245   2.084   1.132
 6701TIP3    H120067   3.165   2.044   1.165
 6701TIP3    H220068   3.308   2.074   1.203
 6702TIP3   OH220069   4.721   0.542   1.905
 6702TIP3    H120070   4.730   0.447   1.894
 6702TIP3    H220071   4.771   0.580   1.833
 6703TIP3   OH220072   1.645   0.261   3.858
 6703TIP3    H120073   1.706   0.326   3.823
 6703TIP3    H220074   1.560   0.284   3.820
 6704TIP3   OH220075   2.370   0.399   1.081
 6704TIP3    H120076   2.289   0.352   1.063
 6704TIP3    H220077   2.351   0.449   1.161
 6705TIP3   OH220078   1.957   1.819   3.313
 6705TIP3    H120079   1.986   1.731   3.291
 6705TIP3    H220080   2.026   1.854   3.370
 6706TIP3   OH220081   5.585   1.955   3.304
 6706TIP3    H120082   5.494   1.942   3.331
 6706TIP3    H220083   5.630   1.875   3.329
 6707TIP3   OH220084   2.555   2.079   3.673
 6707TIP3    H120085   2.570   2.160   3.721
 6707TIP3    H220086   2.491   2.102   3.605
 6708TIP3   OH220087   2.383   0.168   1.321
 6708TIP3    H120088   2.458   0.110   1.312
 6708TIP3    H220089   2.313   0.112   1.354
 6709TIP3   OH220090   6.255   5.809   1.746
 6709TIP3    H120091   6.244   5.868   1.671
 6709TIP3    H220092   6.197   5.735   1.726
 6710TIP3   OH220093   1.068   5.216   0.237
 6710TIP3    H120094   1.122   5.262   0.301
 6710TIP3    H220095   1.096   5.125   0.243
 6711TIP3   OH220096   2.648   3.800   0.218
 6711TIP3    H120097   2.651   3.789   0.313
 6711TIP3    H220098   2.574   3.858   0.203
 6712TIP3   OH220099   6.793   2.857   3.173
 6712TIP3    H120100   6.776   2.950   3.191
 6712TIP3    H220101   6.878   2.857   3.129
 6713TIP3   OH220102   1.389   5.081   0.752
 6713TIP3    H120103   1.295   5.093   0.737
 6713TIP3    H220104   1.418   5.026   0.679
 6714TIP3   OH220105   4.351   6.124   1.816
 6714TIP3    H120106   4.273   6.073   1.792
 6714TIP3    H220107   4.408   6.061   1.860
 6715TIP3   OH220108   1.662   2.553   1.872
 6715TIP3    H120109   1.758   2.551   1.875
 6715TIP3    H220110   1.636   2.581   1.959
 6716TIP3   OH220111   4.612   2.353   4.043
 6716TIP3    H120112   4.685   2.393   4.090
 6716TIP3    H220113   4.653   2.289   3.986
 6717TIP3   OH220114   4.850   4.459   5.509
 6717TIP3    H120115   4.903   4.380   5.498
 6717TIP3    H220116   4.843   4.495   5.420
 6718TIP3   OH220117   3.302   6.011   4.113
 6718TIP3    H120118   3.294   6.078   4.180
 6718TIP3    H220119   3.295   5.928   4.160
 6719TIP3   OH220120   2.851   3.419   0.329
 6719TIP3    H120121   2.862   3.436   0.423
 6719TIP3    H220122   2.783   3.352   0.325
 6720TIP3   OH220123   5.807   0.662   4.282
 6720TIP3    H120124   5.729   0.712   4.259
 6720TIP3    H220125   5.878   0.726   4.280
 6721TIP3   OH220126   2.699   2.063   2.793
 6721TIP3    H120127   2.656   2.127   2.850
 6721TIP3    H220128   2.707   1.985   2.848
 6722TIP3   OH220129   0.471   1.409   0.483
 6722TIP3    H120130   0.522   1.384   0.405
 6722TIP3    H220131   0.534   1.405   0.555
 6723TIP3   OH220132   6.503   2.151   2.219
 6723TIP3    H120133   6.599   2.154   2.216
 6723TIP3    H220134   6.480   2.200   2.298
 6724TIP3   OH220135   6.188   0.390   1.071
 6724TIP3    H120136   6.232   0.307   1.053
 6724TIP3    H220137   6.158   0.420   0.985
 6725TIP3   OH220138   0.308   0.619   1.183
 6725TIP3    H120139   0.389   0.642   1.228
 6725TIP3    H220140   0.301   0.524   1.193
 6726TIP3   OH220141   2.793   5.933   1.570
 6726TIP3    H120142   2.789   5.922   1.665
 6726TIP3    H220143   2.730   6.002   1.551
 6727TIP3   OH220144   4.141   5.823   4.961
 6727TIP3    H120145   4.213   5.854   4.906
 6727TIP3    H220146   4.169   5.736   4.990
 6728TIP3   OH220147   4.991   0.210   3.497
 6728TIP3    H120148   4.982   0.120   3.528
 6728TIP3    H220149   5.077   0.238   3.529
 6729TIP3   OH220150   0.357   0.981   2.718
 6729TIP3    H120151   0.345   1.020   2.632
 6729TIP3    H220152   0.413   0.906   2.704
 6730TIP3   OH220153   1.651   1.710   2.503
 6730TIP3    H120154   1.655   1.624   2.544
 6730TIP3    H220155   1.629   1.770   2.574
 6731TIP3   OH220156   4.347   2.160   0.729
 6731TIP3    H120157   4.352   2.232   0.666
 6731TIP3    H220158   4.261   2.168   0.770
 6732TIP3   OH220159   6.707   0.040   3.458
 6732TIP3    H120160   6.747   0.005   3.538
 6732TIP3    H220161   6.737  -0.019   3.389
 6733TIP3   OH220162   0.629   2.346   0.254
 6733TIP3    H120163   0.663   2.258   0.272
 6733TIP3    H220164   0.558   2.357   0.317
 6734TIP3   OH220165   6.785   6.741   2.779
 6734TIP3    H120166   6.707   6.764   2.829
 6734TIP3    H220167   6.785   6.646   2.775
 6735TIP3   OH220168   2.035   1.197   1.886
 6735TIP3    H120169   1.946   1.180   1.856
 6735TIP3    H220170   2.027   1.208   1.981
 6736TIP3   OH220171   3.121   0.198   4.436
 6736TIP3    H120172   3.179   0.194   4.512
 6736TIP3    H220173   3.054   0.132   4.453
 6737TIP3   OH220174   0.614   6.243   3.988
 6737TIP3    H120175   0.575   6.191   4.059
 6737TIP3    H220176   0.620   6.183   3.914
 6738TIP3   OH220177   2.580   2.336   5.545
 6738TIP3    H120178   2.579   2.269   5.614
 6738TIP3    H220179   2.550   2.416   5.589
 6739TIP3   OH220180   5.756   2.487   0.719
 6739TIP3    H120181   5.700   2.475   0.796
 6739TIP3    H220182   5.795   2.574   0.731
 6740TIP3   OH220183   5.199   2.239   3.102
 6740TIP3    H120184   5.238   2.151   3.096
 6740TIP3    H220185   5.174   2.248   3.194
 6741TIP3   OH220186   1.466   4.665   1.510
 6741TIP3    H120187   1.486   4.707   1.426
 6741TIP3    H220188   1.498   4.726   1.575
 6742TIP3   OH220189   2.754   1.110   2.638
 6742TIP3    H120190   2.665   1.097   2.604
 6742TIP3    H220191   2.777   1.199   2.610
 6743TIP3   OH220192   3.269   3.380   3.848
 6743TIP3    H120193   3.228   3.459   3.813
 6743TIP3    H220194   3.211   3.352   3.919
 6744TIP3   OH220195   0.324   6.310   1.653
 6744TIP3    H120196   0.285   6.364   1.584
 6744TIP3    H220197   0.407   6.280   1.616
 6745TIP3   OH220198   4.663   5.354   1.604
 6745TIP3    H120199   4.620   5.431   1.641
 6745TIP3    H220200   4.716   5.319   1.675
 6746TIP3   OH220201   5.284   6.637   0.345
 6746TIP3    H120202   5.287   6.543   0.327
 6746TIP3    H220203   5.285   6.643   0.441
 6747TIP3   OH220204   4.010   6.088   0.083
 6747TIP3    H120205   4.039   6.038   0.007
 6747TIP3    H220206   4.066   6.166   0.083
 6748TIP3   OH220207   1.375   0.376   3.797
 6748TIP3    H120208   1.319   0.450   3.774
 6748TIP3    H220209   1.321   0.319   3.851
 6749TIP3   OH220210   1.006   2.675   2.951
 6749TIP3    H120211   1.045   2.715   2.874
 6749TIP3    H220212   1.029   2.583   2.945
 6750TIP3   OH220213   1.396   3.631   4.922
 6750TIP3    H120214   1.410   3.539   4.899
 6750TIP3    H220215   1.411   3.679   4.840
 6751TIP3   OH220216   3.845   2.533   2.494
 6751TIP3    H120217   3.820   2.498   2.579
 6751TIP3    H220218   3.889   2.461   2.449
 6752TIP3   OH220219   0.462   0.842   2.966
 6752TIP3    H120220   0.509   0.831   3.048
 6752TIP3    H220221   0.503   0.779   2.906
 6753TIP3   OH220222   1.591   5.024   2.436
 6753TIP3    H120223   1.552   5.109   2.455
 6753TIP3    H220224   1.664   5.017   2.498
 6754TIP3   OH220225   4.575   5.168   2.470
 6754TIP3    H120226   4.549   5.182   2.379
 6754TIP3    H220227   4.493   5.175   2.520
 6755TIP3   OH220228   4.727   6.512   4.436
 6755TIP3    H120229   4.736   6.606   4.420
 6755TIP3    H220230   4.711   6.475   4.349
 6756TIP3   OH220231   2.691   3.556   4.132
 6756TIP3    H120232   2.696   3.608   4.213
 6756TIP3    H220233   2.697   3.621   4.062
 6757TIP3   OH220234   3.233   4.368   2.846
 6757TIP3    H120235   3.260   4.420   2.770
 6757TIP3    H220236   3.272   4.282   2.831
 6758TIP3   OH220237   0.327   2.078   5.808
 6758TIP3    H120238   0.233   2.087   5.825
 6758TIP3    H220239   0.345   2.141   5.739
 6759TIP3   OH220240   0.321   5.987   3.787
 6759TIP3    H120241   0.277   5.902   3.786
 6759TIP3    H220242   0.381   5.984   3.713
 6760TIP3   OH220243   2.228   4.916   2.745
 6760TIP3    H120244   2.310   4.870   2.765
 6760TIP3    H220245   2.254   5.007   2.735
 6761TIP3   OH220246   5.194   3.970   0.999
 6761TIP3    H120247   5.132   3.910   1.040
 6761TIP3    H220248   5.246   3.915   0.940
 6762TIP3   OH220249   3.536   2.724   1.616
 6762TIP3    H120250   3.559   2.788   1.683
 6762TIP3    H220251   3.529   2.641   1.664
 6763TIP3   OH220252   4.098   0.194   2.669
 6763TIP3    H120253   4.084   0.100   2.656
 6763TIP3    H220254   4.133   0.225   2.585
 6764TIP3   OH220255   6.229   3.899   2.076
 6764TIP3    H120256   6.295   3.896   2.145
 6764TIP3    H220257   6.230   3.990   2.046
 6765TIP3   OH220258   5.747   1.817   5.544
 6765TIP3    H120259   5.802   1.749   5.505
 6765TIP3    H220260   5.769   1.815   5.637
 6766TIP3   OH220261   1.595   5.766   5.805
 6766TIP3    H120262   1.593   5.720   5.721
 6766TIP3    H220263   1.615   5.857   5.782
 6767TIP3   OH220264   4.388   3.665   3.052
 6767TIP3    H120265   4.326   3.712   2.996
 6767TIP3    H220266   4.474   3.682   3.013
 6768TIP3   OH220267   2.798   4.487   4.957
 6768TIP3    H120268   2.882   4.495   4.912
 6768TIP3    H220269   2.783   4.572   4.997
 6769TIP3   OH220270   2.191   6.241   3.869
 6769TIP3    H120271   2.195   6.173   3.936
 6769TIP3    H220272   2.150   6.316   3.914
 6770TIP3   OH220273   2.326   0.845   4.685
 6770TIP3    H120274   2.335   0.803   4.770
 6770TIP3    H220275   2.398   0.907   4.681
 6771TIP3   OH220276   2.936   0.504   0.459
 6771TIP3    H120277   2.922   0.582   0.406
 6771TIP3    H220278   2.854   0.493   0.508
 6772TIP3   OH220279   2.635   3.796   0.503
 6772TIP3    H120280   2.629   3.765   0.593
 6772TIP3    H220281   2.710   3.857   0.503
 6773TIP3   OH220282   3.672   1.105   3.170
 6773TIP3    H120283   3.672   1.059   3.254
 6773TIP3    H220284   3.678   1.036   3.104
 6774TIP3   OH220285   7.214   0.286   5.118
 6774TIP3    H120286   7.193   0.252   5.031
 6774TIP3    H220287   7.132   0.279   5.167
 6775TIP3   OH220288   0.351   0.636   0.925
 6775TIP3    H120289   0.316   0.642   1.014
 6775TIP3    H220290   0.439   0.672   0.931
 6776TIP3   OH220291   5.798   2.284   4.759
 6776TIP3    H120292   5.751   2.262   4.678
 6776TIP3    H220293   5.752   2.360   4.794
 6777TIP3   OH220294   0.670   3.027   5.011
 6777TIP3    H120295   0.745   2.983   4.972
 6777TIP3    H220296   0.632   2.962   5.070
 6778TIP3   OH220297   7.186   2.004   1.771
 6778TIP3    H120298   7.194   1.963   1.857
 6778TIP3    H220299   7.097   1.982   1.742
 6779TIP3   OH220300   2.939   5.020   3.996
 6779TIP3    H120301   2.877   5.076   3.949
 6779TIP3    H220302   2.929   4.934   3.955
 6780TIP3   OH220303   1.995   0.376   4.011
 6780TIP3    H120304   1.988   0.451   3.952
 6780TIP3    H220305   1.941   0.400   4.086
 6781TIP3   OH220306   0.851   2.720   4.507
 6781TIP3    H120307   0.877   2.642   4.459
 6781TIP3    H220308   0.927   2.778   4.501
 6782TIP3   OH220309   4.797   3.015   1.414
 6782TIP3    H120310   4.743   2.992   1.489
 6782TIP3    H220311   4.887   2.999   1.442
 6783TIP3   OH220312   0.319   3.201   1.736
 6783TIP3    H120313   0.407   3.231   1.714
 6783TIP3    H220314   0.300   3.241   1.821
 6784TIP3   OH220315   0.513   3.383   4.417
 6784TIP3    H120316   0.515   3.398   4.512
 6784TIP3    H220317   0.459   3.304   4.406
 6785TIP3   OH220318   3.791   3.467   0.951
 6785TIP3    H120319   3.752   3.433   0.871
 6785TIP3    H220320   3.876   3.423   0.957
 6786TIP3   OH220321   2.680   4.022   1.141
 6786TIP3    H120322   2.701   4.094   1.082
 6786TIP3    H220323   2.584   4.018   1.141
 6787TIP3   OH220324   0.564   3.274   5.569
 6787TIP3    H120325   0.628   3.206   5.589
 6787TIP3    H220326   0.584   3.300   5.479
 6788TIP3   OH220327   1.919   2.932   3.577
 6788TIP3    H120328   1.830   2.944   3.610
 6788TIP3    H220329   1.964   3.014   3.599
 6789TIP3   OH220330   5.799   5.069   1.495
 6789TIP3    H120331   5.784   5.118   1.413
 6789TIP3    H220332   5.758   5.124   1.563
 6790TIP3   OH220333   6.554   6.069   0.273
 6790TIP3    H120334   6.617   6.055   0.203
 6790TIP3    H220335   6.509   5.985   0.282
 6791TIP3   OH220336   0.403   5.179   2.467
 6791TIP3    H120337   0.471   5.193   2.402
 6791TIP3    H220338   0.324   5.159   2.416
 6792TIP3   OH220339   6.901   4.664   5.620
 6792TIP3    H120340   6.991   4.679   5.590
 6792TIP3    H220341   6.910   4.637   5.711
 6793TIP3   OH220342   3.582   6.126   0.487
 6793TIP3    H120343   3.614   6.048   0.533
 6793TIP3    H220344   3.621   6.200   0.534
 6794TIP3   OH220345   1.671   4.946   1.054
 6794TIP3    H120346   1.577   4.965   1.051
 6794TIP3    H220347   1.696   4.965   1.145
 6795TIP3   OH220348   1.029   6.239   1.482
 6795TIP3    H120349   1.116   6.199   1.480
 6795TIP3    H220350   1.044   6.330   1.457
 6796TIP3   OH220351   6.878   2.283   0.317
 6796TIP3    H120352   6.965   2.289   0.278
 6796TIP3    H220353   6.850   2.374   0.327
 6797TIP3   OH220354   2.760   0.866   0.069
 6797TIP3    H120355   2.789   0.865  -0.023
 6797TIP3    H220356   2.777   0.956   0.098
 6798TIP3   OH220357   6.954   4.552   2.438
 6798TIP3    H120358   7.020   4.483   2.445
 6798TIP3    H220359   6.903   4.544   2.519
 6799TIP3   OH220360   0.917   3.065   4.772
 6799TIP3    H120361   0.959   3.056   4.686
 6799TIP3    H220362   0.988   3.050   4.835
 6800TIP3   OH220363   6.384   4.334   3.346
 6800TIP3    H120364   6.354   4.322   3.436
 6800TIP3    H220365   6.466   4.284   3.341
 6801TIP3   OH220366   5.630   0.528   1.703
 6801TIP3    H120367   5.650   0.441   1.669
 6801TIP3    H220368   5.716   0.566   1.723
 6802TIP3   OH220369   7.310   6.323   4.523
 6802TIP3    H120370   7.217   6.344   4.517
 6802TIP3    H220371   7.314   6.244   4.576
 6803TIP3   OH220372   0.271   4.186   2.411
 6803TIP3    H120373   0.235   4.166   2.498
 6803TIP3    H220374   0.293   4.279   2.415
 6804TIP3   OH220375   3.093   3.054   0.029
 6804TIP3    H120376   3.097   3.121  -0.039
 6804TIP3    H220377   3.071   3.101   0.109
 6805TIP3   OH220378   4.772   5.261   2.109
 6805TIP3    H120379   4.794   5.234   2.198
 6805TIP3    H220380   4.837   5.327   2.087
 6806TIP3   OH220381   1.061   3.191   1.935
 6806TIP3    H120382   0.989   3.216   1.993
 6806TIP3    H220383   1.133   3.247   1.962
 6807TIP3   OH220384   4.465   1.713   1.303
 6807TIP3    H120385   4.374   1.695   1.328
 6807TIP3    H220386   4.496   1.776   1.367
 6808TIP3   OH220387   5.619   0.884   4.202
 6808TIP3    H120388   5.689   0.936   4.162
 6808TIP3    H220389   5.558   0.949   4.237
 6809TIP3   OH220390   0.783   2.434   5.199
 6809TIP3    H120391   0.863   2.466   5.239
 6809TIP3    H220392   0.748   2.509   5.150
 6810TIP3   OH220393   0.454   4.634   0.193
 6810TIP3    H120394   0.460   4.558   0.251
 6810TIP3    H220395   0.544   4.663   0.181
 6811TIP3   OH220396   5.446   6.717   3.018
 6811TIP3    H120397   5.376   6.736   3.081
 6811TIP3    H220398   5.408   6.735   2.933
 6812TIP3   OH220399   6.856   2.799   3.922
 6812TIP3    H120400   6.947   2.795   3.891
 6812TIP3    H220401   6.863   2.837   4.010
 6813TIP3   OH220402   1.498   5.868   2.971
 6813TIP3    H120403   1.500   5.816   2.891
 6813TIP3    H220404   1.585   5.858   3.009
 6814TIP3   OH220405   6.172   2.127   0.930
 6814TIP3    H120406   6.128   2.182   0.865
 6814TIP3    H220407   6.256   2.170   0.946
 6815TIP3   OH220408   0.301   0.035   2.967
 6815TIP3    H120409   0.317  -0.031   3.034
 6815TIP3    H220410   0.206   0.032   2.952
 6816TIP3   OH220411   5.014   0.359   3.252
 6816TIP3    H120412   4.940   0.378   3.195
 6816TIP3    H220413   4.975   0.322   3.331
 6817TIP3   OH220414   1.426   3.721   3.526
 6817TIP3    H120415   1.468   3.688   3.446
 6817TIP3    H220416   1.456   3.811   3.533
 6818TIP3   OH220417   3.686   1.329   1.350
 6818TIP3    H120418   3.649   1.373   1.427
 6818TIP3    H220419   3.779   1.321   1.370
 6819TIP3   OH220420   4.452   3.531   1.941
 6819TIP3    H120421   4.359   3.556   1.947
 6819TIP3    H220422   4.484   3.536   2.031
 6820TIP3   OH220423   5.831   3.368   1.260
 6820TIP3    H120424   5.899   3.428   1.228
 6820TIP3    H220425   5.876   3.311   1.322
 6821TIP3   OH220426   6.209   5.799   3.035
 6821TIP3    H120427   6.202   5.840   2.949
 6821TIP3    H220428   6.119   5.771   3.055
 6822TIP3   OH220429   1.682   6.297   0.503
 6822TIP3    H120430   1.672   6.281   0.597
 6822TIP3    H220431   1.723   6.384   0.498
 6823TIP3   OH220432   2.446   5.990   4.075
 6823TIP3    H120433   2.456   6.012   4.167
 6823TIP3    H220434   2.489   5.905   4.066
 6824TIP3   OH220435   4.981   1.453   5.718
 6824TIP3    H120436   5.003   1.506   5.642
 6824TIP3    H220437   4.956   1.368   5.682
 6825TIP3   OH220438   3.932   0.688   0.920
 6825TIP3    H120439   3.901   0.778   0.913
 6825TIP3    H220440   3.952   0.677   1.013
 6826TIP3   OH220441   6.447   4.615   0.926
 6826TIP3    H120442   6.515   4.668   0.968
 6826TIP3    H220443   6.484   4.592   0.841
 6827TIP3   OH220444   6.593   5.283   5.193
 6827TIP3    H120445   6.547   5.366   5.204
 6827TIP3    H220446   6.686   5.306   5.202
 6828TIP3   OH220447   2.817   4.322   0.646
 6828TIP3    H120448   2.755   4.265   0.692
 6828TIP3    H220449   2.778   4.410   0.653
 6829TIP3   OH220450   3.977   2.300   4.770
 6829TIP3    H120451   3.963   2.273   4.679
 6829TIP3    H220452   4.071   2.290   4.784
 6830TIP3   OH220453   4.469   5.703   4.008
 6830TIP3    H120454   4.547   5.732   4.054
 6830TIP3    H220455   4.482   5.731   3.917
 6831TIP3   OH220456   6.900   6.792   1.329
 6831TIP3    H120457   6.952   6.744   1.265
 6831TIP3    H220458   6.925   6.756   1.414
 6832TIP3   OH220459   7.173   2.398   1.510
 6832TIP3    H120460   7.175   2.440   1.595
 6832TIP3    H220461   7.225   2.455   1.454
 6833TIP3   OH220462   1.083   2.587   0.105
 6833TIP3    H120463   1.065   2.658   0.167
 6833TIP3    H220464   1.010   2.526   0.117
 6834TIP3   OH220465   5.858   1.739   1.142
 6834TIP3    H120466   5.931   1.793   1.112
 6834TIP3    H220467   5.799   1.734   1.067
 6835TIP3   OH220468   6.643   5.154   2.432
 6835TIP3    H120469   6.650   5.233   2.486
 6835TIP3    H220470   6.555   5.158   2.395
 6836TIP3   OH220471   3.289   4.284   5.777
 6836TIP3    H120472   3.347   4.323   5.712
 6836TIP3    H220473   3.345   4.228   5.830
 6837TIP3   OH220474   3.741   1.371   1.007
 6837TIP3    H120475   3.700   1.285   1.013
 6837TIP3    H220476   3.777   1.388   1.094
 6838TIP3   OH220477   2.704   0.538   2.902
 6838TIP3    H120478   2.712   0.445   2.921
 6838TIP3    H220479   2.612   0.550   2.879
 6839TIP3   OH220480   6.195   3.692   0.904
 6839TIP3    H120481   6.119   3.748   0.918
 6839TIP3    H220482   6.235   3.683   0.990
 6840TIP3   OH220483   1.514   4.186   4.231
 6840TIP3    H120484   1.520   4.115   4.168
 6840TIP3    H220485   1.506   4.142   4.316
 6841TIP3   OH220486   4.190   3.843   2.912
 6841TIP3    H120487   4.196   3.930   2.951
 6841TIP3    H220488   4.105   3.842   2.867
 6842TIP3   OH220489   1.430   5.365   1.043
 6842TIP3    H120490   1.339   5.337   1.051
 6842TIP3    H220491   1.470   5.344   1.127
 6843TIP3   OH220492   0.551   1.250   5.802
 6843TIP3    H120493   0.559   1.345   5.792
 6843TIP3    H220494   0.526   1.219   5.715
 6844TIP3   OH220495   2.099   1.885   5.661
 6844TIP3    H120496   2.188   1.921   5.669
 6844TIP3    H220497   2.105   1.825   5.587
 6845TIP3   OH220498   4.685   3.843   4.273
 6845TIP3    H120499   4.737   3.839   4.353
 6845TIP3    H220500   4.621   3.913   4.290
 6846TIP3   OH220501   4.407   5.914   2.881
 6846TIP3    H120502   4.340   5.847   2.894
 6846TIP3    H220503   4.433   5.940   2.970
 6847TIP3   OH220504   1.068   4.575   2.279
 6847TIP3    H120505   1.136   4.640   2.263
 6847TIP3    H220506   1.083   4.507   2.213
 6848TIP3   OH220507   6.428   4.799   1.920
 6848TIP3    H120508   6.335   4.803   1.943
 6848TIP3    H220509   6.468   4.751   1.993
 6849TIP3   OH220510   6.639   1.174   3.450
 6849TIP3    H120511   6.584   1.252   3.440
 6849TIP3    H220512   6.727   1.209   3.466
 6850TIP3   OH220513   6.674   5.721   3.182
 6850TIP3    H120514   6.616   5.784   3.224
 6850TIP3    H220515   6.695   5.658   3.251
 6851TIP3   OH220516   1.020   0.775   4.171
 6851TIP3    H120517   1.067   0.827   4.236
 6851TIP3    H220518   0.983   0.839   4.110
 6852TIP3   OH220519   4.698   2.109   4.659
 6852TIP3    H120520   4.709   2.038   4.595
 6852TIP3    H220521   4.695   2.065   4.744
 6853TIP3   OH220522   5.752   2.930   4.849
 6853TIP3    H120523   5.742   3.010   4.901
 6853TIP3    H220524   5.829   2.947   4.794
 6854TIP3   OH220525   6.279   3.978   3.378
 6854TIP3    H120526   6.225   3.952   3.303
 6854TIP3    H220527   6.231   4.051   3.418
 6855TIP3   OH220528   1.830   1.935   5.711
 6855TIP3    H120529   1.808   2.017   5.666
 6855TIP3    H220530   1.921   1.918   5.686
 6856TIP3   OH220531   4.416   3.495   1.025
 6856TIP3    H120532   4.328   3.511   1.058
 6856TIP3    H220533   4.472   3.499   1.103
 6857TIP3   OH220534   3.215   1.367   5.179
 6857TIP3    H120535   3.303   1.338   5.156
 6857TIP3    H220536   3.181   1.298   5.236
 6858TIP3   OH220537   1.298   1.821   2.820
 6858TIP3    H120538   1.228   1.881   2.794
 6858TIP3    H220539   1.265   1.735   2.797
 6859TIP3   OH220540   4.531   0.050   5.285
 6859TIP3    H120541   4.567   0.012   5.205
 6859TIP3    H220542   4.607   0.084   5.332
 6860TIP3   OH220543   2.764   6.812   0.485
 6860TIP3    H120544   2.717   6.732   0.464
 6860TIP3    H220545   2.743   6.829   0.577
 6861TIP3   OH220546   4.171   6.161   2.439
 6861TIP3    H120547   4.126   6.165   2.354
 6861TIP3    H220548   4.164   6.070   2.466
 6862TIP3   OH220549   1.450   5.493   1.721
 6862TIP3    H120550   1.473   5.402   1.739
 6862TIP3    H220551   1.476   5.540   1.801
 6863TIP3   OH220552   2.499   6.474   2.088
 6863TIP3    H120553   2.534   6.525   2.162
 6863TIP3    H220554   2.441   6.411   2.130
 6864TIP3   OH220555   5.603   0.173   2.155
 6864TIP3    H120556   5.664   0.158   2.227
 6864TIP3    H220557   5.576   0.265   2.165
 6865TIP3   OH220558   6.724   1.289   0.123
 6865TIP3    H120559   6.778   1.244   0.188
 6865TIP3    H220560   6.724   1.380   0.150
 6866TIP3   OH220561   3.968   5.966   4.117
 6866TIP3    H120562   4.051   5.968   4.069
 6866TIP3    H220563   3.903   5.996   4.054
 6867TIP3   OH220564   0.342   0.161   1.858
 6867TIP3    H120565   0.427   0.191   1.890
 6867TIP3    H220566   0.292   0.242   1.844
 6868TIP3   OH220567   6.057   2.002   2.345
 6868TIP3    H120568   6.052   2.045   2.431
 6868TIP3    H220569   6.007   2.058   2.287
 6869TIP3   OH220570   3.048   1.104   0.259
 6869TIP3    H120571   3.031   1.194   0.288
 6869TIP3    H220572   3.022   1.103   0.166
 6870TIP3   OH220573   7.046   1.604   5.784
 6870TIP3    H120574   7.024   1.596   5.691
 6870TIP3    H220575   6.998   1.533   5.826
 6871TIP3   OH220576   3.759   6.633   5.002
 6871TIP3    H120577   3.728   6.723   5.011
 6871TIP3    H220578   3.799   6.630   4.915
 6872TIP3   OH220579   3.686   3.967   0.432
 6872TIP3    H120580   3.759   4.007   0.384
 6872TIP3    H220581   3.618   3.953   0.366
 6873TIP3   OH220582   6.050   5.433   0.197
 6873TIP3    H120583   6.114   5.363   0.212
 6873TIP3    H220584   6.006   5.407   0.115
 6874TIP3   OH220585   2.590   2.120   2.060
 6874TIP3    H120586   2.655   2.181   2.026
 6874TIP3    H220587   2.603   2.040   2.008
 6875TIP3   OH220588   6.663   1.475   3.782
 6875TIP3    H120589   6.736   1.453   3.725
 6875TIP3    H220590   6.703   1.519   3.857
 6876TIP3   OH220591   2.402   2.584   1.318
 6876TIP3    H120592   2.388   2.526   1.393
 6876TIP3    H220593   2.346   2.548   1.250
 6877TIP3   OH220594   2.378   3.434   0.416
 6877TIP3    H120595   2.366   3.529   0.411
 6877TIP3    H220596   2.473   3.422   0.427
 6878TIP3   OH220597   6.247   6.196   1.873
 6878TIP3    H120598   6.161   6.164   1.899
 6878TIP3    H220599   6.233   6.287   1.850
 6879TIP3   OH220600   3.956   6.326   4.018
 6879TIP3    H120601   3.877   6.379   4.002
 6879TIP3    H220602   3.925   6.236   4.015
 6880TIP3   OH220603   2.463   3.542   5.106
 6880TIP3    H120604   2.441   3.591   5.026
 6880TIP3    H220605   2.418   3.588   5.176
 6881TIP3   OH220606   0.330   2.722   1.677
 6881TIP3    H120607   0.278   2.796   1.708
 6881TIP3    H220608   0.271   2.647   1.682
 6882TIP3   OH220609   4.020   4.343   5.815
 6882TIP3    H120610   4.069   4.419   5.783
 6882TIP3    H220611   3.984   4.303   5.736
 6883TIP3   OH220612   3.264   1.587   4.973
 6883TIP3    H120613   3.181   1.547   4.997
 6883TIP3    H220614   3.331   1.525   5.003
 6884TIP3   OH220615   6.540   1.605   3.583
 6884TIP3    H120616   6.582   1.566   3.660
 6884TIP3    H220617   6.496   1.683   3.617
 6885TIP3   OH220618   6.379   0.344   3.320
 6885TIP3    H120619   6.412   0.414   3.376
 6885TIP3    H220620   6.302   0.382   3.276
 6886TIP3   OH220621   4.253   0.346   4.140
 6886TIP3    H120622   4.296   0.383   4.063
 6886TIP3    H220623   4.325   0.315   4.195
 6887TIP3   OH220624   3.924   3.180   2.932
 6887TIP3    H120625   3.939   3.275   2.936
 6887TIP3    H220626   4.003   3.142   2.971
 6888TIP3   OH220627   3.531   0.201   5.275
 6888TIP3    H120628   3.623   0.178   5.283
 6888TIP3    H220629   3.527   0.258   5.198
 6889TIP3   OH220630   0.246   0.690   5.154
 6889TIP3    H120631   0.273   0.773   5.193
 6889TIP3    H220632   0.321   0.632   5.165
 6890TIP3   OH220633   5.163   1.809   1.337
 6890TIP3    H120634   5.148   1.882   1.398
 6890TIP3    H220635   5.250   1.826   1.301
 6891TIP3   OH220636   1.008   0.544   3.571
 6891TIP3    H120637   1.068   0.536   3.645
 6891TIP3    H220638   0.952   0.467   3.577
 6892TIP3   OH220639   2.819   6.174   0.996
 6892TIP3    H120640   2.800   6.237   1.066
 6892TIP3    H220641   2.845   6.094   1.043
 6893TIP3   OH220642   7.113   0.797   4.340
 6893TIP3    H120643   7.059   0.875   4.349
 6893TIP3    H220644   7.073   0.748   4.269
 6894TIP3   OH220645   5.727   4.297   2.191
 6894TIP3    H120646   5.668   4.237   2.237
 6894TIP3    H220647   5.763   4.352   2.259
 6895TIP3   OH220648   6.813   0.563   1.001
 6895TIP3    H120649   6.824   0.616   0.923
 6895TIP3    H220650   6.896   0.516   1.011
 6896TIP3   OH220651   3.010   6.612   2.800
 6896TIP3    H120652   2.993   6.585   2.890
 6896TIP3    H220653   3.101   6.587   2.785
 6897TIP3   OH220654   6.194   6.564   3.538
 6897TIP3    H120655   6.169   6.650   3.572
 6897TIP3    H220656   6.281   6.577   3.501
 6898TIP3   OH220657   1.038   0.882   0.488
 6898TIP3    H120658   0.991   0.915   0.566
 6898TIP3    H220659   1.091   0.956   0.459
 6899TIP3   OH220660   1.553   6.756   0.920
 6899TIP3    H120661   1.504   6.821   0.869
 6899TIP3    H220662   1.507   6.673   0.903
 6900TIP3   OH220663   3.278   4.936   4.093
 6900TIP3    H120664   3.284   4.905   4.003
 6900TIP3    H220665   3.342   4.883   4.141
 6901TIP3   OH220666   6.986   0.828   3.249
 6901TIP3    H120667   6.910   0.883   3.230
 6901TIP3    H220668   6.986   0.762   3.179
 6902TIP3   OH220669   0.439   6.550   3.664
 6902TIP3    H120670   0.454   6.567   3.757
 6902TIP3    H220671   0.398   6.464   3.661
 6903TIP3   OH220672   0.083   4.407   1.163
 6903TIP3    H120673   0.162   4.400   1.110
 6903TIP3    H220674   0.036   4.482   1.127
 6904TIP3   OH220675   6.365   0.165   1.904
 6904TIP3    H120676   6.269   0.161   1.906
 6904TIP3    H220677   6.391   0.172   1.996
 6905TIP3   OH220678   6.745   2.143   1.877
 6905TIP3    H120679   6.811   2.081   1.847
 6905TIP3    H220680   6.671   2.089   1.904
 6906TIP3   OH220681   0.996   4.399   4.086
 6906TIP3    H120682   1.066   4.385   4.022
 6906TIP3    H220683   0.975   4.492   4.079
 6907TIP3   OH220684   1.162   6.768  -0.001
 6907TIP3    H120685   1.234   6.723  -0.045
 6907TIP3    H220686   1.090   6.705  -0.001
 6908TIP3   OH220687   4.732   4.411   4.472
 6908TIP3    H120688   4.757   4.407   4.565
 6908TIP3    H220689   4.815   4.399   4.425
 6909TIP3   OH220690   1.596   4.525   2.261
 6909TIP3    H120691   1.573   4.556   2.174
 6909TIP3    H220692   1.534   4.455   2.279
 6910TIP3   OH220693   5.431   3.667   4.559
 6910TIP3    H120694   5.525   3.685   4.568
 6910TIP3    H220695   5.408   3.617   4.637
 6911TIP3   OH220696   1.040   0.295   0.384
 6911TIP3    H120697   1.051   0.234   0.457
 6911TIP3    H220698   1.041   0.382   0.424
 6912TIP3   OH220699   4.503   5.866   1.169
 6912TIP3    H120700   4.582   5.843   1.218
 6912TIP3    H220701   4.489   5.959   1.187
 6913TIP3   OH220702   5.330   2.986   3.487
 6913TIP3    H120703   5.407   3.019   3.441
 6913TIP3    H220704   5.338   3.022   3.575
 6914TIP3   OH220705   1.942   2.700   1.190
 6914TIP3    H120706   1.976   2.789   1.184
 6914TIP3    H220707   2.018   2.643   1.177
 6915TIP3   OH220708   3.829   6.475   2.166
 6915TIP3    H120709   3.794   6.564   2.175
 6915TIP3    H220710   3.773   6.434   2.100
 6916TIP3   OH220711   3.804   0.718   2.223
 6916TIP3    H120712   3.862   0.649   2.255
 6916TIP3    H220713   3.715   0.683   2.235
 6917TIP3   OH220714   0.919   4.494   5.618
 6917TIP3    H120715   0.943   4.480   5.709
 6917TIP3    H220716   0.992   4.544   5.581
 6918TIP3   OH220717   1.217   0.434   0.084
 6918TIP3    H120718   1.141   0.378   0.066
 6918TIP3    H220719   1.288   0.396   0.033
 6919TIP3   OH220720   3.263   2.934   0.723
 6919TIP3    H120721   3.222   3.016   0.695
 6919TIP3    H220722   3.254   2.935   0.818
 6920TIP3   OH220723   2.999   5.901   2.214
 6920TIP3    H120724   2.998   5.939   2.126
 6920TIP3    H220725   2.912   5.921   2.249
 6921TIP3   OH220726   0.504   0.418   4.422
 6921TIP3    H120727   0.593   0.385   4.414
 6921TIP3    H220728   0.449   0.346   4.391
 6922TIP3   OH220729   3.115   3.647   5.105
 6922TIP3    H120730   3.147   3.660   5.016
 6922TIP3    H220731   3.035   3.595   5.094
 6923TIP3   OH220732   5.668   1.150   2.640
 6923TIP3    H120733   5.714   1.230   2.666
 6923TIP3    H220734   5.577   1.177   2.627
 6924TIP3   OH220735   0.972   0.686   1.667
 6924TIP3    H120736   0.964   0.742   1.589
 6924TIP3    H220737   0.956   0.746   1.740
 6925TIP3   OH220738   5.687   1.538   2.322
 6925TIP3    H120739   5.697   1.452   2.282
 6925TIP3    H220740   5.596   1.541   2.352
 6926TIP3   OH220741   3.237   0.939   0.784
 6926TIP3    H120742   3.313   0.920   0.729
 6926TIP3    H220743   3.266   1.011   0.840
 6927TIP3   OH220744   4.811   5.242   4.739
 6927TIP3    H120745   4.837   5.176   4.675
 6927TIP3    H220746   4.792   5.193   4.819
 6928TIP3   OH220747   5.002   0.824   5.858
 6928TIP3    H120748   5.068   0.779   5.911
 6928TIP3    H220749   4.996   0.912   5.896
 6929TIP3   OH220750   2.757   1.829   3.562
 6929TIP3    H120751   2.687   1.861   3.619
 6929TIP3    H220752   2.827   1.895   3.571
 6930TIP3   OH220753   2.691   3.502   2.181
 6930TIP3    H120754   2.620   3.552   2.141
 6930TIP3    H220755   2.753   3.569   2.210
 6931TIP3   OH220756   6.837   1.312   2.453
 6931TIP3    H120757   6.800   1.230   2.422
 6931TIP3    H220758   6.781   1.380   2.416
 6932TIP3   OH220759   6.555   2.951   4.007
 6932TIP3    H120760   6.461   2.940   3.995
 6932TIP3    H220761   6.591   2.944   3.918
 6933TIP3   OH220762   0.818   5.174   4.332
 6933TIP3    H120763   0.878   5.248   4.338
 6933TIP3    H220764   0.868   5.105   4.288
 6934TIP3   OH220765   5.589   6.656   1.480
 6934TIP3    H120766   5.522   6.600   1.441
 6934TIP3    H220767   5.617   6.714   1.409
 6935TIP3   OH220768   6.302   5.658   5.399
 6935TIP3    H120769   6.249   5.718   5.345
 6935TIP3    H220770   6.370   5.714   5.436
 6936TIP3   OH220771   1.689   3.095   5.828
 6936TIP3    H120772   1.624   3.025   5.819
 6936TIP3    H220773   1.757   3.056   5.883
 6937TIP3   OH220774   2.652   4.627   2.091
 6937TIP3    H120775   2.642   4.649   2.184
 6937TIP3    H220776   2.579   4.670   2.048
 6938TIP3   OH220777   1.476   3.865   0.840
 6938TIP3    H120778   1.554   3.912   0.809
 6938TIP3    H220779   1.403   3.908   0.795
 6939TIP3   OH220780   1.529   5.082   4.084
 6939TIP3    H120781   1.541   4.994   4.047
 6939TIP3    H220782   1.603   5.093   4.144
 6940TIP3   OH220783   5.329   3.423   3.014
 6940TIP3    H120784   5.381   3.500   2.990
 6940TIP3    H220785   5.238   3.451   3.003
 6941TIP3   OH220786   3.395   0.450   5.056
 6941TIP3    H120787   3.489   0.435   5.066
 6941TIP3    H220788   3.379   0.531   5.104
 6942TIP3   OH220789   0.494   0.174   4.188
 6942TIP3    H120790   0.425   0.185   4.253
 6942TIP3    H220791   0.576   0.174   4.239
 6943TIP3   OH220792   6.052   2.381   3.027
 6943TIP3    H120793   6.029   2.331   2.949
 6943TIP3    H220794   5.986   2.450   3.033
 6944TIP3   OH220795   3.659   4.445   5.559
 6944TIP3    H120796   3.624   4.449   5.470
 6944TIP3    H220797   3.717   4.369   5.559
 6945TIP3   OH220798   2.866   4.382   0.232
 6945TIP3    H120799   2.840   4.474   0.234
 6945TIP3    H220800   2.826   4.347   0.153
 6946TIP3   OH220801   1.738   1.294   5.112
 6946TIP3    H120802   1.794   1.217   5.098
 6946TIP3    H220803   1.727   1.332   5.025
 6947TIP3   OH220804   0.805   3.047   5.587
 6947TIP3    H120805   0.888   3.086   5.560
 6947TIP3    H220806   0.772   3.005   5.507
 6948TIP3   OH220807   2.988   6.460   0.883
 6948TIP3    H120808   2.987   6.554   0.869
 6948TIP3    H220809   2.964   6.449   0.975
 6949TIP3   OH220810   4.693   2.571   1.743
 6949TIP3    H120811   4.633   2.535   1.678
 6949TIP3    H220812   4.777   2.529   1.725
 6950TIP3   OH220813   6.768   2.171   3.501
 6950TIP3    H120814   6.761   2.209   3.413
 6950TIP3    H220815   6.862   2.172   3.520
 6951TIP3   OH220816   6.631   3.435   5.186
 6951TIP3    H120817   6.581   3.456   5.107
 6951TIP3    H220818   6.564   3.425   5.254
 6952TIP3   OH220819   6.422   1.646   0.397
 6952TIP3    H120820   6.497   1.674   0.344
 6952TIP3    H220821   6.394   1.726   0.443
 6953TIP3   OH220822   0.616   1.845   5.573
 6953TIP3    H120823   0.621   1.918   5.512
 6953TIP3    H220824   0.523   1.820   5.573
 6954TIP3   OH220825   1.902   6.043   1.035
 6954TIP3    H120826   1.857   6.125   1.056
 6954TIP3    H220827   1.948   6.061   0.953
 6955TIP3   OH220828   0.104   3.028   4.545
 6955TIP3    H120829   0.161   3.101   4.566
 6955TIP3    H220830   0.129   3.001   4.457
 6956TIP3   OH220831   6.080   6.170   2.499
 6956TIP3    H120832   6.121   6.151   2.583
 6956TIP3    H220833   6.149   6.158   2.434
 6957TIP3   OH220834   3.168   6.348   0.421
 6957TIP3    H120835   3.110   6.331   0.347
 6957TIP3    H220836   3.225   6.272   0.424
 6958TIP3   OH220837   3.324   0.047   1.583
 6958TIP3    H120838   3.304   0.077   1.495
 6958TIP3    H220839   3.419   0.052   1.589
 6959TIP3   OH220840   2.505   1.564   3.128
 6959TIP3    H120841   2.471   1.639   3.079
 6959TIP3    H220842   2.567   1.603   3.190
 6960TIP3   OH220843   1.812   3.488   4.634
 6960TIP3    H120844   1.776   3.482   4.545
 6960TIP3    H220845   1.905   3.505   4.621
 6961TIP3   OH220846   4.856   1.519   4.495
 6961TIP3    H120847   4.882   1.606   4.464
 6961TIP3    H220848   4.888   1.459   4.428
 6962TIP3   OH220849   3.246   4.386   3.273
 6962TIP3    H120850   3.245   4.441   3.352
 6962TIP3    H220851   3.173   4.419   3.221
 6963TIP3   OH220852   5.583   0.842   4.625
 6963TIP3    H120853   5.569   0.882   4.539
 6963TIP3    H220854   5.576   0.748   4.609
 6964TIP3   OH220855   5.222   0.612   2.870
 6964TIP3    H120856   5.305   0.584   2.909
 6964TIP3    H220857   5.245   0.689   2.817
 6965TIP3   OH220858   6.691   0.985   0.579
 6965TIP3    H120859   6.736   1.029   0.651
 6965TIP3    H220860   6.719   0.893   0.586
 6966TIP3   OH220861   6.839   4.671   0.735
 6966TIP3    H120862   6.926   4.691   0.698
 6966TIP3    H220863   6.785   4.745   0.708
 6967TIP3   OH220864   3.177   4.328   4.588
 6967TIP3    H120865   3.211   4.417   4.593
 6967TIP3    H220866   3.193   4.291   4.674
 6968TIP3   OH220867   1.432   5.644   0.995
 6968TIP3    H120868   1.449   5.551   1.014
 6968TIP3    H220869   1.487   5.691   1.057
 6969TIP3   OH220870   6.781   5.765   0.331
 6969TIP3    H120871   6.856   5.705   0.330
 6969TIP3    H220872   6.809   5.839   0.277
 6970TIP3   OH220873   1.441   5.222   2.877
 6970TIP3    H120874   1.533   5.211   2.855
 6970TIP3    H220875   1.434   5.200   2.969
 6971TIP3   OH220876   5.766   6.690   0.617
 6971TIP3    H120877   5.747   6.599   0.640
 6971TIP3    H220878   5.754   6.694   0.522
 6972TIP3   OH220879   0.328   6.726   4.015
 6972TIP3    H120880   0.254   6.770   3.973
 6972TIP3    H220881   0.300   6.636   4.026
 6973TIP3   OH220882   6.504   1.172   1.388
 6973TIP3    H120883   6.414   1.145   1.403
 6973TIP3    H220884   6.536   1.198   1.475
 6974TIP3   OH220885   1.664   2.056   5.442
 6974TIP3    H120886   1.658   2.057   5.347
 6974TIP3    H220887   1.598   2.120   5.471
 6975TIP3   OH220888   6.148   4.074   0.585
 6975TIP3    H120889   6.231   4.122   0.579
 6975TIP3    H220890   6.087   4.124   0.531
 6976TIP3   OH220891   2.069   2.938   1.185
 6976TIP3    H120892   2.048   3.031   1.192
 6976TIP3    H220893   2.146   2.926   1.241
 6977TIP3   OH220894   2.301   1.434   0.780
 6977TIP3    H120895   2.377   1.415   0.724
 6977TIP3    H220896   2.334   1.497   0.844
 6978TIP3   OH220897   0.597   4.312   1.028
 6978TIP3    H120898   0.645   4.383   1.071
 6978TIP3    H220899   0.642   4.301   0.944
 6979TIP3   OH220900   6.098   5.516   5.532
 6979TIP3    H120901   6.181   5.545   5.496
 6979TIP3    H220902   6.058   5.465   5.461
 6980TIP3   OH220903   3.760   6.762   2.137
 6980TIP3    H120904   3.795   6.850   2.155
 6980TIP3    H220905   3.738   6.763   2.044
 6981TIP3   OH220906   0.850   4.568   4.970
 6981TIP3    H120907   0.845   4.549   5.064
 6981TIP3    H220908   0.871   4.661   4.966
 6982TIP3   OH220909   5.000   6.313   1.861
 6982TIP3    H120910   5.077   6.266   1.829
 6982TIP3    H220911   4.942   6.317   1.785
 6983TIP3   OH220912   0.099   4.439   4.801
 6983TIP3    H120913   0.117   4.493   4.724
 6983TIP3    H220914   0.066   4.356   4.764
 6984TIP3   OH220915   1.555   6.185   4.292
 6984TIP3    H120916   1.484   6.248   4.307
 6984TIP3    H220917   1.524   6.104   4.331
 6985TIP3   OH220918   0.579   4.769   2.054
 6985TIP3    H120919   0.642   4.713   2.098
 6985TIP3    H220920   0.548   4.829   2.121
 6986TIP3   OH220921   1.498   3.114   0.811
 6986TIP3    H120922   1.438   3.040   0.818
 6986TIP3    H220923   1.463   3.167   0.739
 6987TIP3   OH220924   4.383   0.605   3.936
 6987TIP3    H120925   4.439   0.612   4.014
 6987TIP3    H220926   4.445   0.599   3.863
 6988TIP3   OH220927   2.918   1.452   4.071
 6988TIP3    H120928   2.992   1.404   4.034
 6988TIP3    H220929   2.895   1.404   4.150
 6989TIP3   OH220930   3.237   2.918   4.522
 6989TIP3    H120931   3.221   3.013   4.520
 6989TIP3    H220932   3.331   2.909   4.508
 6990TIP3   OH220933   0.549   0.722   1.320
 6990TIP3    H120934   0.628   0.740   1.270
 6990TIP3    H220935   0.540   0.798   1.378
 6991TIP3   OH220936   0.468   2.197   5.586
 6991TIP3    H120937   0.541   2.216   5.645
 6991TIP3    H220938   0.497   2.229   5.501
 6992TIP3   OH220939   4.091   6.484   4.694
 6992TIP3    H120940   4.152   6.447   4.630
 6992TIP3    H220941   4.147   6.526   4.760
 6993TIP3   OH220942   4.528   6.825   0.348
 6993TIP3    H120943   4.513   6.871   0.266
 6993TIP3    H220944   4.518   6.732   0.326
 6994TIP3   OH220945   3.880   0.808   3.436
 6994TIP3    H120946   3.808   0.764   3.390
 6994TIP3    H220947   3.907   0.879   3.378
 6995TIP3   OH220948   7.172   4.728   2.333
 6995TIP3    H120949   7.158   4.791   2.404
 6995TIP3    H220950   7.085   4.714   2.296
 6996TIP3   OH220951   1.302   6.237   4.884
 6996TIP3    H120952   1.244   6.172   4.845
 6996TIP3    H220953   1.261   6.321   4.862
 6997TIP3   OH220954   4.956   5.591   4.650
 6997TIP3    H120955   5.022   5.559   4.712
 6997TIP3    H220956   4.933   5.514   4.598
 6998TIP3   OH220957   1.727   2.063   1.363
 6998TIP3    H120958   1.800   2.105   1.318
 6998TIP3    H220959   1.667   2.038   1.293
 6999TIP3   OH220960   2.165   5.913   1.630
 6999TIP3    H120961   2.173   5.933   1.537
 6999TIP3    H220962   2.225   5.974   1.673
 7000TIP3   OH220963   1.143   4.992   3.716
 7000TIP3    H120964   1.066   4.978   3.661
 7000TIP3    H220965   1.217   4.980   3.657
 7001TIP3   OH220966   1.226   4.475   1.488
 7001TIP3    H120967   1.258   4.420   1.560
 7001TIP3    H220968   1.285   4.551   1.488
 7002TIP3   OH220969   1.194   4.072   4.897
 7002TIP3    H120970   1.108   4.086   4.936
 7002TIP3    H220971   1.251   4.051   4.970
 7003TIP3   OH220972   6.335   3.949   4.530
 7003TIP3    H120973   6.422   3.929   4.565
 7003TIP3    H220974   6.287   3.866   4.540
 7004TIP3   OH220975   0.658   5.053   1.662
 7004TIP3    H120976   0.610   4.997   1.724
 7004TIP3    H220977   0.724   4.995   1.625
 7005TIP3   OH220978   6.794   2.544   0.359
 7005TIP3    H120979   6.842   2.625   0.372
 7005TIP3    H220980   6.735   2.563   0.286
 7006TIP3   OH220981   1.715   5.432   3.311
 7006TIP3    H120982   1.810   5.432   3.297
 7006TIP3    H220983   1.705   5.431   3.406
 7007TIP3   OH220984   6.011   1.700   3.378
 7007TIP3    H120985   6.006   1.604   3.383
 7007TIP3    H220986   6.071   1.724   3.448
 7008TIP3   OH220987   6.113   0.821   5.232
 7008TIP3    H120988   6.171   0.802   5.158
 7008TIP3    H220989   6.158   0.786   5.308
 7009TIP3   OH220990   6.559   3.768   1.489
 7009TIP3    H120991   6.645   3.754   1.529
 7009TIP3    H220992   6.497   3.737   1.555
 7010TIP3   OH220993   0.879   6.610   0.330
 7010TIP3    H120994   0.894   6.605   0.424
 7010TIP3    H220995   0.956   6.655   0.295
 7011TIP3   OH220996   4.445   4.050   2.869
 7011TIP3    H120997   4.448   4.122   2.805
 7011TIP3    H220998   4.356   4.052   2.904
 7012TIP3   OH220999   4.772   1.680   3.378
 7012TIP3    H121000   4.738   1.676   3.467
 7012TIP3    H221001   4.695   1.665   3.322
 7013TIP3   OH221002   4.532   3.946   3.228
 7013TIP3    H121003   4.604   3.897   3.267
 7013TIP3    H221004   4.573   4.024   3.191
 7014TIP3   OH221005   4.711   4.787   0.693
 7014TIP3    H121006   4.673   4.777   0.780
 7014TIP3    H221007   4.654   4.849   0.649
 7015TIP3   OH221008   2.643   0.101   3.224
 7015TIP3    H121009   2.637   0.013   3.260
 7015TIP3    H221010   2.652   0.158   3.301
 7016TIP3   OH221011   5.179   1.065   3.627
 7016TIP3    H121012   5.207   1.019   3.547
 7016TIP3    H221013   5.237   1.031   3.695
 7017TIP3   OH221014   3.869   1.539   1.472
 7017TIP3    H121015   3.833   1.596   1.540
 7017TIP3    H221016   3.913   1.469   1.519
 7018TIP3   OH221017   2.014   0.048   2.105
 7018TIP3    H121018   2.110   0.046   2.110
 7018TIP3    H221019   1.996   0.093   2.022
 7019TIP3   OH221020   6.719   3.776   2.413
 7019TIP3    H121021   6.657   3.821   2.470
 7019TIP3    H221022   6.805   3.793   2.453
 7020TIP3   OH221023   5.439   4.975   2.478
 7020TIP3    H121024   5.473   5.005   2.563
 7020TIP3    H221025   5.345   4.993   2.482
 7021TIP3   OH221026   4.168  -0.014   2.290
 7021TIP3    H121027   4.075   0.004   2.294
 7021TIP3    H221028   4.210   0.065   2.324
 7022TIP3   OH221029   5.319   5.692   4.541
 7022TIP3    H121030   5.270   5.742   4.606
 7022TIP3    H221031   5.344   5.612   4.586
 7023TIP3   OH221032   5.402   5.070   0.211
 7023TIP3    H121033   5.361   5.112   0.287
 7023TIP3    H221034   5.487   5.113   0.202
 7024TIP3   OH221035   3.232   6.407   2.455
 7024TIP3    H121036   3.311   6.357   2.477
 7024TIP3    H221037   3.259   6.499   2.461
 7025TIP3   OH221038   6.521   0.461   2.426
 7025TIP3    H121039   6.479   0.543   2.402
 7025TIP3    H221040   6.603   0.460   2.376
 7026TIP3   OH221041   4.275   2.448   5.879
 7026TIP3    H121042   4.221   2.384   5.926
 7026TIP3    H221043   4.299   2.513   5.945
 7027TIP3   OH221044   0.581   5.235   2.281
 7027TIP3    H121045   0.586   5.140   2.289
 7027TIP3    H221046   0.649   5.256   2.216
 7028TIP3   OH221047   1.629   6.760   5.627
 7028TIP3    H121048   1.594   6.672   5.638
 7028TIP3    H221049   1.681   6.756   5.547
 7029TIP3   OH221050   0.090   5.883   1.709
 7029TIP3    H121051   0.175   5.923   1.692
 7029TIP3    H221052   0.096   5.795   1.670
 7030TIP3   OH221053   1.777   0.507   1.792
 7030TIP3    H121054   1.707   0.554   1.747
 7030TIP3    H221055   1.857   0.539   1.751
 7031TIP3   OH221056   2.189   0.397   4.968
 7031TIP3    H121057   2.255   0.328   4.961
 7031TIP3    H221058   2.171   0.423   4.878
 7032TIP3   OH221059   6.025   3.756   0.582
 7032TIP3    H121060   6.105   3.772   0.532
 7032TIP3    H221061   5.980   3.840   0.584
 7033TIP3   OH221062   0.283   6.174   1.876
 7033TIP3    H121063   0.192   6.148   1.890
 7033TIP3    H221064   0.281   6.230   1.798
 7034TIP3   OH221065   3.015   6.686   2.471
 7034TIP3    H121066   3.104   6.673   2.505
 7034TIP3    H221067   2.959   6.684   2.548
 7035TIP3   OH221068   2.522   1.306   5.336
 7035TIP3    H121069   2.448   1.277   5.390
 7035TIP3    H221070   2.558   1.225   5.300
 7036TIP3   OH221071   3.875   6.690   4.748
 7036TIP3    H121072   3.804   6.718   4.690
 7036TIP3    H221073   3.950   6.678   4.690
 7037TIP3   OH221074   6.979   5.118   3.351
 7037TIP3    H121075   6.969   5.023   3.343
 7037TIP3    H221076   7.060   5.129   3.399
 7038TIP3   OH221077   5.252   0.518   1.072
 7038TIP3    H121078   5.322   0.559   1.022
 7038TIP3    H221079   5.187   0.493   1.007
 7039TIP3   OH221080   4.054   4.478   3.071
 7039TIP3    H121081   4.067   4.432   2.989
 7039TIP3    H221082   3.959   4.492   3.076
 7040TIP3   OH221083   1.588   4.332   5.167
 7040TIP3    H121084   1.626   4.257   5.122
 7040TIP3    H221085   1.523   4.366   5.106
 7041TIP3   OH221086   6.521   5.890   3.307
 7041TIP3    H121087   6.541   5.957   3.372
 7041TIP3    H221088   6.429   5.867   3.324
 7042TIP3   OH221089   5.444   5.889   5.056
 7042TIP3    H121090   5.536   5.889   5.081
 7042TIP3    H221091   5.400   5.930   5.130
 7043TIP3   OH221092   0.708   1.339   3.670
 7043TIP3    H121093   0.633   1.342   3.730
 7043TIP3    H221094   0.783   1.326   3.727
 7044TIP3   OH221095   5.877   5.222   2.728
 7044TIP3    H121096   5.961   5.255   2.758
 7044TIP3    H221097   5.841   5.293   2.675
 7045TIP3   OH221098   0.836   0.207   2.898
 7045TIP3    H121099   0.777   0.139   2.930
 7045TIP3    H221100   0.820   0.281   2.956
 7046TIP3   OH221101   5.416   3.128   4.283
 7046TIP3    H121102   5.446   3.173   4.204
 7046TIP3    H221103   5.341   3.179   4.313
 7047TIP3   OH221104   3.634   1.579   2.075
 7047TIP3    H121105   3.651   1.607   2.165
 7047TIP3    H221106   3.546   1.542   2.078
 7048TIP3   OH221107   4.963   3.460   1.888
 7048TIP3    H121108   4.984   3.469   1.795
 7048TIP3    H221109   4.970   3.549   1.922
 7049TIP3   OH221110   3.437   6.362   0.700
 7049TIP3    H121111   3.526   6.394   0.711
 7049TIP3    H221112   3.388   6.403   0.772
 7050TIP3   OH221113   1.281   6.316   1.232
 7050TIP3    H121114   1.239   6.262   1.165
 7050TIP3    H221115   1.212   6.376   1.261
 7051TIP3   OH221116   3.981   3.339   5.255
 7051TIP3    H121117   3.900   3.289   5.266
 7051TIP3    H221118   3.969   3.386   5.173
 7052TIP3   OH221119   0.663   4.248   1.612
 7052TIP3    H121120   0.752   4.215   1.624
 7052TIP3    H221121   0.633   4.266   1.701
 7053TIP3   OH221122   4.454   6.051   2.356
 7053TIP3    H121123   4.490   6.131   2.394
 7053TIP3    H221124   4.384   6.082   2.298
 7054TIP3   OH221125   6.916   6.564   4.263
 7054TIP3    H121126   6.959   6.650   4.257
 7054TIP3    H221127   6.833   6.576   4.218
 7055TIP3   OH221128   6.664   0.199   4.483
 7055TIP3    H121129   6.613   0.179   4.404
 7055TIP3    H221130   6.716   0.275   4.459
 7056TIP3   OH221131   1.374   0.841   4.716
 7056TIP3    H121132   1.468   0.831   4.700
 7056TIP3    H221133   1.365   0.837   4.811
 7057TIP3   OH221134   0.971   6.731   2.893
 7057TIP3    H121135   0.999   6.818   2.922
 7057TIP3    H221136   1.042   6.701   2.836
 7058TIP3   OH221137   1.470   5.362   5.896
 7058TIP3    H121138   1.556   5.349   5.856
 7058TIP3    H221139   1.436   5.442   5.856
 7059TIP3   OH221140   2.741   6.746   0.074
 7059TIP3    H121141   2.779   6.794   0.000
 7059TIP3    H221142   2.669   6.801   0.104
 7060TIP3   OH221143   6.139   0.920   2.762
 7060TIP3    H121144   6.087   0.905   2.841
 7060TIP3    H221145   6.124   1.012   2.740
 7061TIP3   OH221146   1.024   5.338   1.965
 7061TIP3    H121147   1.018   5.361   1.873
 7061TIP3    H221148   1.050   5.419   2.009
 7062TIP3   OH221149   6.597   4.878   4.194
 7062TIP3    H121150   6.681   4.900   4.232
 7062TIP3    H221151   6.556   4.820   4.258
 7063TIP3   OH221152   1.756   2.250   2.607
 7063TIP3    H121153   1.842   2.211   2.590
 7063TIP3    H221154   1.717   2.259   2.521
 7064TIP3   OH221155   1.560   6.493   5.695
 7064TIP3    H121156   1.550   6.476   5.789
 7064TIP3    H221157   1.495   6.436   5.654
 7065TIP3   OH221158   5.867   1.359   5.197
 7065TIP3    H121159   5.889   1.323   5.111
 7065TIP3    H221160   5.771   1.359   5.199
 7066TIP3   OH221161   5.936   4.843   5.495
 7066TIP3    H121162   6.026   4.846   5.526
 7066TIP3    H221163   5.908   4.935   5.493
 7067TIP3   OH221164   4.919   0.581   4.131
 7067TIP3    H121165   4.824   0.571   4.136
 7067TIP3    H221166   4.942   0.543   4.046
 7068TIP3   OH221167   2.725   6.437   3.228
 7068TIP3    H121168   2.691   6.386   3.302
 7068TIP3    H221169   2.730   6.526   3.262
 7069TIP3   OH221170   1.492   4.475   3.510
 7069TIP3    H121171   1.570   4.427   3.537
 7069TIP3    H221172   1.441   4.485   3.590
 7070TIP3   OH221173   3.668   5.612   0.332
 7070TIP3    H121174   3.730   5.557   0.380
 7070TIP3    H221175   3.583   5.593   0.371
 7071TIP3   OH221176   6.351   4.420   4.143
 7071TIP3    H121177   6.275   4.363   4.155
 7071TIP3    H221178   6.384   4.398   4.056
 7072TIP3   OH221179   4.140   6.358   5.031
 7072TIP3    H121180   4.136   6.284   5.092
 7072TIP3    H221181   4.068   6.415   5.057
 7073TIP3   OH221182   3.388   5.087   1.373
 7073TIP3    H121183   3.304   5.043   1.380
 7073TIP3    H221184   3.367   5.172   1.334
 7074TIP3   OH221185   6.067   5.261   0.530
 7074TIP3    H121186   6.150   5.297   0.562
 7074TIP3    H221187   6.092   5.183   0.480
 7075TIP3   OH221188   0.117   4.001   0.234
 7075TIP3    H121189   0.060   3.974   0.162
 7075TIP3    H221190   0.196   4.032   0.191
 7076TIP3   OH221191   3.193   4.164   4.818
 7076TIP3    H121192   3.228   4.134   4.902
 7076TIP3    H221193   3.099   4.147   4.824
 7077TIP3   OH221194   1.947   5.285   4.113
 7077TIP3    H121195   1.955   5.380   4.101
 7077TIP3    H221196   2.029   5.250   4.077
 7078TIP3   OH221197   4.378   4.447   3.921
 7078TIP3    H121198   4.298   4.448   3.869
 7078TIP3    H221199   4.423   4.366   3.895
 7079TIP3   OH221200   4.971   6.018   4.490
 7079TIP3    H121201   4.997   5.939   4.442
 7079TIP3    H221202   5.054   6.056   4.520
 7080TIP3   OH221203   4.263   1.115   5.647
 7080TIP3    H121204   4.212   1.193   5.623
 7080TIP3    H221205   4.212   1.074   5.717
 7081TIP3   OH221206   4.374   0.546   3.269
 7081TIP3    H121207   4.317   0.598   3.213
 7081TIP3    H221208   4.391   0.602   3.345
 7082TIP3   OH221209   3.078   1.047   4.137
 7082TIP3    H121210   3.108   1.135   4.114
 7082TIP3    H221211   3.047   1.010   4.054
 7083TIP3   OH221212   4.389   5.958   5.615
 7083TIP3    H121213   4.388   5.915   5.700
 7083TIP3    H221214   4.313   5.922   5.569
 7084TIP3   OH221215   0.885   3.559   1.522
 7084TIP3    H121216   0.967   3.568   1.570
 7084TIP3    H221217   0.895   3.615   1.445
 7085TIP3   OH221218   6.249   4.461   4.600
 7085TIP3    H121219   6.280   4.551   4.586
 7085TIP3    H221220   6.327   4.406   4.589
 7086TIP3   OH221221   1.140   6.527   0.932
 7086TIP3    H121222   1.117   6.453   0.876
 7086TIP3    H221223   1.235   6.527   0.935
 7087TIP3   OH221224   1.812   5.481   1.553
 7087TIP3    H121225   1.895   5.439   1.574
 7087TIP3    H221226   1.754   5.459   1.626
 7088TIP3   OH221227   5.311   5.170   4.649
 7088TIP3    H121228   5.245   5.203   4.587
 7088TIP3    H221229   5.264   5.105   4.701
 7089TIP3   OH221230   0.243   1.202   1.690
 7089TIP3    H121231   0.205   1.117   1.710
 7089TIP3    H221232   0.287   1.189   1.606
 7090TIP3   OH221233   0.295   1.205   5.259
 7090TIP3    H121234   0.267   1.293   5.234
 7090TIP3    H221235   0.249   1.189   5.342
 7091TIP3   OH221236   6.535   2.789   3.110
 7091TIP3    H121237   6.542   2.757   3.020
 7091TIP3    H221238   6.624   2.813   3.134
 7092TIP3   OH221239   2.162   4.130   4.705
 7092TIP3    H121240   2.256   4.138   4.722
 7092TIP3    H221241   2.121   4.142   4.791
 7093TIP3   OH221242   0.601   0.781   0.655
 7093TIP3    H121243   0.510   0.803   0.671
 7093TIP3    H221244   0.647   0.866   0.657
 7094TIP3   OH221245   5.835   2.351   5.781
 7094TIP3    H121246   5.883   2.307   5.712
 7094TIP3    H221247   5.886   2.430   5.800
 7095TIP3   OH221248   6.220   0.721   5.495
 7095TIP3    H121249   6.173   0.640   5.514
 7095TIP3    H221250   6.266   0.742   5.577
 7096TIP3   OH221251   1.659   5.951   5.437
 7096TIP3    H121252   1.607   6.019   5.481
 7096TIP3    H221253   1.616   5.940   5.352
 7097TIP3   OH221254   5.101   5.716   2.086
 7097TIP3    H121255   5.054   5.797   2.067
 7097TIP3    H221256   5.123   5.721   2.178
 7098TIP3   OH221257   6.925  -0.004   4.707
 7098TIP3    H121258   6.871   0.008   4.785
 7098TIP3    H221259   6.923   0.081   4.663
 7099TIP3   OH221260   5.200   6.796   5.796
 7099TIP3    H121261   5.133   6.754   5.852
 7099TIP3    H221262   5.235   6.866   5.850
 7100TIP3   OH221263   5.556   0.658   0.757
 7100TIP3    H121264   5.564   0.636   0.849
 7100TIP3    H221265   5.512   0.743   0.756
 7101TIP3   OH221266   5.016   3.553   3.778
 7101TIP3    H121267   5.045   3.467   3.749
 7101TIP3    H221268   4.937   3.537   3.829
 7102TIP3   OH221269   4.739   0.636   2.177
 7102TIP3    H121270   4.739   0.624   2.082
 7102TIP3    H221271   4.716   0.729   2.190
 7103TIP3   OH221272   2.761   5.451   3.906
 7103TIP3    H121273   2.736   5.538   3.877
 7103TIP3    H221274   2.787   5.462   3.998
 7104TIP3   OH221275   2.916   3.984   0.897
 7104TIP3    H121276   2.972   4.009   0.823
 7104TIP3    H221277   2.917   4.061   0.954
 7105TIP3   OH221278   1.049   6.314   2.324
 7105TIP3    H121279   1.070   6.303   2.417
 7105TIP3    H221280   1.056   6.226   2.287
 7106TIP3   OH221281   6.835   2.084   0.516
 7106TIP3    H121282   6.744   2.056   0.505
 7106TIP3    H221283   6.846   2.152   0.449
 7107TIP3   OH221284   4.900   3.456   0.155
 7107TIP3    H121285   4.988   3.484   0.130
 7107TIP3    H221286   4.850   3.536   0.164
 7108TIP3   OH221287   3.918   0.016   3.063
 7108TIP3    H121288   3.926   0.111   3.054
 7108TIP3    H221289   3.824   0.000   3.056
 7109TIP3   OH221290   1.427   1.168   2.744
 7109TIP3    H121291   1.387   1.106   2.805
 7109TIP3    H221292   1.462   1.238   2.799
 7110TIP3   OH221293   6.353   5.172   2.365
 7110TIP3    H121294   6.352   5.227   2.287
 7110TIP3    H221295   6.270   5.191   2.409
 7111TIP3   OH221296   5.812   2.896   0.149
 7111TIP3    H121297   5.730   2.926   0.187
 7111TIP3    H221298   5.807   2.800   0.152
 7112TIP3   OH221299   4.196   2.115   3.926
 7112TIP3    H121300   4.266   2.055   3.902
 7112TIP3    H221301   4.227   2.201   3.898
 7113TIP3   OH221302   0.991   4.880   1.720
 7113TIP3    H121303   0.918   4.901   1.778
 7113TIP3    H221304   1.010   4.788   1.737
 7114TIP3   OH221305   3.698   6.335   1.698
 7114TIP3    H121306   3.694   6.430   1.699
 7114TIP3    H221307   3.768   6.315   1.636
 7115TIP3   OH221308   1.843   2.633   2.838
 7115TIP3    H121309   1.835   2.637   2.933
 7115TIP3    H221310   1.908   2.565   2.822
 7116TIP3   OH221311   6.710   4.916   3.448
 7116TIP3    H121312   6.790   4.909   3.396
 7116TIP3    H221313   6.719   4.847   3.515
 7117TIP3   OH221314   3.002   3.830   3.122
 7117TIP3    H121315   2.992   3.899   3.056
 7117TIP3    H221316   2.932   3.848   3.185
 7118TIP3   OH221317   3.258   1.823   5.066
 7118TIP3    H121318   3.246   1.735   5.029
 7118TIP3    H221319   3.289   1.808   5.155
 7119TIP3   OH221320   7.131   5.211   2.156
 7119TIP3    H121321   7.088   5.292   2.185
 7119TIP3    H221322   7.114   5.207   2.062
 7120TIP3   OH221323   3.349   6.401   0.120
 7120TIP3    H121324   3.290   6.463   0.161
 7120TIP3    H221325   3.411   6.377   0.189
 7121TIP3   OH221326   0.374   4.750   3.353
 7121TIP3    H121327   0.391   4.699   3.432
 7121TIP3    H221328   0.454   4.800   3.339
 7122TIP3   OH221329   2.881   2.143   1.263
 7122TIP3    H121330   2.953   2.183   1.311
 7122TIP3    H221331   2.872   2.197   1.184
 7123TIP3   OH221332   5.935   1.394   0.248
 7123TIP3    H121333   5.994   1.323   0.272
 7123TIP3    H221334   5.962   1.419   0.159
 7124TIP3   OH221335   2.103   2.428   4.553
 7124TIP3    H121336   2.088   2.334   4.561
 7124TIP3    H221337   2.188   2.435   4.510
 7125TIP3   OH221338   3.606   5.623   0.062
 7125TIP3    H121339   3.511   5.628   0.053
 7125TIP3    H221340   3.621   5.624   0.157
 7126TIP3   OH221341   4.485   0.557   4.850
 7126TIP3    H121342   4.573   0.582   4.880
 7126TIP3    H221343   4.468   0.475   4.896
 7127TIP3   OH221344   5.720   6.457   5.702
 7127TIP3    H121345   5.763   6.473   5.786
 7127TIP3    H221346   5.702   6.544   5.667
 7128TIP3   OH221347   3.026   1.855   3.669
 7128TIP3    H121348   3.121   1.861   3.661
 7128TIP3    H221349   3.012   1.788   3.735
 7129TIP3   OH221350   0.200   5.441   3.045
 7129TIP3    H121351   0.210   5.387   2.967
 7129TIP3    H221352   0.171   5.526   3.011
 7130TIP3   OH221353   1.723   1.056   3.625
 7130TIP3    H121354   1.663   1.130   3.634
 7130TIP3    H221355   1.748   1.033   3.714
 7131TIP3   OH221356   4.747   4.177   4.667
 7131TIP3    H121357   4.686   4.122   4.716
 7131TIP3    H221358   4.691   4.243   4.625
 7132TIP3   OH221359   3.018   4.853   2.666
 7132TIP3    H121360   3.046   4.831   2.755
 7132TIP3    H221361   2.930   4.815   2.660
 7133TIP3   OH221362   0.760   2.710   3.785
 7133TIP3    H121363   0.795   2.795   3.760
 7133TIP3    H221364   0.836   2.662   3.819
 7134TIP3   OH221365   5.520   3.577   3.607
 7134TIP3    H121366   5.495   3.485   3.596
 7134TIP3    H221367   5.437   3.624   3.612
 7135TIP3   OH221368   3.831   2.960   0.112
 7135TIP3    H121369   3.831   3.053   0.133
 7135TIP3    H221370   3.788   2.918   0.186
 7136TIP3   OH221371   3.888   5.984   3.538
 7136TIP3    H121372   3.899   5.997   3.444
 7136TIP3    H221373   3.851   6.067   3.569
 7137TIP3   OH221374   0.401   5.303   5.315
 7137TIP3    H121375   0.367   5.227   5.363
 7137TIP3    H221376   0.369   5.290   5.226
 7138TIP3   OH221377   0.601   0.202   3.206
 7138TIP3    H121378   0.639   0.286   3.231
 7138TIP3    H221379   0.551   0.221   3.126
 7139TIP3   OH221380   6.754   5.525   3.355
 7139TIP3    H121381   6.791   5.446   3.315
 7139TIP3    H221382   6.824   5.560   3.409
 7140TIP3   OH221383   6.378   2.196   5.026
 7140TIP3    H121384   6.409   2.128   4.967
 7140TIP3    H221385   6.421   2.276   4.995
 7141TIP3   OH221386   5.011   1.744   4.416
 7141TIP3    H121387   5.087   1.693   4.387
 7141TIP3    H221388   5.046   1.803   4.482
 7142TIP3   OH221389   2.959   5.186   1.623
 7142TIP3    H121390   2.909   5.172   1.543
 7142TIP3    H221391   2.896   5.172   1.694
 7143TIP3   OH221392   5.203   5.631   5.340
 7143TIP3    H121393   5.142   5.641   5.412
 7143TIP3    H221394   5.269   5.569   5.372
 7144TIP3   OH221395   5.771   6.242   0.247
 7144TIP3    H121396   5.701   6.285   0.296
 7144TIP3    H221397   5.802   6.309   0.186
 7145TIP3   OH221398   5.776   2.145   0.918
 7145TIP3    H121399   5.808   2.055   0.909
 7145TIP3    H221400   5.809   2.190   0.840
 7146TIP3   OH221401   5.035   4.178   0.701
 7146TIP3    H121402   5.040   4.203   0.793
 7146TIP3    H221403   5.114   4.127   0.686
 7147TIP3   OH221404   1.275   2.548   3.100
 7147TIP3    H121405   1.286   2.453   3.094
 7147TIP3    H221406   1.307   2.580   3.015
 7148TIP3   OH221407   2.244   3.727   5.230
 7148TIP3    H121408   2.178   3.674   5.274
 7148TIP3    H221409   2.196   3.768   5.158
 7149TIP3   OH221410   5.329   3.892   4.330
 7149TIP3    H121411   5.410   3.844   4.310
 7149TIP3    H221412   5.296   3.919   4.245
 7150TIP3   OH221413   0.918   4.685   4.029
 7150TIP3    H121414   0.899   4.736   4.108
 7150TIP3    H221415   1.008   4.710   4.006
 7151TIP3   OH221416   6.064   6.157   5.289
 7151TIP3    H121417   6.084   6.235   5.341
 7151TIP3    H221418   6.130   6.093   5.316
 7152TIP3   OH221419   0.366   3.871   4.808
 7152TIP3    H121420   0.414   3.815   4.869
 7152TIP3    H221421   0.398   3.959   4.828
 7153TIP3   OH221422   2.454   6.516   1.054
 7153TIP3    H121423   2.396   6.591   1.041
 7153TIP3    H221424   2.489   6.497   0.966
 7154TIP3   OH221425   7.125   0.400   2.513
 7154TIP3    H121426   7.157   0.440   2.432
 7154TIP3    H221427   7.118   0.306   2.493
 7155TIP3   OH221428   1.351   1.449   0.578
 7155TIP3    H121429   1.308   1.374   0.537
 7155TIP3    H221430   1.436   1.455   0.534
 7156TIP3   OH221431   2.966   5.157   1.044
 7156TIP3    H121432   2.964   5.145   0.950
 7156TIP3    H221433   2.929   5.244   1.058
 7157TIP3   OH221434   0.665   5.379   0.699
 7157TIP3    H121435   0.588   5.386   0.642
 7157TIP3    H221436   0.637   5.417   0.782
 7158TIP3   OH221437   5.204   6.120   1.823
 7158TIP3    H121438   5.292   6.091   1.847
 7158TIP3    H221439   5.146   6.056   1.865
 7159TIP3   OH221440   4.899   4.505   3.620
 7159TIP3    H121441   4.836   4.460   3.676
 7159TIP3    H221442   4.978   4.452   3.624
 7160TIP3   OH221443  -0.037   6.627   4.529
 7160TIP3    H121444   0.043   6.612   4.579
 7160TIP3    H221445  -0.028   6.571   4.452
 7161TIP3   OH221446   3.726   5.643   1.447
 7161TIP3    H121447   3.705   5.682   1.362
 7161TIP3    H221448   3.654   5.670   1.504
 7162TIP3   OH221449   2.377   0.101   3.100
 7162TIP3    H121450   2.354   0.015   3.138
 7162TIP3    H221451   2.462   0.121   3.139
 7163TIP3   OH221452   0.545   5.470   4.653
 7163TIP3    H121453   0.606   5.518   4.709
 7163TIP3    H221454   0.481   5.433   4.714
 7164TIP3   OH221455   2.410   0.336   2.855
 7164TIP3    H121456   2.490   0.285   2.871
 7164TIP3    H221457   2.379   0.306   2.769
 7165TIP3   OH221458   2.495   2.371   2.504
 7165TIP3    H121459   2.558   2.338   2.440
 7165TIP3    H221460   2.412   2.331   2.480
 7166TIP3   OH221461   4.598   5.437   0.244
 7166TIP3    H121462   4.586   5.410   0.334
 7166TIP3    H221463   4.510   5.453   0.211
 7167TIP3   OH221464   2.222   6.588   4.500
 7167TIP3    H121465   2.146   6.552   4.547
 7167TIP3    H221466   2.216   6.683   4.515
 7168TIP3   OH221467   3.077   1.164   4.512
 7168TIP3    H121468   3.075   1.258   4.494
 7168TIP3    H221469   3.091   1.124   4.426
 7169TIP3   OH221470   4.915   6.615   3.514
 7169TIP3    H121471   4.949   6.535   3.554
 7169TIP3    H221472   4.977   6.635   3.444
 7170TIP3   OH221473   2.827   0.117   2.423
 7170TIP3    H121474   2.839   0.128   2.517
 7170TIP3    H221475   2.834   0.206   2.388
 7171TIP3   OH221476   1.533   2.749   1.360
 7171TIP3    H121477   1.469   2.679   1.370
 7171TIP3    H221478   1.616   2.704   1.343
 7172TIP3   OH221479   2.192   6.203   3.591
 7172TIP3    H121480   2.206   6.195   3.685
 7172TIP3    H221481   2.189   6.113   3.559
 7173TIP3   OH221482   3.155   0.516   2.634
 7173TIP3    H121483   3.152   0.572   2.711
 7173TIP3    H221484   3.228   0.551   2.582
 7174TIP3   OH221485   6.908   4.069   2.601
 7174TIP3    H121486   6.897   3.978   2.627
 7174TIP3    H221487   6.831   4.088   2.548
 7175TIP3   OH221488   0.614   1.147   2.476
 7175TIP3    H121489   0.585   1.056   2.472
 7175TIP3    H221490   0.535   1.197   2.496
 7176TIP3   OH221491   2.727   1.546   3.638
 7176TIP3    H121492   2.739   1.638   3.613
 7176TIP3    H221493   2.656   1.548   3.702
 7177TIP3   OH221494   0.668   3.776   1.018
 7177TIP3    H121495   0.705   3.863   1.032
 7177TIP3    H221496   0.623   3.782   0.933
 7178TIP3   OH221497   6.364   0.680   2.871
 7178TIP3    H121498   6.426   0.623   2.825
 7178TIP3    H221499   6.414   0.760   2.889
 7179TIP3   OH221500   6.429   2.882   2.260
 7179TIP3    H121501   6.375   2.961   2.268
 7179TIP3    H221502   6.375   2.822   2.208
 7180TIP3   OH221503   0.135   0.976   0.977
 7180TIP3    H121504   0.105   0.908   1.038
 7180TIP3    H221505   0.169   1.045   1.034
 7181TIP3   OH221506   2.894   0.238   5.487
 7181TIP3    H121507   2.818   0.209   5.538
 7181TIP3    H221508   2.944   0.292   5.548
 7182TIP3   OH221509   7.032   4.701   4.432
 7182TIP3    H121510   7.126   4.715   4.441
 7182TIP3    H221511   7.007   4.756   4.358
 7183TIP3   OH221512   4.536   3.162   3.023
 7183TIP3    H121513   4.456   3.114   3.002
 7183TIP3    H221514   4.574   3.185   2.939
 7184TIP3   OH221515   0.972   2.154   5.331
 7184TIP3    H121516   0.988   2.066   5.364
 7184TIP3    H221517   0.921   2.196   5.400
 7185TIP3   OH221518   2.745   6.261   4.068
 7185TIP3    H121519   2.817   6.322   4.086
 7185TIP3    H221520   2.670   6.298   4.114
 7186TIP3   OH221521   3.899   5.052   3.240
 7186TIP3    H121522   3.927   4.961   3.227
 7186TIP3    H221523   3.833   5.067   3.173
 7187TIP3   OH221524   0.846   5.797   3.815
 7187TIP3    H121525   0.929   5.810   3.769
 7187TIP3    H221526   0.792   5.872   3.789
 7188TIP3   OH221527   2.893   4.469   5.758
 7188TIP3    H121528   2.871   4.445   5.668
 7188TIP3    H221529   2.870   4.392   5.810
 7189TIP3   OH221530   1.174   4.415   5.822
 7189TIP3    H121531   1.095   4.447   5.865
 7189TIP3    H221532   1.163   4.320   5.821
 7190TIP3   OH221533   0.508   5.377   3.587
 7190TIP3    H121534   0.454   5.298   3.577
 7190TIP3    H221535   0.476   5.418   3.668
 7191TIP3   OH221536   1.252   4.406   3.939
 7191TIP3    H121537   1.302   4.479   3.902
 7191TIP3    H221538   1.313   4.332   3.938
 7192TIP3   OH221539   3.504   2.799   1.053
 7192TIP3    H121540   3.433   2.758   1.104
 7192TIP3    H221541   3.478   2.891   1.047
 7193TIP3   OH221542   1.266   5.481   0.192
 7193TIP3    H121543   1.332   5.455   0.257
 7193TIP3    H221544   1.291   5.569   0.167
 7194TIP3   OH221545   2.589   2.223   3.901
 7194TIP3    H121546   2.516   2.167   3.925
 7194TIP3    H221547   2.646   2.222   3.978
 7195TIP3   OH221548   0.423   2.421   3.909
 7195TIP3    H121549   0.411   2.475   3.830
 7195TIP3    H221550   0.364   2.460   3.974
 7196TIP3   OH221551   5.678   1.227   3.024
 7196TIP3    H121552   5.712   1.306   2.982
 7196TIP3    H221553   5.594   1.211   2.981
 7197TIP3   OH221554   6.375   3.134   1.691
 7197TIP3    H121555   6.394   3.064   1.754
 7197TIP3    H221556   6.364   3.212   1.745
 7198TIP3   OH221557   6.539   0.445   4.343
 7198TIP3    H121558   6.520   0.472   4.253
 7198TIP3    H221559   6.610   0.504   4.371
 7199TIP3   OH221560   6.106   3.102   2.686
 7199TIP3    H121561   6.137   3.024   2.640
 7199TIP3    H221562   6.065   3.069   2.766
 7200TIP3   OH221563   0.810   4.435   4.730
 7200TIP3    H121564   0.786   4.343   4.743
 7200TIP3    H221565   0.830   4.467   4.818
 7201TIP3   OH221566   0.887   3.375   3.282
 7201TIP3    H121567   0.821   3.306   3.276
 7201TIP3    H221568   0.847   3.451   3.240
 7202TIP3   OH221569   5.594   5.466   0.124
 7202TIP3    H121570   5.606   5.431   0.212
 7202TIP3    H221571   5.504   5.443   0.101
 7203TIP3   OH221572   1.351   2.960   0.176
 7203TIP3    H121573   1.320   3.030   0.118
 7203TIP3    H221574   1.396   2.898   0.118
 7204TIP3   OH221575   6.226   3.293   0.080
 7204TIP3    H121576   6.157   3.249   0.031
 7204TIP3    H221577   6.286   3.325   0.013
 7205TIP3   OH221578   1.731   2.061   5.174
 7205TIP3    H121579   1.818   2.088   5.145
 7205TIP3    H221580   1.671   2.114   5.122
 7206TIP3   OH221581   2.143   2.349   0.588
 7206TIP3    H121582   2.056   2.356   0.627
 7206TIP3    H221583   2.146   2.262   0.548
 7207TIP3   OH221584   3.917   0.373   4.741
 7207TIP3    H121585   3.907   0.456   4.696
 7207TIP3    H221586   3.935   0.310   4.672
 7208TIP3   OH221587   1.595   1.214   2.174
 7208TIP3    H121588   1.605   1.274   2.101
 7208TIP3    H221589   1.629   1.131   2.141
 7209TIP3   OH221590   4.081   5.855   4.376
 7209TIP3    H121591   4.145   5.915   4.337
 7209TIP3    H221592   4.064   5.892   4.463
 7210TIP3   OH221593   1.179   1.287   1.867
 7210TIP3    H121594   1.188   1.314   1.959
 7210TIP3    H221595   1.212   1.361   1.817
 7211TIP3   OH221596   6.862   1.553   2.890
 7211TIP3    H121597   6.875   1.612   2.815
 7211TIP3    H221598   6.823   1.474   2.853
 7212TIP3   OH221599   0.621   6.736   3.141
 7212TIP3    H121600   0.670   6.815   3.121
 7212TIP3    H221601   0.566   6.761   3.216
 7213TIP3   OH221602   0.476   3.592   2.787
 7213TIP3    H121603   0.391   3.552   2.773
 7213TIP3    H221604   0.515   3.542   2.859
 7214TIP3   OH221605   5.091   4.108   5.284
 7214TIP3    H121606   5.068   4.118   5.191
 7214TIP3    H221607   5.155   4.177   5.300
 7215TIP3   OH221608   0.887   1.491   0.525
 7215TIP3    H121609   0.896   1.457   0.614
 7215TIP3    H221610   0.943   1.568   0.523
 7216TIP3   OH221611   6.856   6.113   5.037
 7216TIP3    H121612   6.806   6.035   5.060
 7216TIP3    H221613   6.857   6.165   5.118
 7217TIP3   OH221614   1.743   6.526   5.035
 7217TIP3    H121615   1.724   6.619   5.020
 7217TIP3    H221616   1.658   6.483   5.028
 7218TIP3   OH221617   2.600   4.439   5.847
 7218TIP3    H121618   2.640   4.479   5.770
 7218TIP3    H221619   2.669   4.387   5.887
 7219TIP3   OH221620   3.187   0.325   1.549
 7219TIP3    H121621   3.145   0.291   1.628
 7219TIP3    H221622   3.115   0.354   1.494
 7220TIP3   OH221623   3.672   1.535   4.549
 7220TIP3    H121624   3.626   1.511   4.469
 7220TIP3    H221625   3.626   1.613   4.581
 7221TIP3   OH221626   1.350   6.533   4.615
 7221TIP3    H121627   1.435   6.528   4.571
 7221TIP3    H221628   1.287   6.544   4.544
 7222TIP3   OH221629   0.796   4.715   4.310
 7222TIP3    H121630   0.840   4.799   4.318
 7222TIP3    H221631   0.708   4.737   4.277
 7223TIP3   OH221632   2.905   2.573   3.994
 7223TIP3    H121633   2.873   2.552   4.082
 7223TIP3    H221634   2.829   2.609   3.949
 7224TIP3   OH221635   0.343   0.094   0.170
 7224TIP3    H121636   0.422   0.046   0.196
 7224TIP3    H221637   0.357   0.183   0.203
 7225TIP3   OH221638   3.347   0.056   5.858
 7225TIP3    H121639   3.388   0.001   5.792
 7225TIP3    H221640   3.399   0.042   5.937
 7226TIP3   OH221641   0.646   3.637   3.836
 7226TIP3    H121642   0.672   3.722   3.872
 7226TIP3    H221643   0.729   3.590   3.825
 7227TIP3   OH221644   3.982   3.101   5.001
 7227TIP3    H121645   3.932   3.019   5.001
 7227TIP3    H221646   3.929   3.162   5.053
 7228TIP3   OH221647   5.619   0.570   4.555
 7228TIP3    H121648   5.626   0.543   4.463
 7228TIP3    H221649   5.563   0.503   4.595
 7229TIP3   OH221650   3.460   5.355   5.568
 7229TIP3    H121651   3.543   5.388   5.535
 7229TIP3    H221652   3.403   5.432   5.572
 7230TIP3   OH221653   4.306   5.980   4.281
 7230TIP3    H121654   4.309   5.891   4.245
 7230TIP3    H221655   4.392   5.993   4.321
 7231TIP3   OH221656   5.243   6.632   0.873
 7231TIP3    H121657   5.295   6.702   0.912
 7231TIP3    H221658   5.254   6.558   0.933
 7232TIP3   OH221659   0.047   4.256   3.203
 7232TIP3    H121660   0.130   4.303   3.207
 7232TIP3    H221661   0.019   4.264   3.112
 7233TIP3   OH221662   4.961   4.518   2.608
 7233TIP3    H121663   4.905   4.551   2.678
 7233TIP3    H221664   4.924   4.554   2.528
 7234TIP3   OH221665   0.410   0.708   4.182
 7234TIP3    H121666   0.378   0.683   4.095
 7234TIP3    H221667   0.407   0.803   4.182
 7235TIP3   OH221668   5.773   3.741   3.503
 7235TIP3    H121669   5.817   3.801   3.563
 7235TIP3    H221670   5.735   3.674   3.560
 7236TIP3   OH221671   1.073   2.076   0.406
 7236TIP3    H121672   1.102   2.120   0.486
 7236TIP3    H221673   0.977   2.079   0.410
 7237TIP3   OH221674   3.368   0.466   2.977
 7237TIP3    H121675   3.354   0.447   3.070
 7237TIP3    H221676   3.321   0.396   2.931
 7238TIP3   OH221677   0.535   0.055   0.921
 7238TIP3    H121678   0.546   0.135   0.974
 7238TIP3    H221679   0.469   0.079   0.856
 7239TIP3   OH221680   0.418   1.178   5.578
 7239TIP3    H121681   0.387   1.087   5.576
 7239TIP3    H221682   0.342   1.229   5.551
 7240TIP3   OH221683   4.267   0.312   5.086
 7240TIP3    H121684   4.314   0.392   5.110
 7240TIP3    H221685   4.321   0.272   5.018
 7241TIP3   OH221686   6.129   4.580   3.974
 7241TIP3    H121687   6.222   4.560   3.984
 7241TIP3    H221688   6.123   4.675   3.989
 7242TIP3   OH221689   4.535   5.437   1.332
 7242TIP3    H121690   4.587   5.496   1.277
 7242TIP3    H221691   4.515   5.362   1.277
 7243TIP3   OH221692   4.686   3.025   4.736
 7243TIP3    H121693   4.679   3.104   4.681
 7243TIP3    H221694   4.651   3.052   4.821
 7244TIP3   OH221695   4.183   3.652   5.581
 7244TIP3    H121696   4.139   3.569   5.559
 7244TIP3    H221697   4.154   3.671   5.670
 7245TIP3   OH221698   1.637   0.647   4.775
 7245TIP3    H121699   1.629   0.691   4.690
 7245TIP3    H221700   1.627   0.554   4.755
 7246TIP3   OH221701   7.179   1.033   3.169
 7246TIP3    H121702   7.135   0.970   3.227
 7246TIP3    H221703   7.242   1.078   3.227
 7247TIP3   OH221704   2.777   5.997   2.323
 7247TIP3    H121705   2.761   6.078   2.370
 7247TIP3    H221706   2.690   5.967   2.297
 7248TIP3   OH221707   1.875   6.409   3.090
 7248TIP3    H121708   1.789   6.450   3.102
 7248TIP3    H221709   1.856   6.327   3.045
 7249TIP3   OH221710   5.250   0.911   1.059
 7249TIP3    H121711   5.190   0.926   0.986
 7249TIP3    H221712   5.337   0.911   1.019
 7250TIP3   OH221713   1.038   0.197   2.359
 7250TIP3    H121714   0.981   0.221   2.287
 7250TIP3    H221715   1.080   0.279   2.385
 7251TIP3   OH221716   1.357   4.885   3.578
 7251TIP3    H121717   1.358   4.847   3.490
 7251TIP3    H221718   1.434   4.848   3.621
 7252TIP3   OH221719   5.799   2.571   3.660
 7252TIP3    H121720   5.780   2.502   3.597
 7252TIP3    H221721   5.750   2.647   3.628
 7253TIP3   OH221722   6.004   3.857   5.190
 7253TIP3    H121723   6.019   3.944   5.227
 7253TIP3    H221724   6.061   3.855   5.113
 7254TIP3   OH221725   2.094   6.829   0.741
 7254TIP3    H121726   2.008   6.798   0.768
 7254TIP3    H221727   2.135   6.752   0.699
 7255TIP3   OH221728   2.341   4.641   1.839
 7255TIP3    H121729   2.377   4.622   1.752
 7255TIP3    H221730   2.342   4.736   1.845
 7256TIP3   OH221731   2.178   3.045   2.127
 7256TIP3    H121732   2.259   3.068   2.080
 7256TIP3    H221733   2.201   3.053   2.219
 7257TIP3   OH221734   2.541   0.230   5.664
 7257TIP3    H121735   2.580   0.212   5.749
 7257TIP3    H221736   2.453   0.262   5.684
 7258TIP3   OH221737   3.219   4.519   0.658
 7258TIP3    H121738   3.148   4.570   0.620
 7258TIP3    H221739   3.296   4.575   0.652
 7259TIP3   OH221740   1.594   3.412   5.523
 7259TIP3    H121741   1.666   3.432   5.464
 7259TIP3    H221742   1.595   3.316   5.531
 7260TIP3   OH221743   1.134   5.408   1.082
 7260TIP3    H121744   1.110   5.332   1.029
 7260TIP3    H221745   1.078   5.479   1.051
 7261TIP3   OH221746   3.871   1.049   1.181
 7261TIP3    H121747   3.860   1.006   1.266
 7261TIP3    H221748   3.888   1.141   1.203
 7262TIP3   OH221749   4.105   2.898   5.508
 7262TIP3    H121750   4.122   2.952   5.585
 7262TIP3    H221751   4.044   2.830   5.539
 7263TIP3   OH221752   5.653   0.366   5.601
 7263TIP3    H121753   5.721   0.415   5.648
 7263TIP3    H221754   5.695   0.284   5.578
 7264TIP3   OH221755   0.169   3.095   0.127
 7264TIP3    H121756   0.131   3.091   0.215
 7264TIP3    H221757   0.227   3.019   0.122
 7265TIP3   OH221758   2.634   3.563   4.515
 7265TIP3    H121759   2.578   3.608   4.579
 7265TIP3    H221760   2.586   3.483   4.495
 7266TIP3   OH221761   3.248   1.529   3.742
 7266TIP3    H121762   3.332   1.569   3.764
 7266TIP3    H221763   3.261   1.436   3.757
 7267TIP3   OH221764   4.491   6.413   3.978
 7267TIP3    H121765   4.415   6.368   3.940
 7267TIP3    H221766   4.563   6.391   3.918
 7268TIP3   OH221767   1.565   1.306   5.333
 7268TIP3    H121768   1.622   1.316   5.257
 7268TIP3    H221769   1.576   1.215   5.360
 7269TIP3   OH221770   1.464   3.613   0.266
 7269TIP3    H121771   1.483   3.528   0.307
 7269TIP3    H221772   1.547   3.640   0.228
 7270TIP3   OH221773   4.639   1.369   4.659
 7270TIP3    H121774   4.564   1.330   4.615
 7270TIP3    H221775   4.698   1.395   4.588
 7271TIP3   OH221776   0.607   6.476   5.084
 7271TIP3    H121777   0.657   6.544   5.130
 7271TIP3    H221778   0.568   6.520   5.009
 7272TIP3   OH221779   5.333   5.004   1.809
 7272TIP3    H121780   5.305   4.913   1.805
 7272TIP3    H221781   5.424   5.000   1.837
 7273TIP3   OH221782   2.497   0.276   0.685
 7273TIP3    H121783   2.455   0.349   0.730
 7273TIP3    H221784   2.590   0.288   0.700
 7274TIP3   OH221785   5.795   0.077   3.008
 7274TIP3    H121786   5.854   0.148   2.983
 7274TIP3    H221787   5.712   0.120   3.027
 7275TIP3   OH221788   2.672   0.778   4.246
 7275TIP3    H121789   2.720   0.697   4.268
 7275TIP3    H221790   2.734   0.848   4.265
 7276TIP3   OH221791   3.743   1.459   2.534
 7276TIP3    H121792   3.759   1.370   2.502
 7276TIP3    H221793   3.699   1.447   2.618
 7277TIP3   OH221794   0.705   4.544   1.643
 7277TIP3    H121795   0.625   4.495   1.625
 7277TIP3    H221796   0.758   4.484   1.696
 7278TIP3   OH221797   1.672   1.044   5.819
 7278TIP3    H121798   1.753   0.999   5.796
 7278TIP3    H221799   1.650   1.096   5.742
 7279TIP3   OH221800   2.996   1.615   3.839
 7279TIP3    H121801   3.090   1.599   3.831
 7279TIP3    H221802   2.969   1.563   3.915
 7280TIP3   OH221803   5.984   5.814   4.394
 7280TIP3    H121804   5.962   5.905   4.375
 7280TIP3    H221805   6.080   5.810   4.384
 7281TIP3   OH221806   0.389   5.800   2.000
 7281TIP3    H121807   0.295   5.802   2.018
 7281TIP3    H221808   0.424   5.731   2.057
 7282TIP3   OH221809   3.541   3.137   4.486
 7282TIP3    H121810   3.560   3.046   4.462
 7282TIP3    H221811   3.581   3.189   4.417
 7283TIP3   OH221812   6.988   3.302   2.612
 7283TIP3    H121813   7.000   3.214   2.576
 7283TIP3    H221814   7.070   3.320   2.658
 7284TIP3   OH221815   6.297   3.318   5.587
 7284TIP3    H121816   6.210   3.354   5.569
 7284TIP3    H221817   6.334   3.375   5.654
 7285TIP3   OH221818   6.822   3.709   1.560
 7285TIP3    H121819   6.815   3.647   1.633
 7285TIP3    H221820   6.864   3.786   1.598
 7286TIP3   OH221821   2.943   1.092   5.417
 7286TIP3    H121822   2.926   1.000   5.400
 7286TIP3    H221823   2.880   1.116   5.485
 7287TIP3   OH221824   0.123   6.344   3.614
 7287TIP3    H121825   0.096   6.436   3.618
 7287TIP3    H221826   0.071   6.307   3.544
 7288TIP3   OH221827   1.938   1.932   1.696
 7288TIP3    H121828   1.945   1.874   1.621
 7288TIP3    H221829   1.942   1.874   1.772
 7289TIP3   OH221830   2.865   6.131   5.172
 7289TIP3    H121831   2.881   6.037   5.165
 7289TIP3    H221832   2.770   6.140   5.181
 7290TIP3   OH221833   4.868   4.285   2.889
 7290TIP3    H121834   4.816   4.326   2.819
 7290TIP3    H221835   4.942   4.244   2.843
 7291TIP3   OH221836   6.868   4.134   0.040
 7291TIP3    H121837   6.840   4.226   0.045
 7291TIP3    H221838   6.937   4.126   0.106
 7292TIP3   OH221839   4.350   0.082   1.547
 7292TIP3    H121840   4.389   0.154   1.498
 7292TIP3    H221841   4.368   0.104   1.639
 7293TIP3   OH221842   5.355   3.805   1.691
 7293TIP3    H121843   5.282   3.848   1.648
 7293TIP3    H221844   5.386   3.740   1.628
 7294TIP3   OH221845   3.370   0.087   3.615
 7294TIP3    H121846   3.329   0.155   3.562
 7294TIP3    H221847   3.400   0.132   3.694
 7295TIP3   OH221848   1.961   3.750   0.287
 7295TIP3    H121849   2.027   3.726   0.222
 7295TIP3    H221850   1.926   3.834   0.256
 7296TIP3   OH221851   2.667   1.545   5.388
 7296TIP3    H121852   2.593   1.565   5.446
 7296TIP3    H221853   2.652   1.455   5.361
 7297TIP3   OH221854   6.964   0.513   5.686
 7297TIP3    H121855   6.992   0.510   5.778
 7297TIP3    H221856   6.957   0.422   5.660
 7298TIP3   OH221857   0.392   0.929   4.436
 7298TIP3    H121858   0.456   0.860   4.453
 7298TIP3    H221859   0.406   0.992   4.507
 7299TIP3   OH221860   3.689   3.689   0.249
 7299TIP3    H121861   3.719   3.757   0.189
 7299TIP3    H221862   3.743   3.613   0.229
 7300TIP3   OH221863   5.468   4.038   4.730
 7300TIP3    H121864   5.395   4.010   4.676
 7300TIP3    H221865   5.441   4.124   4.763
 7301TIP3   OH221866   3.786   1.339   2.155
 7301TIP3    H121867   3.770   1.427   2.190
 7301TIP3    H221868   3.869   1.312   2.195
 7302TIP3   OH221869   1.096   0.787   0.870
 7302TIP3    H121870   1.069   0.757   0.957
 7302TIP3    H221871   1.026   0.759   0.812
 7303TIP3   OH221872   7.074   5.033   2.363
 7303TIP3    H121873   6.985   5.001   2.379
 7303TIP3    H221874   7.069   5.075   2.278
 7304TIP3   OH221875   4.870   3.188   1.883
 7304TIP3    H121876   4.937   3.255   1.868
 7304TIP3    H221877   4.873   3.134   1.804
 7305TIP3   OH221878   7.041   0.067   0.902
 7305TIP3    H121879   6.979   0.026   0.842
 7305TIP3    H221880   7.088   0.130   0.847
 7306TIP3   OH221881   4.803   2.509   2.649
 7306TIP3    H121882   4.776   2.497   2.558
 7306TIP3    H221883   4.824   2.602   2.656
 7307TIP3   OH221884   5.381   2.637   1.977
 7307TIP3    H121885   5.441   2.642   2.052
 7307TIP3    H221886   5.302   2.680   2.008
 7308TIP3   OH221887   4.977   5.409   3.586
 7308TIP3    H121888   4.931   5.494   3.589
 7308TIP3    H221889   4.907   5.345   3.575
 7309TIP3   OH221890   5.861   1.183   4.987
 7309TIP3    H121891   5.834   1.136   4.908
 7309TIP3    H221892   5.894   1.115   5.046
 7310TIP3   OH221893   5.870   1.535   5.664
 7310TIP3    H121894   5.806   1.494   5.606
 7310TIP3    H221895   5.818   1.595   5.718
 7311TIP3   OH221896   1.113   5.922   1.249
 7311TIP3    H121897   1.200   5.899   1.217
 7311TIP3    H221898   1.129   5.960   1.336
 7312TIP3   OH221899   1.254   1.588   3.293
 7312TIP3    H121900   1.265   1.681   3.316
 7312TIP3    H221901   1.160   1.573   3.302
 7313TIP3   OH221902   2.529   0.804   3.526
 7313TIP3    H121903   2.598   0.851   3.572
 7313TIP3    H221904   2.459   0.870   3.515
 7314TIP3   OH221905   4.452   4.377   0.137
 7314TIP3    H121906   4.466   4.458   0.088
 7314TIP3    H221907   4.430   4.405   0.225
 7315TIP3   OH221908   0.339   5.796   4.947
 7315TIP3    H121909   0.327   5.779   5.041
 7315TIP3    H221910   0.433   5.812   4.938
 7316TIP3   OH221911   6.927   6.475   1.810
 7316TIP3    H121912   6.871   6.506   1.880
 7316TIP3    H221913   6.882   6.398   1.776
 7317TIP3   OH221914   2.120   1.322   0.507
 7317TIP3    H121915   2.159   1.386   0.567
 7317TIP3    H221916   2.112   1.370   0.424
 7318TIP3   OH221917   2.923   5.112   0.773
 7318TIP3    H121918   2.842   5.146   0.809
 7318TIP3    H221919   2.931   5.154   0.687
 7319TIP3   OH221920   6.331   4.820   3.957
 7319TIP3    H121921   6.426   4.832   3.944
 7319TIP3    H221922   6.324   4.790   4.048
 7320TIP3   OH221923   5.090   0.941   4.841
 7320TIP3    H121924   5.008   0.897   4.820
 7320TIP3    H221925   5.129   0.963   4.756
 7321TIP3   OH221926   4.261   1.957   1.059
 7321TIP3    H121927   4.213   1.898   1.001
 7321TIP3    H221928   4.207   1.962   1.138
 7322TIP3   OH221929   4.356   2.407   3.527
 7322TIP3    H121930   4.269   2.401   3.487
 7322TIP3    H221931   4.362   2.330   3.584
 7323TIP3   OH221932   6.580   5.988   0.862
 7323TIP3    H121933   6.650   6.053   0.866
 7323TIP3    H221934   6.623   5.905   0.885
 7324TIP3   OH221935   6.034   3.005   1.708
 7324TIP3    H121936   6.067   3.027   1.621
 7324TIP3    H221937   5.974   3.076   1.729
 7325TIP3   OH221938   4.268   1.716   5.076
 7325TIP3    H121939   4.301   1.770   5.004
 7325TIP3    H221940   4.188   1.759   5.104
 7326TIP3   OH221941   2.100   0.466   3.631
 7326TIP3    H121942   2.106   0.377   3.666
 7326TIP3    H221943   2.021   0.465   3.577
 7327TIP3   OH221944   4.027   5.815   0.862
 7327TIP3    H121945   4.120   5.818   0.885
 7327TIP3    H221946   3.988   5.755   0.925
 7328TIP3   OH221947   6.242   0.338   0.175
 7328TIP3    H121948   6.322   0.367   0.217
 7328TIP3    H221949   6.267   0.320   0.084
 7329TIP3   OH221950   1.948   1.674   1.821
 7329TIP3    H121951   2.002   1.597   1.841
 7329TIP3    H221952   1.956   1.729   1.899
 7330TIP3   OH221953   5.705   0.079   5.621
 7330TIP3    H121954   5.613   0.100   5.630
 7330TIP3    H221955   5.734   0.058   5.710
 7331TIP3   OH221956   6.996   0.018   4.994
 7331TIP3    H121957   7.044   0.098   4.970
 7331TIP3    H221958   6.912   0.050   5.027
 7332TIP3   OH221959   5.917   2.832   1.518
 7332TIP3    H121960   5.924   2.858   1.610
 7332TIP3    H221961   5.892   2.913   1.472
 7333TIP3   OH221962   0.412   5.334   4.455
 7333TIP3    H121963   0.414   5.412   4.400
 7333TIP3    H221964   0.454   5.362   4.537
 7334TIP3   OH221965   2.489   2.637   5.577
 7334TIP3    H121966   2.424   2.605   5.514
 7334TIP3    H221967   2.571   2.639   5.527
 7335TIP3   OH221968   6.962   0.258   5.341
 7335TIP3    H121969   6.968   0.273   5.435
 7335TIP3    H221970   6.879   0.210   5.330
 7336TIP3   OH221971   3.933   5.789   1.417
 7336TIP3    H121972   3.856   5.737   1.439
 7336TIP3    H221973   3.922   5.870   1.466
 7337TIP3   OH221974   3.862   6.131   4.367
 7337TIP3    H121975   3.774   6.102   4.343
 7337TIP3    H221976   3.916   6.109   4.292
 7338TIP3   OH221977   0.355   6.229   3.498
 7338TIP3    H121978   0.349   6.215   3.404
 7338TIP3    H221979   0.265   6.244   3.526
 7339TIP3   OH221980   6.314   2.504   2.950
 7339TIP3    H121981   6.252   2.449   2.902
 7339TIP3    H221982   6.270   2.522   3.033
 7340TIP3   OH221983   0.883   2.099   5.722
 7340TIP3    H121984   0.903   2.174   5.777
 7340TIP3    H221985   0.848   2.137   5.641
 7341TIP3   OH221986   6.087   5.142   1.413
 7341TIP3    H121987   6.010   5.103   1.455
 7341TIP3    H221988   6.124   5.071   1.361
 7342TIP3   OH221989   2.902   5.452   1.564
 7342TIP3    H121990   2.928   5.431   1.474
 7342TIP3    H221991   2.908   5.369   1.611
 7343TIP3   OH221992   3.067   1.675   5.531
 7343TIP3    H121993   2.994   1.624   5.495
 7343TIP3    H221994   3.140   1.613   5.532
 7344TIP3   OH221995   0.792   2.954   1.013
 7344TIP3    H121996   0.860   2.887   1.024
 7344TIP3    H221997   0.839   3.037   1.021
 7345TIP3   OH221998   1.846   0.148   2.472
 7345TIP3    H121999   1.821   0.139   2.380
 7345TIP3    H222000   1.905   0.224   2.473
 7346TIP3   OH222001   5.790   3.942   1.901
 7346TIP3    H122002   5.761   3.882   1.832
 7346TIP3    H222003   5.849   4.003   1.856
 7347TIP3   OH222004   4.018   3.176   1.411
 7347TIP3    H122005   4.104   3.164   1.451
 7347TIP3    H222006   3.971   3.095   1.432
 7348TIP3   OH222007   0.669   2.426   5.707
 7348TIP3    H122008   0.728   2.477   5.761
 7348TIP3    H222009   0.581   2.451   5.736
 7349TIP3   OH222010   1.995   3.213   3.507
 7349TIP3    H122011   1.920   3.272   3.510
 7349TIP3    H222012   2.072   3.271   3.505
 7350TIP3   OH222013   3.154   0.360   2.165
 7350TIP3    H122014   3.137   0.415   2.241
 7350TIP3    H222015   3.087   0.291   2.170
 7351TIP3   OH222016   6.013   3.075   0.308
 7351TIP3    H122017   6.105   3.066   0.329
 7351TIP3    H222018   5.973   2.994   0.339
 7352TIP3   OH222019   1.316   1.888   0.921
 7352TIP3    H122020   1.361   1.903   1.004
 7352TIP3    H222021   1.357   1.809   0.886
 7353TIP3   OH222022   6.408   6.553   5.146
 7353TIP3    H122023   6.483   6.592   5.192
 7353TIP3    H222024   6.397   6.468   5.187
 7354TIP3   OH222025   4.159   4.706   1.877
 7354TIP3    H122026   4.142   4.791   1.916
 7354TIP3    H222027   4.223   4.665   1.935
 7355TIP3   OH222028   3.189   4.541   1.405
 7355TIP3    H122029   3.281   4.548   1.382
 7355TIP3    H222030   3.189   4.501   1.492
 7356TIP3   OH222031   6.990   2.903   2.254
 7356TIP3    H122032   6.936   2.967   2.207
 7356TIP3    H222033   6.941   2.821   2.247
 7357TIP3   OH222034   4.765   4.903   5.630
 7357TIP3    H122035   4.719   4.961   5.691
 7357TIP3    H222036   4.817   4.846   5.686
 7358TIP3   OH222037   0.443   0.425   4.705
 7358TIP3    H122038   0.441   0.330   4.710
 7358TIP3    H222039   0.466   0.444   4.614
 7359TIP3   OH222040   3.999   5.218   3.822
 7359TIP3    H122041   3.994   5.314   3.817
 7359TIP3    H222042   3.912   5.191   3.851
 7360TIP3   OH222043   3.236   6.648   1.360
 7360TIP3    H122044   3.311   6.695   1.324
 7360TIP3    H222045   3.264   6.622   1.448
 7361TIP3   OH222046   5.876   4.114   0.938
 7361TIP3    H122047   5.798   4.163   0.912
 7361TIP3    H222048   5.947   4.178   0.930
 7362TIP3   OH222049   4.857   1.360   1.057
 7362TIP3    H122050   4.898   1.283   1.017
 7362TIP3    H222051   4.921   1.431   1.042
 7363TIP3   OH222052   1.698   6.100   0.288
 7363TIP3    H122053   1.673   6.146   0.368
 7363TIP3    H222054   1.662   6.154   0.217
 7364TIP3   OH222055   4.632   0.799   5.386
 7364TIP3    H122056   4.556   0.823   5.439
 7364TIP3    H222057   4.661   0.882   5.347
 7365TIP3   OH222058   6.490   1.992   4.878
 7365TIP3    H122059   6.453   1.908   4.852
 7365TIP3    H222060   6.550   1.971   4.950
 7366TIP3   OH222061   4.782   4.483   5.258
 7366TIP3    H122062   4.754   4.548   5.194
 7366TIP3    H222063   4.721   4.410   5.248
 7367TIP3   OH222064   2.993   2.580   0.436
 7367TIP3    H122065   3.018   2.644   0.369
 7367TIP3    H222066   3.071   2.573   0.492
 7368TIP3   OH222067   1.276   2.036   1.777
 7368TIP3    H122068   1.287   2.083   1.694
 7368TIP3    H222069   1.330   2.085   1.839
 7369TIP3   OH222070   4.555   0.024   4.847
 7369TIP3    H122071   4.539  -0.070   4.845
 7369TIP3    H222072   4.650   0.032   4.860
 7370TIP3   OH222073   3.654   6.539   4.241
 7370TIP3    H122074   3.634   6.448   4.219
 7370TIP3    H222075   3.710   6.533   4.318
 7371TIP3   OH222076   1.760   2.908   3.998
 7371TIP3    H122077   1.678   2.863   4.019
 7371TIP3    H222078   1.806   2.915   4.082
 7372TIP3   OH222079   6.810   4.444   1.764
 7372TIP3    H122080   6.735   4.393   1.796
 7372TIP3    H222081   6.775   4.533   1.752
 7373TIP3   OH222082   3.165   5.662   1.463
 7373TIP3    H122083   3.126   5.748   1.447
 7373TIP3    H222084   3.109   5.622   1.529
 7374TIP3   OH222085   1.724  -0.021   2.006
 7374TIP3    H122086   1.778   0.029   2.066
 7374TIP3    H222087   1.646  -0.043   2.056
 7375TIP3   OH222088   6.539   3.816   2.617
 7375TIP3    H122089   6.589   3.755   2.671
 7375TIP3    H222090   6.449   3.782   2.620
 7376TIP3   OH222091   6.680   3.283   5.819
 7376TIP3    H122092   6.657   3.269   5.911
 7376TIP3    H222093   6.629   3.217   5.772
 7377TIP3   OH222094   0.948   0.895   1.427
 7377TIP3    H122095   1.003   0.936   1.360
 7377TIP3    H222096   0.898   0.967   1.464
 7378TIP3   OH222097   6.137   3.484   0.445
 7378TIP3    H122098   6.056   3.493   0.394
 7378TIP3    H222099   6.111   3.503   0.535
 7379TIP3   OH222100   6.988   3.718   5.248
 7379TIP3    H122101   6.968   3.745   5.159
 7379TIP3    H222102   6.914   3.750   5.300
 7380TIP3   OH222103   5.503   0.228   4.594
 7380TIP3    H122104   5.408   0.232   4.601
 7380TIP3    H222105   5.522   0.251   4.503
 7381TIP3   OH222106   6.886   1.713   2.650
 7381TIP3    H122107   6.967   1.761   2.636
 7381TIP3    H222108   6.847   1.705   2.563
 7382TIP3   OH222109   5.338   2.816   0.358
 7382TIP3    H122110   5.368   2.857   0.439
 7382TIP3    H222111   5.274   2.752   0.387
 7383TIP3   OH222112   2.617   4.861   3.211
 7383TIP3    H122113   2.626   4.794   3.143
 7383TIP3    H222114   2.679   4.835   3.279
 7384TIP3   OH222115   1.556   0.222   3.319
 7384TIP3    H122116   1.540   0.141   3.269
 7384TIP3    H222117   1.483   0.279   3.295
 7385TIP3   OH222118   6.745   2.432   5.007
 7385TIP3    H122119   6.656   2.417   4.976
 7385TIP3    H222120   6.793   2.461   4.930
 7386TIP3   OH222121   7.250   2.559   4.484
 7386TIP3    H122122   7.191   2.484   4.485
 7386TIP3    H222123   7.191   2.635   4.479
 7387TIP3   OH222124   6.465   4.024   1.526
 7387TIP3    H122125   6.397   4.006   1.591
 7387TIP3    H222126   6.512   3.941   1.516
 7388TIP3   OH222127   3.790   3.453   0.161
 7388TIP3    H122128   3.853   3.389   0.193
 7388TIP3    H222129   3.775   3.429   0.070
 7389TIP3   OH222130   0.497   0.224   5.451
 7389TIP3    H122131   0.515   0.131   5.444
 7389TIP3    H222132   0.522   0.247   5.541
 7390TIP3   OH222133   6.941   0.648   3.041
 7390TIP3    H122134   6.883   0.694   2.981
 7390TIP3    H222135   7.002   0.601   2.985
 7391TIP3   OH222136   1.772   0.484   3.801
 7391TIP3    H122137   1.805   0.547   3.865
 7391TIP3    H222138   1.807   0.514   3.717
 7392TIP3   OH222139   4.764   5.150   0.777
 7392TIP3    H122140   4.826   5.077   0.777
 7392TIP3    H222141   4.790   5.204   0.702
 7393TIP3   OH222142   6.124   5.246   4.063
 7393TIP3    H122143   6.201   5.189   4.069
 7393TIP3    H222144   6.066   5.201   4.001
 7394TIP3   OH222145   3.916   3.313   1.951
 7394TIP3    H122146   3.842   3.310   2.011
 7394TIP3    H222147   3.883   3.275   1.869
 7395TIP3   OH222148   3.907   0.946   1.718
 7395TIP3    H122149   3.940   0.885   1.652
 7395TIP3    H222150   3.876   1.021   1.668
 7396TIP3   OH222151   5.358   4.793   0.599
 7396TIP3    H122152   5.425   4.768   0.663
 7396TIP3    H222153   5.406   4.800   0.516
 7397TIP3   OH222154   1.404   4.058   5.491
 7397TIP3    H122155   1.311   4.063   5.469
 7397TIP3    H222156   1.420   3.965   5.509
 7398TIP3   OH222157   0.558   0.505   3.725
 7398TIP3    H122158   0.625   0.542   3.782
 7398TIP3    H222159   0.553   0.413   3.751
 7399TIP3   OH222160   4.730   3.309   5.233
 7399TIP3    H122161   4.711   3.216   5.223
 7399TIP3    H222162   4.685   3.351   5.160
 7400TIP3   OH222163   3.396   1.154   5.791
 7400TIP3    H122164   3.461   1.222   5.775
 7400TIP3    H222165   3.314   1.191   5.757
 7401TIP3   OH222166   0.969   6.081   4.555
 7401TIP3    H122167   1.007   6.049   4.473
 7401TIP3    H222168   0.887   6.124   4.528
 7402TIP3   OH222169   1.882   2.369   1.465
 7402TIP3    H122170   1.974   2.395   1.455
 7402TIP3    H222171   1.885   2.291   1.521
 7403TIP3   OH222172   6.779   0.521   4.435
 7403TIP3    H122173   6.833   0.555   4.506
 7403TIP3    H222174   6.842   0.490   4.370
 7404TIP3   OH222175   5.015   0.630   2.316
 7404TIP3    H122176   4.986   0.626   2.225
 7404TIP3    H222177   5.065   0.548   2.328
 7405TIP3   OH222178   3.224   1.195   4.765
 7405TIP3    H122179   3.194   1.117   4.719
 7405TIP3    H222180   3.211   1.175   4.858
 7406TIP3   OH222181   1.487   6.211   1.670
 7406TIP3    H122182   1.528   6.124   1.675
 7406TIP3    H222183   1.477   6.227   1.576
 7407TIP3   OH222184   5.952   5.026   2.394
 7407TIP3    H122185   5.898   5.104   2.400
 7407TIP3    H222186   6.039   5.055   2.423
 7408TIP3   OH222187   6.479   1.112   4.713
 7408TIP3    H122188   6.524   1.055   4.650
 7408TIP3    H222189   6.393   1.128   4.673
 7409TIP3   OH222190   4.995   2.953   2.437
 7409TIP3    H122191   4.965   2.968   2.526
 7409TIP3    H222192   4.915   2.952   2.384
 7410TIP3   OH222193   6.124   3.575   4.289
 7410TIP3    H122194   6.047   3.547   4.338
 7410TIP3    H222195   6.104   3.554   4.198
 7411TIP3   OH222196   0.450   3.082   5.879
 7411TIP3    H122197   0.435   3.069   5.785
 7411TIP3    H222198   0.398   3.159   5.901
 7412TIP3   OH222199   2.523   5.919   2.902
 7412TIP3    H122200   2.589   5.850   2.898
 7412TIP3    H222201   2.524   5.948   2.993
 7413TIP3   OH222202   2.198   5.393   3.394
 7413TIP3    H122203   2.207   5.298   3.402
 7413TIP3    H222204   2.157   5.421   3.475
 7414TIP3   OH222205   3.039   1.844   3.363
 7414TIP3    H122206   3.099   1.771   3.375
 7414TIP3    H222207   2.957   1.814   3.403
 7415TIP3   OH222208   4.229   2.845   0.761
 7415TIP3    H122209   4.171   2.776   0.793
 7415TIP3    H222210   4.283   2.869   0.836
 7416TIP3   OH222211   2.646   1.155   3.087
 7416TIP3    H122212   2.658   1.097   3.011
 7416TIP3    H222213   2.595   1.228   3.053
 7417TIP3   OH222214   2.553   0.478   2.570
 7417TIP3    H122215   2.461   0.468   2.547
 7417TIP3    H222216   2.575   0.567   2.542
 7418TIP3   OH222217   0.137   5.598   1.681
 7418TIP3    H122218   0.089   5.516   1.683
 7418TIP3    H222219   0.227   5.574   1.705
 7419TIP3   OH222220   4.633   2.621   3.248
 7419TIP3    H122221   4.557   2.625   3.307
 7419TIP3    H222222   4.700   2.674   3.293
 7420TIP3   OH222223   4.753   5.907   5.415
 7420TIP3    H122224   4.753   5.905   5.319
 7420TIP3    H222225   4.729   5.818   5.441
 7421TIP3   OH222226   4.382   0.296   3.415
 7421TIP3    H122227   4.439   0.267   3.343
 7421TIP3    H222228   4.347   0.379   3.385
 7422TIP3   OH222229   6.504   4.337   3.900
 7422TIP3    H122230   6.598   4.345   3.884
 7422TIP3    H222231   6.465   4.409   3.852
 7423TIP3   OH222232   0.543   5.027   4.173
 7423TIP3    H122233   0.464   5.080   4.161
 7423TIP3    H222234   0.510   4.941   4.199
 7424TIP3   OH222235   6.181   5.761   3.967
 7424TIP3    H122236   6.172   5.784   4.059
 7424TIP3    H222237   6.270   5.786   3.944
 7425TIP3   OH222238   1.753   6.254   5.765
 7425TIP3    H122239   1.689   6.186   5.789
 7425TIP3    H222240   1.701   6.332   5.750
 7426TIP3   OH222241   1.126   4.578   5.199
 7426TIP3    H122242   1.146   4.666   5.168
 7426TIP3    H222243   1.031   4.573   5.196
 7427TIP3   OH222244   3.492   5.692   4.819
 7427TIP3    H122245   3.477   5.717   4.727
 7427TIP3    H222246   3.467   5.770   4.869
 7428TIP3   OH222247   2.708   3.129   1.995
 7428TIP3    H122248   2.778   3.187   2.026
 7428TIP3    H222249   2.750   3.073   1.931
 7429TIP3   OH222250   3.959   6.675   1.869
 7429TIP3    H122251   3.960   6.642   1.779
 7429TIP3    H222252   3.963   6.770   1.860
 7430TIP3   OH222253   5.975   4.465   4.192
 7430TIP3    H122254   5.974   4.375   4.161
 7430TIP3    H222255   6.022   4.513   4.124
 7431TIP3   OH222256   3.367   5.271   3.522
 7431TIP3    H122257   3.276   5.245   3.536
 7431TIP3    H222258   3.394   5.225   3.443
 7432TIP3   OH222259   2.873   5.943   2.591
 7432TIP3    H122260   2.822   6.021   2.613
 7432TIP3    H222261   2.855   5.928   2.498
 7433TIP3   OH222262   4.299   0.766   0.534
 7433TIP3    H122263   4.299   0.793   0.626
 7433TIP3    H222264   4.354   0.687   0.533
 7434TIP3   OH222265   2.917   3.960   0.154
 7434TIP3    H122266   2.951   3.872   0.166
 7434TIP3    H222267   2.833   3.960   0.200
 7435TIP3   OH222268   6.787   5.173   0.933
 7435TIP3    H122269   6.728   5.248   0.927
 7435TIP3    H222270   6.833   5.172   0.848
 7436TIP3   OH222271   5.421   4.159   1.485
 7436TIP3    H122272   5.445   4.191   1.573
 7436TIP3    H222273   5.407   4.239   1.435
 7437TIP3   OH222274   4.942   6.732   0.156
 7437TIP3    H122275   5.018   6.790   0.152
 7437TIP3    H222276   4.893   6.762   0.233
 7438TIP3   OH222277   2.393   1.336   3.746
 7438TIP3    H122278   2.462   1.272   3.729
 7438TIP3    H222279   2.403   1.360   3.838
 7439TIP3   OH222280   1.879   4.876   5.241
 7439TIP3    H122281   1.850   4.822   5.168
 7439TIP3    H222282   1.943   4.821   5.288
 7440TIP3   OH222283   5.926   6.448   0.714
 7440TIP3    H122284   5.926   6.516   0.782
 7440TIP3    H222285   5.926   6.366   0.763
 7441TIP3   OH222286   3.400   5.484   4.988
 7441TIP3    H122287   3.321   5.438   4.958
 7441TIP3    H222288   3.437   5.522   4.908
 7442TIP3   OH222289   4.050   6.130   1.890
 7442TIP3    H122290   3.980   6.179   1.932
 7442TIP3    H222291   4.024   6.124   1.798
 7443TIP3   OH222292   2.416   4.218   4.506
 7443TIP3    H122293   2.342   4.166   4.475
 7443TIP3    H222294   2.486   4.201   4.443
 7444TIP3   OH222295   1.990   5.040   2.248
 7444TIP3    H122296   2.052   5.053   2.319
 7444TIP3    H222297   2.024   5.095   2.177
 7445TIP3   OH222298   3.954   3.953   3.274
 7445TIP3    H122299   3.937   3.948   3.368
 7445TIP3    H222300   4.022   3.887   3.258
 7446TIP3   OH222301   5.558   2.679   0.651
 7446TIP3    H122302   5.598   2.617   0.590
 7446TIP3    H222303   5.549   2.631   0.733
 7447TIP3   OH222304   6.668   5.364   1.168
 7447TIP3    H122305   6.691   5.311   1.244
 7447TIP3    H222306   6.588   5.323   1.134
 7448TIP3   OH222307   7.136   0.332   3.744
 7448TIP3    H122308   7.169   0.242   3.747
 7448TIP3    H222309   7.205   0.382   3.701
 7449TIP3   OH222310   0.794   3.369   4.397
 7449TIP3    H122311   0.809   3.279   4.367
 7449TIP3    H222312   0.699   3.380   4.393
 7450TIP3   OH222313   6.062   4.590   2.514
 7450TIP3    H122314   6.004   4.664   2.531
 7450TIP3    H222315   6.142   4.611   2.562
 7451TIP3   OH222316   3.978   4.571   0.141
 7451TIP3    H122317   3.886   4.587   0.119
 7451TIP3    H222318   4.008   4.508   0.074
 7452TIP3   OH222319   4.440   3.090   5.796
 7452TIP3    H122320   4.441   3.184   5.813
 7452TIP3    H222321   4.496   3.053   5.864
 7453TIP3   OH222322   3.431   1.870   5.538
 7453TIP3    H122323   3.439   1.965   5.551
 7453TIP3    H222324   3.389   1.838   5.618
 7454TIP3   OH222325   2.450   1.279   1.964
 7454TIP3    H122326   2.387   1.253   2.032
 7454TIP3    H222327   2.412   1.358   1.926
 7455TIP3   OH222328   0.574   1.650   1.907
 7455TIP3    H122329   0.663   1.665   1.876
 7455TIP3    H222330   0.538   1.585   1.846
 7456TIP3   OH222331   3.068   6.464   5.196
 7456TIP3    H122332   3.091   6.539   5.250
 7456TIP3    H222333   3.095   6.388   5.247
 7457TIP3   OH222334   6.929   3.854   4.628
 7457TIP3    H122335   6.946   3.947   4.643
 7457TIP3    H222336   6.883   3.825   4.707
 7458TIP3   OH222337   5.532   3.038   3.278
 7458TIP3    H122338   5.520   3.092   3.200
 7458TIP3    H222339   5.626   3.038   3.293
 7459TIP3   OH222340   1.700   1.803   0.435
 7459TIP3    H122341   1.664   1.892   0.442
 7459TIP3    H222342   1.739   1.786   0.521
 7460TIP3   OH222343   2.758   1.506   4.402
 7460TIP3    H122344   2.812   1.557   4.463
 7460TIP3    H222345   2.669   1.539   4.415
 7461TIP3   OH222346   2.819   1.778   5.380
 7461TIP3    H122347   2.886   1.765   5.313
 7461TIP3    H222348   2.779   1.691   5.390
 7462TIP3   OH222349   3.979   6.731   0.049
 7462TIP3    H122350   4.049   6.752   0.110
 7462TIP3    H222351   4.007   6.650   0.006
 7463TIP3   OH222352   2.120   1.354   4.491
 7463TIP3    H122353   2.099   1.263   4.468
 7463TIP3    H222354   2.067   1.371   4.569
 7464TIP3   OH222355   5.544   2.021   0.337
 7464TIP3    H122356   5.616   2.047   0.280
 7464TIP3    H222357   5.495   2.102   0.352
 7465TIP3   OH222358   0.441   1.691   0.459
 7465TIP3    H122359   0.460   1.754   0.528
 7465TIP3    H222360   0.442   1.606   0.503
 7466TIP3   OH222361   2.075   0.203   3.692
 7466TIP3    H122362   2.027   0.170   3.769
 7466TIP3    H222363   2.029   0.165   3.617
 7467TIP3   OH222364   1.817   2.743   2.317
 7467TIP3    H122365   1.774   2.815   2.364
 7467TIP3    H222366   1.808   2.668   2.375
 7468TIP3   OH222367   0.915   1.236   1.445
 7468TIP3    H122368   0.826   1.256   1.471
 7468TIP3    H222369   0.914   1.241   1.349
 7469TIP3   OH222370   0.827   6.019   2.353
 7469TIP3    H122371   0.793   6.080   2.289
 7469TIP3    H222372   0.839   5.937   2.305
 7470TIP3   OH222373   6.760   0.498   3.755
 7470TIP3    H122374   6.760   0.533   3.666
 7470TIP3    H222375   6.825   0.550   3.802
 7471TIP3   OH222376   0.984   4.166   1.521
 7471TIP3    H122377   1.072   4.155   1.558
 7471TIP3    H222378   0.998   4.163   1.426
 7472TIP3   OH222379   6.546   4.009   5.502
 7472TIP3    H122380   6.493   4.025   5.580
 7472TIP3    H222381   6.487   4.027   5.429
 7473TIP3   OH222382   0.688   3.755   0.468
 7473TIP3    H122383   0.681   3.747   0.373
 7473TIP3    H222384   0.604   3.725   0.501
 7474TIP3   OH222385   0.967   2.608   2.586
 7474TIP3    H122386   1.062   2.592   2.583
 7474TIP3    H222387   0.954   2.683   2.529
 7475TIP3   OH222388   1.506   6.394   4.987
 7475TIP3    H122389   1.444   6.323   4.973
 7475TIP3    H222390   1.512   6.438   4.902
 7476TIP3   OH222391   0.275   1.302   0.166
 7476TIP3    H122392   0.269   1.307   0.070
 7476TIP3    H222393   0.216   1.370   0.197
 7477TIP3   OH222394   5.577   1.744   3.562
 7477TIP3    H122395   5.524   1.670   3.592
 7477TIP3    H222396   5.631   1.708   3.491
 7478TIP3   OH222397   2.641   0.869   1.460
 7478TIP3    H122398   2.570   0.866   1.524
 7478TIP3    H222399   2.682   0.782   1.465
 7479TIP3   OH222400   4.667   3.429   2.347
 7479TIP3    H122401   4.633   3.507   2.303
 7479TIP3    H222402   4.755   3.418   2.311
 7480TIP3   OH222403   3.942   3.570   4.709
 7480TIP3    H122404   3.887   3.553   4.786
 7480TIP3    H222405   3.900   3.645   4.666
 7481TIP3   OH222406   4.167   4.900   3.477
 7481TIP3    H122407   4.231   4.967   3.501
 7481TIP3    H222408   4.085   4.930   3.516
 7482TIP3   OH222409   6.746   1.705   0.981
 7482TIP3    H122410   6.722   1.702   0.888
 7482TIP3    H222411   6.832   1.664   0.985
 7483TIP3   OH222412   4.083   2.830   3.191
 7483TIP3    H122413   4.020   2.850   3.123
 7483TIP3    H222414   4.039   2.765   3.246
 7484TIP3   OH222415   4.350   6.660   1.541
 7484TIP3    H122416   4.310   6.736   1.582
 7484TIP3    H222417   4.350   6.593   1.610
 7485TIP3   OH222418   2.390   0.815   4.255
 7485TIP3    H122419   2.424   0.904   4.264
 7485TIP3    H222420   2.467   0.759   4.256
 7486TIP3   OH222421   6.355   6.111   0.970
 7486TIP3    H122422   6.275   6.065   0.946
 7486TIP3    H222423   6.421   6.082   0.907
 7487TIP3   OH222424   6.363   4.476   5.518
 7487TIP3    H122425   6.391   4.452   5.606
 7487TIP3    H222426   6.369   4.571   5.516
 7488TIP3   OH222427   1.859   6.251   3.532
 7488TIP3    H122428   1.888   6.258   3.623
 7488TIP3    H222429   1.888   6.332   3.491
 7489TIP3   OH222430   5.726   3.697   4.526
 7489TIP3    H122431   5.785   3.624   4.545
 7489TIP3    H222432   5.765   3.772   4.571
 7490TIP3   OH222433   1.347   0.469   4.144
 7490TIP3    H122434   1.287   0.414   4.093
 7490TIP3    H222435   1.329   0.558   4.114
 7491TIP3   OH222436   4.258   4.988   5.055
 7491TIP3    H122437   4.265   4.940   5.138
 7491TIP3    H222438   4.226   5.075   5.080
 7492TIP3   OH222439   6.782   1.011   2.160
 7492TIP3    H122440   6.785   1.095   2.114
 7492TIP3    H222441   6.854   1.016   2.224
 7493TIP3   OH222442   4.334   1.619   2.842
 7493TIP3    H122443   4.264   1.655   2.895
 7493TIP3    H222444   4.355   1.534   2.882
 7494TIP3   OH222445   5.985   5.710   3.145
 7494TIP3    H122446   5.891   5.726   3.158
 7494TIP3    H222447   6.008   5.644   3.210
 7495TIP3   OH222448   2.651   0.406   0.965
 7495TIP3    H122449   2.675   0.334   0.907
 7495TIP3    H222450   2.556   0.413   0.956
 7496TIP3   OH222451   2.530   6.117   0.277
 7496TIP3    H122452   2.610   6.122   0.330
 7496TIP3    H222453   2.512   6.208   0.253
 7497TIP3   OH222454   1.812   4.709   4.115
 7497TIP3    H122455   1.776   4.645   4.177
 7497TIP3    H222456   1.836   4.784   4.169
 7498TIP3   OH222457   1.945   2.405   5.346
 7498TIP3    H122458   1.883   2.477   5.337
 7498TIP3    H222459   2.028   2.448   5.370
 7499TIP3   OH222460   4.617   2.184   3.005
 7499TIP3    H122461   4.537   2.179   3.056
 7499TIP3    H222462   4.594   2.241   2.931
 7500TIP3   OH222463   4.464   1.991   5.092
 7500TIP3    H122464   4.374   2.025   5.089
 7500TIP3    H222465   4.457   1.907   5.137
 7501TIP3   OH222466   5.894   0.746   4.587
 7501TIP3    H122467   5.866   0.804   4.517
 7501TIP3    H222468   5.816   0.696   4.610
 7502TIP3   OH222469   6.559   2.672   0.530
 7502TIP3    H122470   6.639   2.633   0.496
 7502TIP3    H222471   6.583   2.761   0.554
 7503TIP3   OH222472   1.385   4.883   2.558
 7503TIP3    H122473   1.436   4.871   2.638
 7503TIP3    H222474   1.437   4.942   2.505
 7504TIP3   OH222475   4.436   5.808   0.310
 7504TIP3    H122476   4.410   5.899   0.325
 7504TIP3    H222477   4.354   5.765   0.286
 7505TIP3   OH222478   6.916   0.110   4.362
 7505TIP3    H122479   6.853   0.090   4.431
 7505TIP3    H222480   6.947   0.024   4.333
 7506TIP3   OH222481   6.020   0.737   2.114
 7506TIP3    H122482   5.931   0.746   2.081
 7506TIP3    H222483   6.074   0.787   2.053
 7507TIP3   OH222484   0.438   6.198   5.151
 7507TIP3    H122485   0.409   6.239   5.233
 7507TIP3    H222486   0.383   6.238   5.084
 7508TIP3   OH222487   4.493   5.737   1.993
 7508TIP3    H122488   4.537   5.818   1.966
 7508TIP3    H222489   4.552   5.698   2.057
 7509TIP3   OH222490   2.154   5.408   4.367
 7509TIP3    H122491   2.233   5.360   4.390
 7509TIP3    H222492   2.143   5.395   4.273
 7510TIP3   OH222493   0.024   6.195   5.302
 7510TIP3    H122494   0.062   6.252   5.369
 7510TIP3    H222495  -0.001   6.255   5.232
 7511TIP3   OH222496   7.220   2.096   1.488
 7511TIP3    H122497   7.138   2.093   1.539
 7511TIP3    H222498   7.237   2.190   1.478
 7512TIP3   OH222499   0.090   2.734   0.701
 7512TIP3    H122500   0.045   2.775   0.627
 7512TIP3    H222501   0.096   2.802   0.767
 7513TIP3   OH222502   1.395   3.368   4.782
 7513TIP3    H122503   1.342   3.333   4.710
 7513TIP3    H222504   1.457   3.298   4.802
 7514TIP3   OH222505   6.355   6.607   4.089
 7514TIP3    H122506   6.295   6.555   4.143
 7514TIP3    H222507   6.417   6.645   4.151
 7515TIP3   OH222508   1.089   1.794   4.108
 7515TIP3    H122509   1.062   1.738   4.180
 7515TIP3    H222510   1.145   1.859   4.148
 7516TIP3   OH222511   4.966   3.658   4.146
 7516TIP3    H122512   4.908   3.708   4.204
 7516TIP3    H222513   4.907   3.616   4.084
 7517TIP3   OH222514   3.495   1.701   0.425
 7517TIP3    H122515   3.409   1.670   0.453
 7517TIP3    H222516   3.526   1.755   0.498
 7518TIP3   OH222517   6.348   1.261   0.585
 7518TIP3    H122518   6.381   1.350   0.591
 7518TIP3    H222519   6.270   1.268   0.529
 7519TIP3   OH222520   5.873   2.431   5.294
 7519TIP3    H122521   5.819   2.354   5.312
 7519TIP3    H222522   5.810   2.502   5.282
 7520TIP3   OH222523   3.590   4.924   2.668
 7520TIP3    H122524   3.623   5.006   2.704
 7520TIP3    H222525   3.496   4.938   2.656
 7521TIP3   OH222526   3.462   6.731   0.571
 7521TIP3    H122527   3.450   6.825   0.583
 7521TIP3    H222528   3.547   6.712   0.611
 7522TIP3   OH222529   2.207   3.962   5.781
 7522TIP3    H122530   2.198   4.056   5.767
 7522TIP3    H222531   2.299   3.950   5.805
 7523TIP3   OH222532   2.273   3.641   1.322
 7523TIP3    H122533   2.253   3.643   1.416
 7523TIP3    H222534   2.215   3.708   1.284
 7524TIP3   OH222535   6.812   4.073   4.777
 7524TIP3    H122536   6.762   4.154   4.790
 7524TIP3    H222537   6.903   4.102   4.771
 7525TIP3   OH222538   4.048   5.550   2.552
 7525TIP3    H122539   4.128   5.528   2.599
 7525TIP3    H222540   4.063   5.521   2.462
 7526TIP3   OH222541   2.414   4.347   0.378
 7526TIP3    H122542   2.492   4.307   0.340
 7526TIP3    H222543   2.370   4.388   0.303
 7527TIP3   OH222544   4.169   3.652   1.683
 7527TIP3    H122545   4.257   3.684   1.663
 7527TIP3    H222546   4.172   3.629   1.776
 7528TIP3   OH222547   1.479   1.466   0.266
 7528TIP3    H122548   1.560   1.495   0.225
 7528TIP3    H222549   1.484   1.500   0.355
 7529TIP3   OH222550   5.692   5.189   0.983
 7529TIP3    H122551   5.741   5.119   0.940
 7529TIP3    H222552   5.692   5.261   0.919
 7530TIP3   OH222553   1.097   6.800   2.047
 7530TIP3    H122554   1.054   6.858   1.985
 7530TIP3    H222555   1.028   6.778   2.110
 7531TIP3   OH222556   1.185   2.537   4.864
 7531TIP3    H122557   1.092   2.537   4.888
 7531TIP3    H222558   1.191   2.596   4.789
 7532TIP3   OH222559   4.304   6.135   3.217
 7532TIP3    H122560   4.222   6.140   3.266
 7532TIP3    H222561   4.297   6.206   3.153
 7533TIP3   OH222562   4.075   0.979   2.705
 7533TIP3    H122563   4.100   0.900   2.753
 7533TIP3    H222564   4.120   0.971   2.621
 7534TIP3   OH222565   4.395   1.275   5.316
 7534TIP3    H122566   4.308   1.309   5.338
 7534TIP3    H222567   4.456   1.341   5.348
 7535TIP3   OH222568   2.022   2.995   5.841
 7535TIP3    H122569   2.066   3.080   5.848
 7535TIP3    H222570   2.085   2.939   5.796
 7536TIP3   OH222571   1.924   4.547   0.158
 7536TIP3    H122572   1.847   4.571   0.107
 7536TIP3    H222573   1.933   4.617   0.223
 7537TIP3   OH222574   4.513   3.685   0.359
 7537TIP3    H122575   4.526   3.596   0.325
 7537TIP3    H222576   4.590   3.700   0.415
 7538TIP3   OH222577   2.298   2.973   5.348
 7538TIP3    H122578   2.238   2.900   5.353
 7538TIP3    H222579   2.385   2.933   5.339
 7539TIP3   OH222580   0.613   4.789   1.756
 7539TIP3    H122581   0.625   4.819   1.846
 7539TIP3    H222582   0.641   4.698   1.757
 7540TIP3   OH222583   6.236   3.325   5.152
 7540TIP3    H122584   6.245   3.414   5.186
 7540TIP3    H222585   6.323   3.303   5.120
 7541TIP3   OH222586   5.359   5.514   0.906
 7541TIP3    H122587   5.394   5.526   0.995
 7541TIP3    H222588   5.303   5.436   0.913
 7542TIP3   OH222589   3.417   5.275   1.738
 7542TIP3    H122590   3.353   5.283   1.668
 7542TIP3    H222591   3.487   5.221   1.701
 7543TIP3   OH222592   1.832   3.967   0.477
 7543TIP3    H122593   1.778   3.963   0.556
 7543TIP3    H222594   1.903   4.027   0.499
 7544TIP3   OH222595   6.342   0.438   2.131
 7544TIP3    H122596   6.321   0.498   2.204
 7544TIP3    H222597   6.433   0.458   2.109
 7545TIP3   OH222598   4.618   3.593   4.145
 7545TIP3    H122599   4.619   3.674   4.196
 7545TIP3    H222600   4.592   3.525   4.207
 7546TIP3   OH222601   3.224   3.800   4.357
 7546TIP3    H122602   3.244   3.790   4.450
 7546TIP3    H222603   3.178   3.720   4.334
 7547TIP3   OH222604   0.264   4.461   2.759
 7547TIP3    H122605   0.222   4.382   2.724
 7547TIP3    H222606   0.329   4.428   2.821
 7548TIP3   OH222607   0.937   0.628   5.660
 7548TIP3    H122608   0.980   0.711   5.684
 7548TIP3    H222609   1.006   0.562   5.673
 7549TIP3   OH222610   6.514   1.850   2.357
 7549TIP3    H122611   6.536   1.906   2.432
 7549TIP3    H222612   6.418   1.850   2.354
 7550TIP3   OH222613   3.192   4.012   1.260
 7550TIP3    H122614   3.098   3.998   1.270
 7550TIP3    H222615   3.209   3.995   1.167
 7551TIP3   OH222616   1.355   3.675   2.577
 7551TIP3    H122617   1.367   3.582   2.558
 7551TIP3    H222618   1.297   3.677   2.652
 7552TIP3   OH222619   5.476   4.492   1.894
 7552TIP3    H122620   5.560   4.538   1.882
 7552TIP3    H222621   5.448   4.518   1.982
 7553TIP3   OH222622   2.044   1.149   5.561
 7553TIP3    H122623   2.020   1.087   5.630
 7553TIP3    H222624   2.060   1.232   5.607
 7554TIP3   OH222625   6.759   3.369   0.225
 7554TIP3    H122626   6.770   3.432   0.154
 7554TIP3    H222627   6.784   3.417   0.304
 7555TIP3   OH222628   5.130   4.514   3.168
 7555TIP3    H122629   5.077   4.554   3.236
 7555TIP3    H222630   5.088   4.430   3.149
 7556TIP3   OH222631   3.304   4.510   2.603
 7556TIP3    H122632   3.397   4.507   2.578
 7556TIP3    H222633   3.267   4.581   2.551
 7557TIP3   OH222634   0.574   4.094   5.655
 7557TIP3    H122635   0.660   4.127   5.682
 7557TIP3    H222636   0.587   4.065   5.565
 7558TIP3   OH222637   6.649   2.731   4.162
 7558TIP3    H122638   6.616   2.799   4.104
 7558TIP3    H222639   6.680   2.662   4.103
 7559TIP3   OH222640   4.337   3.484   4.993
 7559TIP3    H122641   4.253   3.447   5.020
 7559TIP3    H222642   4.325   3.578   5.001
 7560TIP3   OH222643   3.280   1.040   1.214
 7560TIP3    H122644   3.236   1.095   1.279
 7560TIP3    H222645   3.213   1.020   1.149
 7561TIP3   OH222646   1.882   3.537   5.818
 7561TIP3    H122647   1.954   3.591   5.787
 7561TIP3    H222648   1.808   3.597   5.826
 7562TIP3   OH222649   4.124   2.908   1.508
 7562TIP3    H122650   4.106   2.881   1.418
 7562TIP3    H222651   4.220   2.903   1.515
 7563TIP3   OH222652   1.553   6.359   4.012
 7563TIP3    H122653   1.563   6.264   4.017
 7563TIP3    H222654   1.580   6.381   3.922
 7564TIP3   OH222655   3.787   5.824   1.731
 7564TIP3    H122656   3.828   5.900   1.691
 7564TIP3    H222657   3.852   5.791   1.793
 7565TIP3   OH222658   3.046   3.222   0.276
 7565TIP3    H122659   2.987   3.296   0.288
 7565TIP3    H222660   3.133   3.262   0.271
 7566TIP3   OH222661   1.005   2.393   0.459
 7566TIP3    H122662   0.985   2.362   0.371
 7566TIP3    H222663   1.079   2.453   0.447
 7567TIP3   OH222664   2.732   1.659   4.947
 7567TIP3    H122665   2.762   1.741   4.987
 7567TIP3    H222666   2.664   1.626   5.006
 7568TIP3   OH222667   5.486  -0.003   4.372
 7568TIP3    H122668   5.519   0.087   4.374
 7568TIP3    H222669   5.550  -0.053   4.422
 7569TIP3   OH222670   1.508   2.164   4.244
 7569TIP3    H122671   1.511   2.223   4.319
 7569TIP3    H222672   1.533   2.218   4.169
 7570TIP3   OH222673   2.611   1.915   1.890
 7570TIP3    H122674   2.567   1.846   1.939
 7570TIP3    H222675   2.583   1.902   1.799
 7571TIP3   OH222676   5.087   5.129   5.635
 7571TIP3    H122677   5.074   5.034   5.635
 7571TIP3    H222678   5.178   5.141   5.609
 7572TIP3   OH222679   6.000   5.680   1.682
 7572TIP3    H122680   5.926   5.688   1.742
 7572TIP3    H222681   5.960   5.678   1.595
 7573TIP3   OH222682   4.763   5.120   1.381
 7573TIP3    H122683   4.775   5.214   1.392
 7573TIP3    H222684   4.848   5.082   1.404
 7574TIP3   OH222685   2.435   0.412   3.164
 7574TIP3    H122686   2.393   0.438   3.082
 7574TIP3    H222687   2.474   0.493   3.197
 7575TIP3   OH222688   1.429   5.531   5.370
 7575TIP3    H122689   1.417   5.436   5.377
 7575TIP3    H222690   1.345   5.564   5.340
 7576TIP3   OH222691   2.758   4.203   4.403
 7576TIP3    H122692   2.831   4.264   4.410
 7576TIP3    H222693   2.680   4.259   4.407
 7577TIP3   OH222694   1.885   2.196   1.686
 7577TIP3    H122695   1.879   2.100   1.689
 7577TIP3    H222696   1.932   2.220   1.766
 7578TIP3   OH222697   0.731   5.530   1.256
 7578TIP3    H122698   0.728   5.540   1.161
 7578TIP3    H222699   0.814   5.571   1.282
 7579TIP3   OH222700   3.189   1.235   1.401
 7579TIP3    H122701   3.170   1.159   1.458
 7579TIP3    H222702   3.125   1.301   1.429
 7580TIP3   OH222703   7.004   2.942   1.518
 7580TIP3    H122704   6.977   2.943   1.610
 7580TIP3    H222705   6.932   2.986   1.472
 7581TIP3   OH222706   0.823   4.551   5.241
 7581TIP3    H122707   0.767   4.629   5.248
 7581TIP3    H222708   0.797   4.497   5.316
 7582TIP3   OH222709   6.829   5.998   0.169
 7582TIP3    H122710   6.884   5.996   0.091
 7582TIP3    H222711   6.882   6.042   0.235
 7583TIP3   OH222712   4.361   4.790   3.793
 7583TIP3    H122713   4.365   4.884   3.775
 7583TIP3    H222714   4.450   4.759   3.780
 7584TIP3   OH222715   3.612   4.536   3.748
 7584TIP3    H122716   3.689   4.527   3.692
 7584TIP3    H222717   3.641   4.595   3.818
 7585TIP3   OH222718   4.695   3.484   1.152
 7585TIP3    H122719   4.686   3.390   1.161
 7585TIP3    H222720   4.707   3.516   1.241
 7586TIP3   OH222721   3.351   4.172   0.575
 7586TIP3    H122722   3.377   4.222   0.652
 7586TIP3    H222723   3.291   4.106   0.608
 7587TIP3   OH222724   4.061   2.574   1.481
 7587TIP3    H122725   4.066   2.646   1.544
 7587TIP3    H222726   3.977   2.533   1.500
 7588TIP3   OH222727   1.820   3.404   3.585
 7588TIP3    H122728   1.738   3.437   3.621
 7588TIP3    H222729   1.868   3.483   3.558
 7589TIP3   OH222730   7.037   3.472   3.879
 7589TIP3    H122731   7.048   3.488   3.973
 7589TIP3    H222732   7.114   3.422   3.854
 7590TIP3   OH222733   5.778   3.948   1.258
 7590TIP3    H122734   5.704   3.969   1.201
 7590TIP3    H222735   5.853   3.994   1.218
 7591TIP3   OH222736   5.553   4.467   2.386
 7591TIP3    H122737   5.636   4.420   2.396
 7591TIP3    H222738   5.510   4.456   2.471
 7592TIP3   OH222739   0.826   5.280   4.947
 7592TIP3    H122740   0.807   5.300   4.856
 7592TIP3    H222741   0.812   5.363   4.993
 7593TIP3   OH222742   5.022   2.698   5.370
 7593TIP3    H122743   5.063   2.611   5.371
 7593TIP3    H222744   5.095   2.759   5.363
 7594TIP3   OH222745   6.132   5.657   2.529
 7594TIP3    H122746   6.037   5.667   2.518
 7594TIP3    H222747   6.170   5.710   2.458
 7595TIP3   OH222748   6.699   4.197   2.082
 7595TIP3    H122749   6.657   4.243   2.155
 7595TIP3    H222750   6.792   4.217   2.092
 7596TIP3   OH222751   5.870   5.709   5.348
 7596TIP3    H122752   5.799   5.772   5.331
 7596TIP3    H222753   5.841   5.661   5.426
 7597TIP3   OH222754   4.783   4.749   3.243
 7597TIP3    H122755   4.803   4.693   3.168
 7597TIP3    H222756   4.727   4.696   3.300
 7598TIP3   OH222757   0.702   6.129   1.600
 7598TIP3    H122758   0.613   6.108   1.571
 7598TIP3    H222759   0.706   6.224   1.599
 7599TIP3   OH222760   0.030   1.770   3.163
 7599TIP3    H122761   0.125   1.763   3.155
 7599TIP3    H222762  -0.002   1.684   3.139
 7600TIP3   OH222763   1.106   1.792   2.177
 7600TIP3    H122764   1.034   1.845   2.145
 7600TIP3    H222765   1.181   1.819   2.125
 7601TIP3   OH222766   5.509   5.036   4.478
 7601TIP3    H122767   5.499   4.943   4.496
 7601TIP3    H222768   5.451   5.079   4.541
 7602TIP3   OH222769   6.668   4.416   1.431
 7602TIP3    H122770   6.579   4.409   1.464
 7602TIP3    H222771   6.718   4.352   1.481
 7603TIP3   OH222772   0.047   0.584   2.658
 7603TIP3    H122773  -0.003   0.616   2.734
 7603TIP3    H222774   0.002   0.504   2.632
 7604TIP3   OH222775   2.534   1.419   0.573
 7604TIP3    H122776   2.552   1.436   0.480
 7604TIP3    H222777   2.577   1.336   0.591
 7605TIP3   OH222778   1.016   2.623   5.182
 7605TIP3    H122779   1.049   2.577   5.259
 7605TIP3    H222780   1.062   2.707   5.182
 7606TIP3   OH222781   3.290   4.943   2.637
 7606TIP3    H122782   3.238   5.023   2.646
 7606TIP3    H222783   3.290   4.924   2.543
 7607TIP3   OH222784   3.442   5.769   4.450
 7607TIP3    H122785   3.399   5.851   4.424
 7607TIP3    H222786   3.377   5.701   4.433
 7608TIP3   OH222787   6.797   2.001   1.120
 7608TIP3    H122788   6.864   1.950   1.165
 7608TIP3    H222789   6.714   1.964   1.150
 7609TIP3   OH222790   0.147   3.472   3.134
 7609TIP3    H122791   0.054   3.457   3.119
 7609TIP3    H222792   0.150   3.547   3.194
 7610TIP3   OH222793   3.204   1.121   5.359
 7610TIP3    H122794   3.248   1.153   5.438
 7610TIP3    H222795   3.113   1.111   5.385
 7611TIP3   OH222796   5.938   0.120   2.581
 7611TIP3    H122797   5.972   0.104   2.669
 7611TIP3    H222798   5.979   0.202   2.554
 7612TIP3   OH222799   0.420   2.917   0.999
 7612TIP3    H122800   0.388   2.995   0.953
 7612TIP3    H222801   0.485   2.951   1.060
 7613TIP3   OH222802   5.967   2.589   1.399
 7613TIP3    H122803   5.901   2.588   1.329
 7613TIP3    H222804   5.965   2.679   1.431
 7614TIP3   OH222805   2.393   6.783   1.402
 7614TIP3    H122806   2.307   6.768   1.440
 7614TIP3    H222807   2.428   6.858   1.451
 7615TIP3   OH222808   0.087   6.566   2.905
 7615TIP3    H122809   0.047   6.542   2.989
 7615TIP3    H222810   0.013   6.569   2.844
 7616TIP3   OH222811   6.192   0.533   3.009
 7616TIP3    H122812   6.235   0.449   3.001
 7616TIP3    H222813   6.258   0.597   2.982
 7617TIP3   OH222814   4.721   2.937   1.000
 7617TIP3    H122815   4.637   2.925   0.956
 7617TIP3    H222816   4.735   2.855   1.047
 7618TIP3   OH222817   1.657   6.235   3.328
 7618TIP3    H122818   1.721   6.245   3.399
 7618TIP3    H222819   1.627   6.145   3.337
 7619TIP3   OH222820   6.360   3.429   5.839
 7619TIP3    H122821   6.438   3.461   5.885
 7619TIP3    H222822   6.344   3.343   5.878
 7620TIP3   OH222823   0.320   2.849   0.108
 7620TIP3    H122824   0.416   2.842   0.108
 7620TIP3    H222825   0.294   2.833   0.198
 7621TIP3   OH222826   3.054   5.237   4.270
 7621TIP3    H122827   3.137   5.256   4.227
 7621TIP3    H222828   3.040   5.143   4.255
 7622TIP3   OH222829   0.327   0.283   3.965
 7622TIP3    H122830   0.253   0.222   3.963
 7622TIP3    H222831   0.387   0.247   4.030
 7623TIP3   OH222832   2.242   6.260   5.406
 7623TIP3    H122833   2.220   6.313   5.330
 7623TIP3    H222834   2.297   6.317   5.460
 7624TIP3   OH222835   0.007   4.739   5.797
 7624TIP3    H122836   0.021   4.669   5.732
 7624TIP3    H222837   0.039   4.818   5.754
 7625TIP3   OH222838   3.435   5.951   5.728
 7625TIP3    H122839   3.446   5.964   5.822
 7625TIP3    H222840   3.348   5.913   5.719
 7626TIP3   OH222841   0.932   1.187   2.229
 7626TIP3    H122842   1.018   1.152   2.251
 7626TIP3    H222843   0.904   1.235   2.307
 7627TIP3   OH222844   4.450   6.557   3.515
 7627TIP3    H122845   4.411   6.511   3.588
 7627TIP3    H222846   4.416   6.513   3.437
 7628TIP3   OH222847   5.555   0.663   5.158
 7628TIP3    H122848   5.473   0.710   5.178
 7628TIP3    H222849   5.537   0.618   5.076
 7629TIP3   OH222850   6.096   6.272   1.346
 7629TIP3    H122851   6.135   6.359   1.357
 7629TIP3    H222852   6.145   6.216   1.406
 7630TIP3   OH222853   4.537   5.529   1.815
 7630TIP3    H122854   4.530   5.603   1.876
 7630TIP3    H222855   4.512   5.566   1.730
 7631TIP3   OH222856   6.610   0.767   2.499
 7631TIP3    H122857   6.642   0.842   2.550
 7631TIP3    H222858   6.536   0.734   2.550
 7632TIP3   OH222859   6.134   3.974   0.858
 7632TIP3    H122860   6.125   4.015   0.773
 7632TIP3    H222861   6.227   3.951   0.864
 7633TIP3   OH222862   4.382   2.898   4.181
 7633TIP3    H122863   4.370   2.803   4.184
 7633TIP3    H222864   4.324   2.931   4.250
 7634TIP3   OH222865   1.180   0.312   3.991
 7634TIP3    H122866   1.098   0.295   3.945
 7634TIP3    H222867   1.224   0.227   3.994
 7635TIP3   OH222868   1.725   2.570   4.159
 7635TIP3    H122869   1.816   2.578   4.187
 7635TIP3    H222870   1.730   2.548   4.066
 7636TIP3   OH222871   2.676   1.135   3.361
 7636TIP3    H122872   2.638   1.147   3.274
 7636TIP3    H222873   2.716   1.220   3.382
 7637TIP3   OH222874   4.770   4.849   3.568
 7637TIP3    H122875   4.749   4.876   3.479
 7637TIP3    H222876   4.776   4.753   3.563
 7638TIP3   OH222877   5.104   6.420   2.950
 7638TIP3    H122878   5.041   6.489   2.972
 7638TIP3    H222879   5.074   6.386   2.866
 7639TIP3   OH222880   3.282   1.911   3.612
 7639TIP3    H122881   3.321   1.978   3.668
 7639TIP3    H222882   3.288   1.947   3.523
 7640TIP3   OH222883   6.972   5.954   4.211
 7640TIP3    H122884   6.882   5.952   4.243
 7640TIP3    H222885   6.972   6.022   4.144
 7641TIP3   OH222886   3.091   5.545   3.653
 7641TIP3    H122887   3.101   5.564   3.746
 7641TIP3    H222888   3.087   5.630   3.611
 7642TIP3   OH222889   0.538   2.667   1.390
 7642TIP3    H122890   0.616   2.611   1.395
 7642TIP3    H222891   0.508   2.658   1.299
 7643TIP3   OH222892   5.777   5.563   5.574
 7643TIP3    H122893   5.828   5.490   5.611
 7643TIP3    H222894   5.691   5.556   5.616
 7644TIP3   OH222895   6.507   0.641   5.896
 7644TIP3    H122896   6.521   0.641   5.990
 7644TIP3    H222897   6.586   0.683   5.860
 7645TIP3   OH222898   2.123   2.704   1.500
 7645TIP3    H122899   2.030   2.684   1.500
 7645TIP3    H222900   2.166   2.619   1.507
 7646TIP3   OH222901   5.146   5.458   4.836
 7646TIP3    H122902   5.112   5.531   4.888
 7646TIP3    H222903   5.160   5.388   4.900
 7647TIP3   OH222904   4.531   5.183   2.185
 7647TIP3    H122905   4.528   5.090   2.163
 7647TIP3    H222906   4.603   5.218   2.132
 7648TIP3   OH222907   0.105   5.660   1.948
 7648TIP3    H122908   0.128   5.662   1.855
 7648TIP3    H222909   0.010   5.654   1.949
 7649TIP3   OH222910   6.946   0.372   4.247
 7649TIP3    H122911   6.943   0.370   4.151
 7649TIP3    H222912   6.923   0.282   4.273
 7650TIP3   OH222913   0.591   0.979   1.431
 7650TIP3    H122914   0.627   1.014   1.513
 7650TIP3    H222915   0.521   1.041   1.408
 7651TIP3   OH222916   2.064   0.490   1.684
 7651TIP3    H122917   2.150   0.516   1.651
 7651TIP3    H222918   2.042   0.412   1.634
 7652TIP3   OH222919   6.936   1.350   4.419
 7652TIP3    H122920   6.969   1.429   4.462
 7652TIP3    H222921   7.004   1.284   4.437
 7653TIP3   OH222922   0.936   2.340   0.190
 7653TIP3    H122923   0.877   2.265   0.198
 7653TIP3    H222924   0.991   2.320   0.115
 7654TIP3   OH222925   3.056   1.033   1.546
 7654TIP3    H122926   3.099   0.950   1.527
 7654TIP3    H222927   2.963   1.017   1.527
 7655TIP3   OH222928   7.127   1.970   0.115
 7655TIP3    H122929   7.037   1.985   0.086
 7655TIP3    H222930   7.181   2.020   0.053
 7656TIP3   OH222931   1.565   4.137   4.740
 7656TIP3    H122932   1.506   4.182   4.801
 7656TIP3    H222933   1.639   4.197   4.729
 7657TIP3   OH222934   5.829   3.955   3.707
 7657TIP3    H122935   5.839   4.025   3.643
 7657TIP3    H222936   5.846   3.997   3.792
 7658TIP3   OH222937   4.707   4.405   3.789
 7658TIP3    H122938   4.688   4.312   3.777
 7658TIP3    H222939   4.638   4.450   3.739
 7659TIP3   OH222940   5.783   0.839   0.980
 7659TIP3    H122941   5.855   0.864   0.922
 7659TIP3    H222942   5.810   0.755   1.017
 7660TIP3   OH222943   2.478   2.241   0.100
 7660TIP3    H122944   2.392   2.282   0.100
 7660TIP3    H222945   2.524   2.283   0.027
 7661TIP3   OH222946   0.388   4.928   2.919
 7661TIP3    H122947   0.408   5.003   2.862
 7661TIP3    H222948   0.342   4.867   2.862
 7662TIP3   OH222949   3.079   1.188   2.729
 7662TIP3    H122950   3.150   1.174   2.792
 7662TIP3    H222951   3.001   1.200   2.783
 7663TIP3   OH222952   6.489   1.268   3.078
 7663TIP3    H122953   6.488   1.321   3.157
 7663TIP3    H222954   6.398   1.268   3.048
 7664TIP3   OH222955   1.536   4.560   1.976
 7664TIP3    H122956   1.548   4.520   1.890
 7664TIP3    H222957   1.444   4.584   1.978
 7665TIP3   OH222958   3.726   2.551   3.946
 7665TIP3    H122959   3.666   2.495   3.896
 7665TIP3    H222960   3.708   2.530   4.038
 7666TIP3   OH222961   4.532   2.643   0.416
 7666TIP3    H122962   4.494   2.639   0.504
 7666TIP3    H222963   4.456   2.658   0.359
 7667TIP3   OH222964   4.387   3.385   1.314
 7667TIP3    H122965   4.400   3.292   1.334
 7667TIP3    H222966   4.297   3.402   1.341
 7668TIP3   OH222967   2.554   1.641   0.729
 7668TIP3    H122968   2.545   1.559   0.681
 7668TIP3    H222969   2.634   1.630   0.781
 7669TIP3   OH222970   0.458   1.671   4.817
 7669TIP3    H122971   0.502   1.721   4.748
 7669TIP3    H222972   0.503   1.695   4.897
 7670TIP3   OH222973   5.810   6.579   2.609
 7670TIP3    H122974   5.873   6.513   2.580
 7670TIP3    H222975   5.775   6.615   2.528
 7671TIP3   OH222976   4.059   0.146   5.222
 7671TIP3    H122977   4.126   0.203   5.185
 7671TIP3    H222978   4.100   0.109   5.300
 7672TIP3   OH222979   0.783   2.926   2.916
 7672TIP3    H122980   0.860   2.948   2.968
 7672TIP3    H222981   0.805   2.842   2.876
 7673TIP3   OH222982   6.765   2.289   5.647
 7673TIP3    H122983   6.747   2.299   5.554
 7673TIP3    H222984   6.847   2.338   5.661
 7674TIP3   OH222985   4.084   1.809   0.912
 7674TIP3    H122986   4.051   1.743   0.851
 7674TIP3    H222987   4.041   1.890   0.885
 7675TIP3   OH222988   5.127   6.410   4.596
 7675TIP3    H122989   5.052   6.463   4.625
 7675TIP3    H222990   5.182   6.472   4.548
 7676TIP3   OH222991   0.060   4.334   2.157
 7676TIP3    H122992   0.154   4.335   2.176
 7676TIP3    H222993   0.019   4.373   2.235
 7677TIP3   OH222994   0.457   1.858   4.067
 7677TIP3    H122995   0.449   1.776   4.018
 7677TIP3    H222996   0.530   1.904   4.024
 7678TIP3   OH222997   3.962   3.480   2.484
 7678TIP3    H122998   3.919   3.394   2.483
 7678TIP3    H222999   4.054   3.460   2.499
 7679TIP3   OH223000   2.117   4.759   3.008
 7679TIP3    H123001   2.061   4.722   2.940
 7679TIP3    H223002   2.061   4.823   3.052
 7680TIP3   OH223003   1.978   1.878   0.410
 7680TIP3    H123004   1.971   1.860   0.503
 7680TIP3    H223005   2.029   1.805   0.375
 7681TIP3   OH223006   5.217   2.436   4.184
 7681TIP3    H123007   5.273   2.388   4.122
 7681TIP3    H223008   5.276   2.462   4.254
 7682TIP3   OH223009   3.095   2.379   0.040
 7682TIP3    H123010   3.039   2.301   0.031
 7682TIP3    H223011   3.142   2.365   0.122
 7683TIP3   OH223012   7.056   4.489   1.869
 7683TIP3    H123013   6.978   4.452   1.829
 7683TIP3    H223014   7.112   4.414   1.888
 7684TIP3   OH223015   6.534   3.863   3.479
 7684TIP3    H123016   6.558   3.775   3.450
 7684TIP3    H223017   6.446   3.878   3.442
 7685TIP3   OH223018   3.588   5.484   4.256
 7685TIP3    H123019   3.528   5.438   4.314
 7685TIP3    H223020   3.662   5.509   4.312
 7686TIP3   OH223021   2.155   6.042   1.374
 7686TIP3    H123022   2.202   6.124   1.389
 7686TIP3    H223023   2.124   6.047   1.284
 7687TIP3   OH223024   4.094   4.999   2.724
 7687TIP3    H123025   4.104   4.989   2.629
 7687TIP3    H223026   4.052   4.918   2.753
 7688TIP3   OH223027   0.606   1.278   4.511
 7688TIP3    H123028   0.656   1.203   4.479
 7688TIP3    H223029   0.608   1.270   4.606
 7689TIP3   OH223030   6.756   4.586   2.266
 7689TIP3    H123031   6.799   4.587   2.180
 7689TIP3    H223032   6.827   4.564   2.327
 7690TIP3   OH223033   3.574   2.814   5.776
 7690TIP3    H123034   3.513   2.770   5.717
 7690TIP3    H223035   3.521   2.838   5.852
 7691TIP3   OH223036   6.620   0.892   3.491
 7691TIP3    H123037   6.686   0.912   3.558
 7691TIP3    H223038   6.590   0.977   3.460
 7692TIP3   OH223039   6.455   2.476   4.926
 7692TIP3    H123040   6.431   2.517   4.843
 7692TIP3    H223041   6.459   2.548   4.989
 7693TIP3   OH223042   4.118   4.443   4.240
 7693TIP3    H123043   4.204   4.418   4.273
 7693TIP3    H223044   4.081   4.362   4.205
 7694TIP3   OH223045   4.889   0.667   1.713
 7694TIP3    H123046   4.923   0.695   1.798
 7694TIP3    H223047   4.880   0.749   1.664
 7695TIP3   OH223048   1.311   5.866   4.542
 7695TIP3    H123049   1.332   5.954   4.510
 7695TIP3    H223050   1.292   5.815   4.463
 7696TIP3   OH223051   2.527   5.914   2.284
 7696TIP3    H123052   2.472   5.981   2.325
 7696TIP3    H223053   2.465   5.855   2.241
 7697TIP3   OH223054   1.704   4.017   1.737
 7697TIP3    H123055   1.792   3.979   1.737
 7697TIP3    H223056   1.693   4.052   1.825
 7698TIP3   OH223057   4.131   3.535   0.579
 7698TIP3    H123058   4.219   3.518   0.613
 7698TIP3    H223059   4.143   3.540   0.484
 7699TIP3   OH223060   4.207   0.435   5.386
 7699TIP3    H123061   4.263   0.472   5.318
 7699TIP3    H223062   4.254   0.449   5.468
 7700TIP3   OH223063   4.609   2.169   1.650
 7700TIP3    H123064   4.555   2.099   1.687
 7700TIP3    H223065   4.644   2.215   1.727
 7701TIP3   OH223066   7.118   3.374   0.451
 7701TIP3    H123067   7.033   3.329   0.441
 7701TIP3    H223068   7.105   3.434   0.524
 7702TIP3   OH223069   6.246   2.349   1.141
 7702TIP3    H123070   6.192   2.275   1.166
 7702TIP3    H223071   6.325   2.310   1.103
 7703TIP3   OH223072   5.793   6.178   5.567
 7703TIP3    H123073   5.835   6.211   5.646
 7703TIP3    H223074   5.745   6.100   5.596
 7704TIP3   OH223075   1.390   3.897   5.041
 7704TIP3    H123076   1.403   3.854   5.125
 7704TIP3    H223077   1.412   3.831   4.975
 7705TIP3   OH223078   4.831   2.734   2.078
 7705TIP3    H123079   4.842   2.828   2.064
 7705TIP3    H223080   4.747   2.713   2.037
 7706TIP3   OH223081   1.401   2.065   0.719
 7706TIP3    H123082   1.313   2.091   0.691
 7706TIP3    H223083   1.385   2.003   0.791
 7707TIP3   OH223084   6.474   1.163   2.098
 7707TIP3    H123085   6.381   1.151   2.079
 7707TIP3    H223086   6.518   1.091   2.053
 7708TIP3   OH223087   0.571   4.184   4.586
 7708TIP3    H123088   0.511   4.255   4.560
 7708TIP3    H223089   0.625   4.170   4.508
 7709TIP3   OH223090   1.569   1.713   0.098
 7709TIP3    H123091   1.663   1.734   0.105
 7709TIP3    H223092   1.525   1.787   0.141
 7710TIP3   OH223093   6.345   6.403   0.996
 7710TIP3    H123094   6.375   6.314   0.980
 7710TIP3    H223095   6.408   6.440   1.058
 7711TIP3   OH223096   1.836   6.243   5.429
 7711TIP3    H123097   1.841   6.232   5.334
 7711TIP3    H223098   1.742   6.247   5.448
 7712TIP3   OH223099   0.314   6.050   0.147
 7712TIP3    H123100   0.241   6.011   0.194
 7712TIP3    H223101   0.304   6.020   0.057
 7713TIP3   OH223102   1.000   0.160   4.393
 7713TIP3    H123103   1.038   0.123   4.473
 7713TIP3    H223104   1.047   0.242   4.379
 7714TIP3   OH223105   0.947   5.581   2.855
 7714TIP3    H123106   0.908   5.512   2.909
 7714TIP3    H223107   0.885   5.592   2.782
 7715TIP3   OH223108   1.208   4.862   1.282
 7715TIP3    H123109   1.167   4.826   1.361
 7715TIP3    H223110   1.136   4.872   1.220
 7716TIP3   OH223111   2.491   5.886   0.665
 7716TIP3    H123112   2.535   5.966   0.634
 7716TIP3    H223113   2.555   5.817   0.650
 7717TIP3   OH223114   4.189   1.279   4.237
 7717TIP3    H123115   4.248   1.205   4.222
 7717TIP3    H223116   4.170   1.275   4.331
 7718TIP3   OH223117   3.468   2.890   4.338
 7718TIP3    H123118   3.401   2.921   4.277
 7718TIP3    H223119   3.549   2.895   4.289
 7719TIP3   OH223120   7.025   1.727   3.673
 7719TIP3    H123121   6.940   1.771   3.665
 7719TIP3    H223122   7.004   1.640   3.707
 7720TIP3   OH223123   2.999   5.738   3.894
 7720TIP3    H123124   3.059   5.804   3.929
 7720TIP3    H223125   2.968   5.691   3.972
 7721TIP3   OH223126   0.817   4.386   2.997
 7721TIP3    H123127   0.801   4.470   3.040
 7721TIP3    H223128   0.893   4.403   2.942
 7722TIP3   OH223129   2.972   4.801   4.459
 7722TIP3    H123130   2.981   4.712   4.425
 7722TIP3    H223131   2.954   4.854   4.382
 7723TIP3   OH223132   0.409   3.967   5.109
 7723TIP3    H123133   0.485   3.936   5.158
 7723TIP3    H223134   0.445   4.018   5.037
 7724TIP3   OH223135   1.338   0.115   1.063
 7724TIP3    H123136   1.387   0.190   1.095
 7724TIP3    H223137   1.273   0.097   1.131
 7725TIP3   OH223138   1.517   3.557   2.860
 7725TIP3    H123139   1.485   3.487   2.918
 7725TIP3    H223140   1.444   3.620   2.857
 7726TIP3   OH223141   2.996   2.784   0.182
 7726TIP3    H123142   2.994   2.743   0.096
 7726TIP3    H223143   2.904   2.793   0.207
 7727TIP3   OH223144   2.805   1.904   5.060
 7727TIP3    H123145   2.770   1.944   5.139
 7727TIP3    H223146   2.836   1.977   5.008
 7728TIP3   OH223147   1.138   3.849   3.553
 7728TIP3    H123148   1.221   3.801   3.562
 7728TIP3    H223149   1.091   3.802   3.485
 7729TIP3   OH223150   4.279   3.500   2.543
 7729TIP3    H123151   4.304   3.573   2.600
 7729TIP3    H223152   4.264   3.541   2.457
 7730TIP3   OH223153   5.019   0.471   0.180
 7730TIP3    H123154   4.951   0.449   0.116
 7730TIP3    H223155   5.029   0.566   0.174
 7731TIP3   OH223156   0.504   1.635   1.017
 7731TIP3    H123157   0.518   1.547   1.052
 7731TIP3    H223158   0.504   1.622   0.922
 7732TIP3   OH223159   5.643   4.152   0.208
 7732TIP3    H123160   5.676   4.211   0.140
 7732TIP3    H223161   5.636   4.067   0.164
 7733TIP3   OH223162   3.120   4.813   3.479
 7733TIP3    H123163   3.103   4.829   3.572
 7733TIP3    H223164   3.054   4.866   3.434
 7734TIP3   OH223165   5.498   6.165   2.422
 7734TIP3    H123166   5.565   6.119   2.473
 7734TIP3    H223167   5.547   6.214   2.356
 7735TIP3   OH223168   4.153   6.585   0.556
 7735TIP3    H123169   4.163   6.680   0.563
 7735TIP3    H223170   4.073   6.573   0.505
 7736TIP3   OH223171   6.085   5.960   5.075
 7736TIP3    H123172   6.057   6.044   5.111
 7736TIP3    H223173   6.111   5.980   4.985
 7737TIP3   OH223174   0.136   2.855   0.321
 7737TIP3    H123175   0.127   2.765   0.353
 7737TIP3    H223176   0.153   2.906   0.400
 7738TIP3   OH223177   1.651   1.816   4.985
 7738TIP3    H123178   1.584   1.851   5.043
 7738TIP3    H223179   1.663   1.884   4.919
 7739TIP3   OH223180   5.853   1.945   3.829
 7739TIP3    H123181   5.859   1.924   3.736
 7739TIP3    H223182   5.899   1.874   3.873
 7740TIP3   OH223183   7.037   5.626   0.412
 7740TIP3    H123184   6.985   5.549   0.434
 7740TIP3    H223185   7.109   5.626   0.475
 7741TIP3   OH223186   2.440   4.874  -0.005
 7741TIP3    H123187   2.366   4.910  -0.054
 7741TIP3    H223188   2.475   4.949   0.044
 7742TIP3   OH223189   3.257   4.012   3.039
 7742TIP3    H123190   3.182   4.009   2.979
 7742TIP3    H223191   3.227   4.068   3.111
 7743TIP3   OH223192   5.855   5.655   4.197
 7743TIP3    H123193   5.935   5.678   4.244
 7743TIP3    H223194   5.784   5.678   4.258
 7744TIP3   OH223195   4.350   0.985   3.781
 7744TIP3    H123196   4.320   0.955   3.866
 7744TIP3    H223197   4.272   1.019   3.738
 7745TIP3   OH223198   3.657   3.961   5.212
 7745TIP3    H123199   3.676   4.052   5.235
 7745TIP3    H223200   3.735   3.930   5.168
 7746TIP3   OH223201   2.516   5.111   3.382
 7746TIP3    H123202   2.586   5.049   3.405
 7746TIP3    H223203   2.466   5.065   3.314
 7747TIP3   OH223204   0.057   6.242   4.192
 7747TIP3    H123205   0.088   6.157   4.225
 7747TIP3    H223206  -0.031   6.251   4.227
 7748TIP3   OH223207   0.545   2.270   5.052
 7748TIP3    H123208   0.524   2.303   4.965
 7748TIP3    H223209   0.560   2.176   5.039
 7749TIP3   OH223210   2.143   4.844   1.233
 7749TIP3    H123211   2.157   4.908   1.302
 7749TIP3    H223212   2.174   4.887   1.153
 7750TIP3   OH223213   1.607   1.361   1.401
 7750TIP3    H123214   1.622   1.269   1.422
 7750TIP3    H223215   1.637   1.369   1.310
 7751TIP3   OH223216   3.691   3.845   1.856
 7751TIP3    H123217   3.626   3.913   1.875
 7751TIP3    H223218   3.667   3.772   1.913
 7752TIP3   OH223219   3.942   6.011   5.028
 7752TIP3    H123220   3.972   6.030   5.117
 7752TIP3    H223221   3.997   5.939   4.998
 7753TIP3   OH223222   6.283   4.369   3.082
 7753TIP3    H123223   6.349   4.423   3.038
 7753TIP3    H223224   6.320   4.352   3.169
 7754TIP3   OH223225   2.923   5.021   3.339
 7754TIP3    H123226   2.917   5.009   3.244
 7754TIP3    H223227   2.981   5.096   3.351
 7755TIP3   OH223228   5.785   0.553   0.592
 7755TIP3    H123229   5.699   0.575   0.629
 7755TIP3    H223230   5.767   0.543   0.498
 7756TIP3   OH223231   7.134   1.731   0.253
 7756TIP3    H123232   7.153   1.793   0.183
 7756TIP3    H223233   7.194   1.755   0.323
 7757TIP3   OH223234   6.126   2.923   2.005
 7757TIP3    H123235   6.094   2.912   1.915
 7757TIP3    H223236   6.097   3.011   2.029
 7758TIP3   OH223237   4.725   3.247   0.185
 7758TIP3    H123238   4.677   3.251   0.102
 7758TIP3    H223239   4.798   3.308   0.173
 7759TIP3   OH223240   3.376   1.387   0.759
 7759TIP3    H123241   3.359   1.386   0.665
 7759TIP3    H223242   3.457   1.436   0.769
 7760TIP3   OH223243   4.600   2.010   1.203
 7760TIP3    H123244   4.560   2.091   1.235
 7760TIP3    H223245   4.590   1.948   1.276
 7761TIP3   OH223246   4.180   3.633   1.957
 7761TIP3    H123247   4.118   3.587   2.015
 7761TIP3    H223248   4.172   3.725   1.980
 7762TIP3   OH223249   2.299   0.842   5.619
 7762TIP3    H123250   2.352   0.765   5.597
 7762TIP3    H223251   2.306   0.850   5.714
 7763TIP3   OH223252   3.873   0.047   3.467
 7763TIP3    H123253   3.842   0.138   3.475
 7763TIP3    H223254   3.967   0.056   3.452
 7764TIP3   OH223255   3.459   4.260   1.373
 7764TIP3    H123256   3.443   4.299   1.459
 7764TIP3    H223257   3.435   4.329   1.311
 7765TIP3   OH223258   1.230   1.650   1.890
 7765TIP3    H123259   1.302   1.682   1.945
 7765TIP3    H223260   1.164   1.719   1.896
 7766TIP3   OH223261   1.934   2.059   0.171
 7766TIP3    H123262   1.937   2.002   0.248
 7766TIP3    H223263   1.858   2.029   0.121
 7767TIP3   OH223264   3.912   1.964   1.214
 7767TIP3    H123265   3.879   1.874   1.216
 7767TIP3    H223266   3.842   2.015   1.172
 7768TIP3   OH223267   4.578   0.204   0.522
 7768TIP3    H123268   4.629   0.222   0.601
 7768TIP3    H223269   4.502   0.154   0.553
 7769TIP3   OH223270   6.994   1.579   3.249
 7769TIP3    H123271   7.063   1.561   3.185
 7769TIP3    H223272   7.014   1.522   3.323
 7770TIP3   OH223273   1.287   5.127   1.308
 7770TIP3    H123274   1.289   5.036   1.280
 7770TIP3    H223275   1.244   5.173   1.235
 7771TIP3   OH223276   0.169   3.932   1.489
 7771TIP3    H123277   0.191   3.866   1.555
 7771TIP3    H223278   0.155   4.012   1.539
 7772TIP3   OH223279   2.192   6.436   1.132
 7772TIP3    H123280   2.284   6.456   1.114
 7772TIP3    H223281   2.146   6.517   1.112
 7773TIP3   OH223282   2.707   5.537   4.460
 7773TIP3    H123283   2.626   5.572   4.496
 7773TIP3    H223284   2.748   5.612   4.416
 7774TIP3   OH223285   1.252   0.443   4.653
 7774TIP3    H123286   1.274   0.372   4.714
 7774TIP3    H223287   1.198   0.503   4.704
 7775TIP3   OH223288   0.130   0.456   4.701
 7775TIP3    H123289   0.140   0.426   4.610
 7775TIP3    H223290   0.219   0.471   4.732
 7776TIP3   OH223291   6.404   6.450   0.753
 7776TIP3    H123292   6.372   6.446   0.844
 7776TIP3    H223293   6.361   6.528   0.717
 7777TIP3   OH223294   1.914   2.257   3.209
 7777TIP3    H123295   1.911   2.322   3.279
 7777TIP3    H223296   1.958   2.181   3.248
 7778TIP3   OH223297   3.111   4.800   1.164
 7778TIP3    H123298   3.121   4.712   1.129
 7778TIP3    H223299   3.179   4.851   1.119
 7779TIP3   OH223300   3.077   3.531   2.629
 7779TIP3    H123301   3.012   3.577   2.682
 7779TIP3    H223302   3.122   3.601   2.581
 7780TIP3   OH223303   2.001   4.144   3.313
 7780TIP3    H123304   2.038   4.066   3.270
 7780TIP3    H223305   2.076   4.184   3.357
 7781TIP3   OH223306   6.810   6.207   4.740
 7781TIP3    H123307   6.776   6.117   4.734
 7781TIP3    H223308   6.848   6.212   4.828
 7782TIP3   OH223309   1.432   5.602   4.027
 7782TIP3    H123310   1.488   5.528   4.048
 7782TIP3    H223311   1.444   5.617   3.934
 7783TIP3   OH223312   6.057   0.475   2.363
 7783TIP3    H123313   6.037   0.498   2.454
 7783TIP3    H223314   5.974   0.487   2.317
 7784TIP3   OH223315   0.345   4.660   5.891
 7784TIP3    H123316   0.354   4.566   5.908
 7784TIP3    H223317   0.254   4.680   5.914
 7785TIP3   OH223318   2.737   5.418   5.121
 7785TIP3    H123319   2.789   5.340   5.102
 7785TIP3    H223320   2.696   5.440   5.037
 7786TIP3   OH223321   1.763   4.709   3.283
 7786TIP3    H123322   1.746   4.641   3.349
 7786TIP3    H223323   1.775   4.660   3.202
 7787TIP3   OH223324   4.710   6.167   2.858
 7787TIP3    H123325   4.768   6.182   2.933
 7787TIP3    H223326   4.656   6.246   2.854
 7788TIP3   OH223327   2.408   4.546   2.410
 7788TIP3    H123328   2.455   4.477   2.457
 7788TIP3    H223329   2.387   4.506   2.325
 7789TIP3   OH223330   5.289   2.978   2.826
 7789TIP3    H123331   5.359   2.921   2.794
 7789TIP3    H223332   5.259   3.027   2.749
 7790TIP3   OH223333   4.709   5.755   2.195
 7790TIP3    H123334   4.736   5.676   2.242
 7790TIP3    H223335   4.751   5.827   2.242
 7791TIP3   OH223336   6.191   2.629   5.041
 7791TIP3    H123337   6.235   2.713   5.026
 7791TIP3    H223338   6.216   2.575   4.966
 7792TIP3   OH223339   2.056   5.992   3.415
 7792TIP3    H123340   2.034   6.082   3.392
 7792TIP3    H223341   1.971   5.950   3.429
 7793TIP3   OH223342   1.940   5.290   0.613
 7793TIP3    H123343   1.920   5.379   0.644
 7793TIP3    H223344   1.897   5.233   0.676
 7794TIP3   OH223345   6.447   4.231   4.640
 7794TIP3    H123346   6.476   4.142   4.657
 7794TIP3    H223347   6.491   4.256   4.559
 7795TIP3   OH223348   6.434   4.371   1.541
 7795TIP3    H123349   6.358   4.428   1.550
 7795TIP3    H223350   6.445   4.332   1.628
 7796TIP3   OH223351   3.962   3.792   5.021
 7796TIP3    H123352   3.886   3.741   4.992
 7796TIP3    H223353   3.980   3.761   5.109
 7797TIP3   OH223354   1.574   5.889   5.185
 7797TIP3    H123355   1.557   5.952   5.115
 7797TIP3    H223356   1.586   5.805   5.140
 7798TIP3   OH223357   5.750   1.100   0.008
 7798TIP3    H123358   5.764   1.050   0.088
 7798TIP3    H223359   5.695   1.173   0.034
 7799TIP3   OH223360   5.165   1.343   5.353
 7799TIP3    H123361   5.101   1.396   5.401
 7799TIP3    H223362   5.151   1.254   5.385
 7800TIP3   OH223363   6.126   5.095   4.379
 7800TIP3    H123364   6.034   5.118   4.394
 7800TIP3    H223365   6.165   5.176   4.347
 7801TIP3   OH223366   0.383   2.356   0.428
 7801TIP3    H123367   0.327   2.419   0.474
 7801TIP3    H223368   0.406   2.292   0.495
 7802TIP3   OH223369   6.559   6.297   5.322
 7802TIP3    H123370   6.560   6.210   5.361
 7802TIP3    H223371   6.485   6.341   5.363
 7803TIP3   OH223372   3.527   4.061   4.995
 7803TIP3    H123373   3.452   4.087   5.047
 7803TIP3    H223374   3.562   3.985   5.040
 7804TIP3   OH223375   2.228   6.698   1.799
 7804TIP3    H123376   2.317   6.666   1.815
 7804TIP3    H223377   2.214   6.683   1.705
 7805TIP3   OH223378   6.138   6.459   1.830
 7805TIP3    H123379   6.078   6.405   1.882
 7805TIP3    H223380   6.093   6.469   1.746
 7806TIP3   OH223381   1.210   5.099   2.828
 7806TIP3    H123382   1.272   5.172   2.831
 7806TIP3    H223383   1.264   5.021   2.841
 7807TIP3   OH223384   3.038   3.598   4.351
 7807TIP3    H123385   2.954   3.640   4.330
 7807TIP3    H223386   3.015   3.507   4.370
 7808TIP3   OH223387   6.762   6.595   0.776
 7808TIP3    H123388   6.703   6.653   0.727
 7808TIP3    H223389   6.807   6.544   0.709
 7809TIP3   OH223390   1.351   2.282   0.194
 7809TIP3    H123391   1.431   2.236   0.220
 7809TIP3    H223392   1.305   2.220   0.138
 7810TIP3   OH223393   2.521   0.409   1.646
 7810TIP3    H123394   2.549   0.426   1.556
 7810TIP3    H223395   2.599   0.425   1.699
 7811TIP3   OH223396   0.038   6.100   0.229
 7811TIP3    H123397   0.095   6.170   0.260
 7811TIP3    H223398  -0.049   6.123   0.262
 7812TIP3   OH223399   5.202   0.391   1.388
 7812TIP3    H123400   5.147   0.333   1.336
 7812TIP3    H223401   5.209   0.471   1.336
 7813TIP3   OH223402   5.807   3.080   3.310
 7813TIP3    H123403   5.891   3.044   3.283
 7813TIP3    H223404   5.820   3.175   3.312
 7814TIP3   OH223405   6.426   3.235   3.906
 7814TIP3    H123406   6.488   3.205   3.840
 7814TIP3    H223407   6.366   3.161   3.918
 7815TIP3   OH223408   2.030   1.852   2.008
 7815TIP3    H123409   2.036   1.800   2.089
 7815TIP3    H223410   1.978   1.928   2.032
 7816TIP3   OH223411   1.108   3.737   2.153
 7816TIP3    H123412   1.202   3.722   2.150
 7816TIP3    H223413   1.097   3.828   2.125
 7817TIP3   OH223414   4.169   6.302   2.973
 7817TIP3    H123415   4.180   6.397   2.966
 7817TIP3    H223416   4.199   6.268   2.888
 7818TIP3   OH223417   3.262   1.744   5.730
 7818TIP3    H123418   3.278   1.650   5.739
 7818TIP3    H223419   3.167   1.751   5.718
 7819TIP3   OH223420   1.035   3.507   1.907
 7819TIP3    H123421   0.952   3.462   1.922
 7819TIP3    H223422   1.085   3.492   1.987
 7820TIP3   OH223423   0.046   6.195   2.138
 7820TIP3    H123424   0.075   6.222   2.225
 7820TIP3    H223425   0.096   6.115   2.120
 7821TIP3   OH223426   0.440   4.170   3.593
 7821TIP3    H123427   0.449   4.238   3.660
 7821TIP3    H223428   0.529   4.151   3.565
 7822TIP3   OH223429   6.282   2.051   2.727
 7822TIP3    H123430   6.320   2.138   2.736
 7822TIP3    H223431   6.358   1.993   2.719
 7823TIP3   OH223432   3.324   3.103   5.362
 7823TIP3    H123433   3.334   3.048   5.439
 7823TIP3    H223434   3.338   3.192   5.395
 7824TIP3   OH223435   0.103   6.588   5.221
 7824TIP3    H123436   0.026   6.594   5.165
 7824TIP3    H223437   0.117   6.677   5.251
 7825TIP3   OH223438   6.366   3.029   0.065
 7825TIP3    H123439   6.341   3.117   0.094
 7825TIP3    H223440   6.460   3.024   0.081
 7826TIP3   OH223441   6.062   1.845   0.430
 7826TIP3    H123442   6.136   1.879   0.480
 7826TIP3    H223443   5.988   1.849   0.491
 7827TIP3   OH223444   0.576   6.379   2.959
 7827TIP3    H123445   0.552   6.441   2.890
 7827TIP3    H223446   0.588   6.295   2.913
 7828TIP3   OH223447   3.850   5.354   0.130
 7828TIP3    H123448   3.800   5.273   0.138
 7828TIP3    H223449   3.942   5.325   0.131
 7829TIP3   OH223450   3.988   3.444   3.708
 7829TIP3    H123451   4.051   3.379   3.679
 7829TIP3    H223452   4.009   3.459   3.800
 7830TIP3   OH223453   2.144   4.370   4.556
 7830TIP3    H123454   2.142   4.277   4.577
 7830TIP3    H223455   2.233   4.398   4.577
 7831TIP3   OH223456   6.311   1.189   2.570
 7831TIP3    H123457   6.352   1.261   2.616
 7831TIP3    H223458   6.246   1.230   2.513
 7832TIP3   OH223459   6.369   2.438   4.526
 7832TIP3    H123460   6.356   2.511   4.586
 7832TIP3    H223461   6.396   2.478   4.444
 7833TIP3   OH223462   6.780   3.401   3.637
 7833TIP3    H123463   6.769   3.485   3.681
 7833TIP3    H223464   6.769   3.336   3.706
 7834TIP3   OH223465   0.816   5.212   5.558
 7834TIP3    H123466   0.751   5.158   5.602
 7834TIP3    H223467   0.783   5.301   5.566
 7835TIP3   OH223468   2.382   1.864   3.309
 7835TIP3    H123469   2.449   1.853   3.242
 7835TIP3    H223470   2.361   1.776   3.339
 7836TIP3   OH223471   1.560   0.507   3.562
 7836TIP3    H123472   1.592   0.417   3.558
 7836TIP3    H223473   1.488   0.504   3.625
 7837TIP3   OH223474   2.678   0.848   0.527
 7837TIP3    H123475   2.610   0.903   0.488
 7837TIP3    H223476   2.746   0.842   0.459
 7838TIP3   OH223477   6.682   0.596   4.145
 7838TIP3    H123478   6.729   0.513   4.157
 7838TIP3    H223479   6.711   0.629   4.060
 7839TIP3   OH223480   1.472   4.392   0.928
 7839TIP3    H123481   1.524   4.457   0.880
 7839TIP3    H223482   1.532   4.360   0.996
 7840TIP3   OH223483   0.823   1.934   5.188
 7840TIP3    H123484   0.885   2.008   5.190
 7840TIP3    H223485   0.872   1.864   5.144
 7841TIP3   OH223486   2.970   5.146   0.291
 7841TIP3    H123487   2.898   5.129   0.231
 7841TIP3    H223488   2.936   5.210   0.353
 7842TIP3   OH223489   0.024   2.124   2.148
 7842TIP3    H123490   0.028   2.167   2.063
 7842TIP3    H223491   0.013   2.195   2.211
 7843TIP3   OH223492   3.751   1.381   3.615
 7843TIP3    H123493   3.792   1.466   3.598
 7843TIP3    H223494   3.822   1.318   3.610
 7844TIP3   OH223495   2.442   0.007   0.608
 7844TIP3    H123496   2.408   0.023   0.520
 7844TIP3    H223497   2.416   0.084   0.658
 7845TIP3   OH223498   5.071   6.329   0.698
 7845TIP3    H123499   5.165   6.334   0.682
 7845TIP3    H223500   5.052   6.400   0.759
 7846TIP3   OH223501   3.499   6.707   1.226
 7846TIP3    H123502   3.472   6.616   1.239
 7846TIP3    H223503   3.514   6.715   1.132
 7847TIP3   OH223504   0.833   0.591   4.382
 7847TIP3    H123505   0.832   0.549   4.296
 7847TIP3    H223506   0.842   0.518   4.444
 7848TIP3   OH223507   6.751   1.510   5.707
 7848TIP3    H123508   6.789   1.457   5.778
 7848TIP3    H223509   6.671   1.547   5.745
 7849TIP3   OH223510   6.621   3.227   1.629
 7849TIP3    H123511   6.536   3.184   1.625
 7849TIP3    H223512   6.610   3.308   1.579
 7850TIP3   OH223513   7.284   1.486   0.795
 7850TIP3    H123514   7.189   1.502   0.802
 7850TIP3    H223515   7.290   1.393   0.776
 7851TIP3   OH223516   6.248   0.185   2.730
 7851TIP3    H123517   6.246   0.251   2.660
 7851TIP3    H223518   6.305   0.116   2.696
 7852TIP3   OH223519   0.820   1.749   3.031
 7852TIP3    H123520   0.750   1.735   2.967
 7852TIP3    H223521   0.810   1.679   3.095
 7853TIP3   OH223522   6.290   3.386   1.776
 7853TIP3    H123523   6.268   3.405   1.867
 7853TIP3    H223524   6.207   3.359   1.737
 7854TIP3   OH223525   2.346   0.917   2.273
 7854TIP3    H123526   2.347   0.854   2.346
 7854TIP3    H223527   2.437   0.926   2.247
 7855TIP3   OH223528   6.866   0.142   2.605
 7855TIP3    H123529   6.871   0.237   2.608
 7855TIP3    H223530   6.941   0.115   2.552
 7856TIP3   OH223531   0.248   4.320   3.871
 7856TIP3    H123532   0.211   4.323   3.960
 7856TIP3    H223533   0.174   4.296   3.815
 7857TIP3   OH223534   2.664   5.413   5.599
 7857TIP3    H123535   2.625   5.370   5.523
 7857TIP3    H223536   2.727   5.474   5.562
 7858TIP3   OH223537   3.204   4.644   5.772
 7858TIP3    H123538   3.207   4.734   5.805
 7858TIP3    H223539   3.111   4.622   5.771
 7859TIP3   OH223540   2.990   1.043   5.735
 7859TIP3    H123541   2.898   1.066   5.731
 7859TIP3    H223542   3.005   0.988   5.659
 7860TIP3   OH223543   3.551   3.264   1.655
 7860TIP3    H123544   3.522   3.222   1.736
 7860TIP3    H223545   3.646   3.268   1.664
 7861TIP3   OH223546   3.351   3.608   2.107
 7861TIP3    H123547   3.305   3.692   2.108
 7861TIP3    H223548   3.281   3.543   2.100
 7862TIP3   OH223549   4.413   6.594   0.257
 7862TIP3    H123550   4.439   6.503   0.270
 7862TIP3    H223551   4.432   6.611   0.164
 7863TIP3   OH223552   0.697   3.164   3.295
 7863TIP3    H123553   0.709   3.087   3.240
 7863TIP3    H223554   0.609   3.154   3.332
 7864TIP3   OH223555   3.069   4.349   1.196
 7864TIP3    H123556   2.982   4.366   1.233
 7864TIP3    H223557   3.054   4.278   1.133
 7865TIP3   OH223558   7.148   3.624   2.721
 7865TIP3    H123559   7.166   3.686   2.792
 7865TIP3    H223560   7.225   3.629   2.664
 7866TIP3   OH223561   4.512   4.500   1.044
 7866TIP3    H123562   4.435   4.539   1.085
 7866TIP3    H223563   4.479   4.419   1.004
 7867TIP3   OH223564   6.665   2.421   1.150
 7867TIP3    H123565   6.638   2.479   1.222
 7867TIP3    H223566   6.695   2.342   1.194
 7868TIP3   OH223567   6.824   6.194   5.601
 7868TIP3    H123568   6.831   6.125   5.667
 7868TIP3    H223569   6.767   6.260   5.640
 7869TIP3   OH223570   4.148   0.185   0.115
 7869TIP3    H123571   4.161   0.176   0.210
 7869TIP3    H223572   4.232   0.219   0.083
 7870TIP3   OH223573   3.700   6.242   1.982
 7870TIP3    H123574   3.707   6.269   1.891
 7870TIP3    H223575   3.618   6.281   2.013
 7871TIP3   OH223576   4.631   1.111   1.752
 7871TIP3    H123577   4.561   1.173   1.733
 7871TIP3    H223578   4.710   1.164   1.752
 7872TIP3   OH223579   0.634   4.882   3.025
 7872TIP3    H123580   0.557   4.913   2.979
 7872TIP3    H223581   0.705   4.938   2.994
 7873TIP3   OH223582   3.327   6.429   2.865
 7873TIP3    H123583   3.408   6.385   2.837
 7873TIP3    H223584   3.350   6.522   2.866
 7874TIP3   OH223585   2.426   0.501   3.809
 7874TIP3    H123586   2.510   0.541   3.787
 7874TIP3    H223587   2.378   0.570   3.855
 7875TIP3   OH223588   4.879   2.671   1.371
 7875TIP3    H123589   4.788   2.660   1.398
 7875TIP3    H223590   4.873   2.698   1.280
 7876TIP3   OH223591   1.785   1.647   2.985
 7876TIP3    H123592   1.855   1.705   2.957
 7876TIP3    H223593   1.706   1.683   2.945
 7877TIP3   OH223594   2.506   2.442   2.859
 7877TIP3    H123595   2.515   2.508   2.928
 7877TIP3    H223596   2.596   2.413   2.843
 7878TIP3   OH223597   1.793   2.644   5.377
 7878TIP3    H123598   1.855   2.715   5.393
 7878TIP3    H223599   1.727   2.681   5.319
 7879TIP3   OH223600   6.772   5.395   0.304
 7879TIP3    H123601   6.827   5.318   0.319
 7879TIP3    H223602   6.808   5.436   0.226
 7880TIP3   OH223603   7.084   1.444   3.755
 7880TIP3    H123604   7.066   1.405   3.840
 7880TIP3    H223605   7.171   1.410   3.731
 7881TIP3   OH223606   0.022   2.500   0.897
 7881TIP3    H123607  -0.022   2.553   0.963
 7881TIP3    H223608   0.098   2.552   0.871
 7882TIP3   OH223609   5.306   3.953   5.172
 7882TIP3    H123610   5.239   3.972   5.106
 7882TIP3    H223611   5.263   3.973   5.256
 7883TIP3   OH223612   3.373   6.197   5.033
 7883TIP3    H123613   3.358   6.244   5.115
 7883TIP3    H223614   3.444   6.246   4.990
 7884TIP3   OH223615   4.848   2.746   4.471
 7884TIP3    H123616   4.818   2.833   4.442
 7884TIP3    H223617   4.887   2.708   4.392
 7885TIP3   OH223618   3.462   3.145   1.910
 7885TIP3    H123619   3.385   3.095   1.938
 7885TIP3    H223620   3.495   3.186   1.990
 7886TIP3   OH223621   5.022   5.442   2.166
 7886TIP3    H123622   5.031   5.527   2.123
 7886TIP3    H223623   5.043   5.459   2.258
 7887TIP3   OH223624   3.725   4.094   1.252
 7887TIP3    H123625   3.711   4.000   1.239
 7887TIP3    H223626   3.653   4.136   1.205
 7888TIP3   OH223627   3.034   5.984   3.581
 7888TIP3    H123628   2.939   5.971   3.570
 7888TIP3    H223629   3.058   6.045   3.512
 7889TIP3   OH223630   4.721   6.148   5.680
 7889TIP3    H123631   4.644   6.138   5.625
 7889TIP3    H223632   4.700   6.223   5.737
 7890TIP3   OH223633   2.487   4.011   4.808
 7890TIP3    H123634   2.467   4.104   4.803
 7890TIP3    H223635   2.433   3.978   4.879
 7891TIP3   OH223636   5.090   3.886   4.846
 7891TIP3    H123637   5.146   3.810   4.856
 7891TIP3    H223638   5.027   3.879   4.918
 7892TIP3   OH223639   5.529   1.743   4.071
 7892TIP3    H123640   5.559   1.673   4.013
 7892TIP3    H223641   5.519   1.819   4.013
 7893TIP3   OH223642   6.347   3.635   3.296
 7893TIP3    H123643   6.277   3.692   3.264
 7893TIP3    H223644   6.414   3.637   3.227
 7894TIP3   OH223645   3.824   4.007   1.529
 7894TIP3    H123646   3.836   3.982   1.438
 7894TIP3    H223647   3.845   3.927   1.579
 7895TIP3   OH223648   5.970   4.350   3.917
 7895TIP3    H123649   6.015   4.434   3.932
 7895TIP3    H223650   6.032   4.284   3.946
 7896TIP3   OH223651   3.735   5.887   0.332
 7896TIP3    H123652   3.703   5.903   0.420
 7896TIP3    H223653   3.738   5.792   0.323
 7897TIP3   OH223654   2.927   3.314   3.380
 7897TIP3    H123655   2.870   3.246   3.343
 7897TIP3    H223656   2.932   3.294   3.473
 7898TIP3   OH223657   5.524   4.121   3.269
 7898TIP3    H123658   5.553   4.088   3.354
 7898TIP3    H223659   5.605   4.139   3.221
 7899TIP3   OH223660   1.641   4.827   4.512
 7899TIP3    H123661   1.711   4.866   4.562
 7899TIP3    H223662   1.562   4.875   4.539
 7900TIP3   OH223663   6.117   6.537   5.088
 7900TIP3    H123664   6.198   6.566   5.131
 7900TIP3    H223665   6.056   6.610   5.102
 7901TIP3   OH223666   0.387   4.700   1.039
 7901TIP3    H123667   0.411   4.762   1.109
 7901TIP3    H223668   0.435   4.730   0.963
 7902TIP3   OH223669   3.303   2.421   4.233
 7902TIP3    H123670   3.342   2.337   4.258
 7902TIP3    H223671   3.330   2.481   4.302
 7903TIP3   OH223672   0.225   5.699   3.787
 7903TIP3    H123673   0.211   5.695   3.882
 7903TIP3    H223674   0.141   5.727   3.752
 7904TIP3   OH223675   3.534   2.526   0.944
 7904TIP3    H123676   3.611   2.576   0.972
 7904TIP3    H223677   3.461   2.586   0.954
 7905TIP3   OH223678   2.111   0.634   0.837
 7905TIP3    H123679   2.164   0.609   0.761
 7905TIP3    H223680   2.033   0.676   0.799
 7906TIP3   OH223681   5.865   3.246   4.260
 7906TIP3    H123682   5.895   3.285   4.342
 7906TIP3    H223683   5.784   3.293   4.239
 7907TIP3   OH223684   3.923   0.164   3.985
 7907TIP3    H123685   3.962   0.122   3.908
 7907TIP3    H223686   3.863   0.229   3.948
 7908TIP3   OH223687   2.044   4.157   0.508
 7908TIP3    H123688   2.125   4.131   0.464
 7908TIP3    H223689   1.995   4.206   0.442
 7909TIP3   OH223690   7.035   6.207   0.616
 7909TIP3    H123691   7.106   6.205   0.681
 7909TIP3    H223692   6.989   6.124   0.627
 7910TIP3   OH223693   6.581   1.766   4.027
 7910TIP3    H123694   6.576   1.818   4.107
 7910TIP3    H223695   6.659   1.711   4.038
 7911TIP3   OH223696   4.958   6.585   0.469
 7911TIP3    H123697   4.887   6.522   0.455
 7911TIP3    H223698   5.032   6.546   0.422
 7912TIP3   OH223699   4.485   3.325   2.524
 7912TIP3    H123700   4.539   3.359   2.453
 7912TIP3    H223701   4.418   3.391   2.538
 7913TIP3   OH223702   1.558   1.482   3.949
 7913TIP3    H123703   1.624   1.462   4.016
 7913TIP3    H223704   1.503   1.549   3.989
 7914TIP3   OH223705   0.740   0.438   3.321
 7914TIP3    H123706   0.745   0.414   3.413
 7914TIP3    H223707   0.712   0.530   3.322
 7915TIP3   OH223708   6.826   4.806   0.265
 7915TIP3    H123709   6.865   4.872   0.208
 7915TIP3    H223710   6.732   4.810   0.246
 7916TIP3   OH223711   0.254   1.749   1.359
 7916TIP3    H123712   0.268   1.838   1.391
 7916TIP3    H223713   0.159   1.741   1.352
 7917TIP3   OH223714   7.230   0.693   1.896
 7917TIP3    H123715   7.293   0.724   1.961
 7917TIP3    H223716   7.266   0.722   1.812
 7918TIP3   OH223717   6.243   3.905   5.881
 7918TIP3    H123718   6.232   3.820   5.838
 7918TIP3    H223719   6.263   3.884   5.972
 7919TIP3   OH223720   0.686   5.935   1.274
 7919TIP3    H123721   0.751   6.005   1.279
 7919TIP3    H223722   0.612   5.967   1.326
 7920TIP3   OH223723   0.860   0.159   5.659
 7920TIP3    H123724   0.909   0.218   5.717
 7920TIP3    H223725   0.884   0.188   5.570
 7921TIP3   OH223726   5.142   2.196   1.223
 7921TIP3    H123727   5.237   2.199   1.233
 7921TIP3    H223728   5.117   2.285   1.199
 7922TIP3   OH223729   1.833   1.718   0.181
 7922TIP3    H123730   1.811   1.624   0.183
 7922TIP3    H223731   1.819   1.747   0.271
 7923TIP3   OH223732   5.594   1.118   1.657
 7923TIP3    H123733   5.623   1.094   1.745
 7923TIP3    H223734   5.576   1.034   1.614
 7924TIP3   OH223735   1.369   6.472   2.601
 7924TIP3    H123736   1.371   6.505   2.691
 7924TIP3    H223737   1.331   6.385   2.609
 7925TIP3   OH223738   6.870   1.449   3.585
 7925TIP3    H123739   6.953   1.454   3.632
 7925TIP3    H223740   6.880   1.376   3.524
 7926TIP3   OH223741   0.567   3.854   1.672
 7926TIP3    H123742   0.626   3.883   1.741
 7926TIP3    H223743   0.479   3.867   1.708
 7927TIP3   OH223744   5.705   4.333   5.294
 7927TIP3    H123745   5.768   4.400   5.319
 7927TIP3    H223746   5.636   4.382   5.248
 7928TIP3   OH223747   6.127   0.466   5.522
 7928TIP3    H123748   6.092   0.391   5.570
 7928TIP3    H223749   6.084   0.460   5.436
 7929TIP3   OH223750   3.954   0.064   1.169
 7929TIP3    H123751   3.936  -0.026   1.139
 7929TIP3    H223752   3.901   0.119   1.111
 7930TIP3   OH223753   3.657   4.880   1.779
 7930TIP3    H123754   3.726   4.902   1.841
 7930TIP3    H223755   3.652   4.956   1.721
 7931TIP3   OH223756   5.523   3.862   4.070
 7931TIP3    H123757   5.540   3.941   4.019
 7931TIP3    H223758   5.582   3.871   4.146
 7932TIP3   OH223759   0.126   0.772   1.619
 7932TIP3    H123760   0.131   0.863   1.648
 7932TIP3    H223761   0.216   0.740   1.623
 7933TIP3   OH223762   4.383   6.493   2.125
 7933TIP3    H123763   4.291   6.492   2.099
 7933TIP3    H223764   4.382   6.508   2.220
 7934TIP3   OH223765   3.196   5.537   4.146
 7934TIP3    H123766   3.249   5.463   4.175
 7934TIP3    H223767   3.151   5.505   4.068
 7935TIP3   OH223768   5.400   6.151   4.816
 7935TIP3    H123769   5.408   6.063   4.778
 7935TIP3    H223770   5.335   6.142   4.885
 7936TIP3   OH223771   4.509   3.678   0.045
 7936TIP3    H123772   4.501   3.604   0.106
 7936TIP3    H223773   4.450   3.745   0.081
 7937TIP3   OH223774   3.097   1.904   1.312
 7937TIP3    H123775   3.007   1.898   1.279
 7937TIP3    H223776   3.126   1.813   1.320
 7938TIP3   OH223777   3.584   4.470   2.477
 7938TIP3    H123778   3.625   4.385   2.495
 7938TIP3    H223779   3.645   4.534   2.512
 7939TIP3   OH223780   6.798   3.072   1.407
 7939TIP3    H123781   6.755   3.156   1.418
 7939TIP3    H223782   6.728   3.011   1.384
 7940TIP3   OH223783   1.156   3.965   5.359
 7940TIP3    H123784   1.137   3.888   5.414
 7940TIP3    H223785   1.155   3.931   5.270
 7941TIP3   OH223786   2.842   0.057   5.168
 7941TIP3    H123787   2.824   0.136   5.118
 7941TIP3    H223788   2.931   0.032   5.143
 7942TIP3   OH223789   3.384   3.770   0.750
 7942TIP3    H123790   3.329   3.835   0.705
 7942TIP3    H223791   3.322   3.719   0.802
 7943TIP3   OH223792   3.240   5.699   0.358
 7943TIP3    H123793   3.202   5.763   0.419
 7943TIP3    H223794   3.330   5.689   0.388
 7944TIP3   OH223795   0.402   4.617   5.327
 7944TIP3    H123796   0.373   4.535   5.287
 7944TIP3    H223797   0.482   4.639   5.280
 7945TIP3   OH223798   0.661   0.375   5.283
 7945TIP3    H123799   0.588   0.324   5.317
 7945TIP3    H223800   0.620   0.446   5.234
 7946TIP3   OH223801   4.875   4.489   5.765
 7946TIP3    H123802   4.885   4.397   5.790
 7946TIP3    H223803   4.837   4.486   5.677
 7947TIP3   OH223804   5.997   0.194   2.880
 7947TIP3    H123805   6.080   0.170   2.840
 7947TIP3    H223806   6.016   0.271   2.932
 7948TIP3   OH223807   1.057   0.874   3.747
 7948TIP3    H123808   1.000   0.800   3.727
 7948TIP3    H223809   1.145   0.844   3.723
 7949TIP3   OH223810   7.023   1.858   4.606
 7949TIP3    H123811   7.045   1.936   4.555
 7949TIP3    H223812   7.097   1.845   4.665
 7950TIP3   OH223813   6.632   4.884   2.585
 7950TIP3    H123814   6.692   4.913   2.653
 7950TIP3    H223815   6.605   4.797   2.612
 7951TIP3   OH223816   2.081   0.379   2.760
 7951TIP3    H123817   2.143   0.342   2.823
 7951TIP3    H223818   2.000   0.390   2.809
 7952TIP3   OH223819   1.336   5.905   1.107
 7952TIP3    H123820   1.366   5.971   1.045
 7952TIP3    H223821   1.329   5.825   1.056
 7953TIP3   OH223822   5.899   4.544   2.773
 7953TIP3    H123823   5.969   4.557   2.709
 7953TIP3    H223824   5.943   4.511   2.851
 7954TIP3   OH223825   7.152   5.402   1.616
 7954TIP3    H123826   7.202   5.340   1.562
 7954TIP3    H223827   7.077   5.426   1.562
 7955TIP3   OH223828   6.486   1.518   0.677
 7955TIP3    H123829   6.417   1.581   0.698
 7955TIP3    H223830   6.501   1.529   0.583
 7956TIP3   OH223831   6.507   0.892   5.281
 7956TIP3    H123832   6.522   0.851   5.366
 7956TIP3    H223833   6.593   0.928   5.256
 7957TIP3   OH223834   1.977   6.067   1.843
 7957TIP3    H123835   2.057   6.023   1.873
 7957TIP3    H223836   1.966   6.037   1.753
 7958TIP3   OH223837   5.275   2.422   1.822
 7958TIP3    H123838   5.288   2.510   1.858
 7958TIP3    H223839   5.360   2.380   1.831
 7959TIP3   OH223840   3.703   4.211   2.023
 7959TIP3    H123841   3.784   4.214   1.971
 7959TIP3    H223842   3.633   4.228   1.960
 7960TIP3   OH223843   4.866   6.495   3.014
 7960TIP3    H123844   4.811   6.572   3.001
 7960TIP3    H223845   4.827   6.428   2.958
 7961TIP3   OH223846   6.414   0.607   4.572
 7961TIP3    H123847   6.392   0.626   4.664
 7961TIP3    H223848   6.351   0.658   4.521
 7962TIP3   OH223849   1.903   4.009   0.231
 7962TIP3    H123850   1.876   3.966   0.312
 7962TIP3    H223851   1.913   4.101   0.255
 7963TIP3   OH223852   4.163   3.440   0.326
 7963TIP3    H123853   4.090   3.487   0.286
 7963TIP3    H223854   4.163   3.355   0.283
 7964TIP3   OH223855   5.330   0.415   4.264
 7964TIP3    H123856   5.243   0.391   4.296
 7964TIP3    H223857   5.316   0.434   4.171
 7965TIP3   OH223858   6.785   0.441   2.275
 7965TIP3    H123859   6.799   0.528   2.239
 7965TIP3    H223860   6.825   0.444   2.362
 7966TIP3   OH223861   0.058   5.842   4.497
 7966TIP3    H123862   0.132   5.785   4.519
 7966TIP3    H223863  -0.019   5.788   4.513
 7967TIP3   OH223864   1.120   3.647   4.957
 7967TIP3    H123865   1.195   3.605   5.000
 7967TIP3    H223866   1.160   3.709   4.896
 7968TIP3   OH223867   0.778   1.072   2.694
 7968TIP3    H123868   0.725   1.090   2.772
 7968TIP3    H223869   0.714   1.067   2.623
 7969TIP3   OH223870   3.076   2.842   3.990
 7969TIP3    H123871   3.103   2.753   4.010
 7969TIP3    H223872   2.980   2.838   3.991
 7970TIP3   OH223873   5.608   2.545   0.935
 7970TIP3    H123874   5.559   2.472   0.973
 7970TIP3    H223875   5.598   2.616   0.998
 7971TIP3   OH223876   3.897   0.924   4.689
 7971TIP3    H123877   3.902   1.016   4.663
 7971TIP3    H223878   3.803   0.906   4.697
 7972TIP3   OH223879   5.839   5.166   4.364
 7972TIP3    H123880   5.815   5.075   4.347
 7972TIP3    H223881   5.756   5.214   4.355
 7973TIP3   OH223882   3.022   3.381   4.515
 7973TIP3    H123883   3.032   3.316   4.585
 7973TIP3    H223884   3.104   3.431   4.517
 7974TIP3   OH223885   4.765   0.704   3.873
 7974TIP3    H123886   4.806   0.619   3.861
 7974TIP3    H223887   4.781   0.751   3.791
 7975TIP3   OH223888   5.117   3.914   4.099
 7975TIP3    H123889   5.122   3.911   4.004
 7975TIP3    H223890   5.074   3.832   4.124
 7976TIP3   OH223891   0.463   0.515   3.180
 7976TIP3    H123892   0.371   0.524   3.205
 7976TIP3    H223893   0.502   0.600   3.200
 7977TIP3   OH223894   5.907   2.487   4.164
 7977TIP3    H123895   5.968   2.513   4.095
 7977TIP3    H223896   5.825   2.530   4.140
 7978TIP3   OH223897   6.469   0.170   2.176
 7978TIP3    H123898   6.379   0.193   2.198
 7978TIP3    H223899   6.522   0.219   2.239
 7979TIP3   OH223900   2.404   6.208   3.302
 7979TIP3    H123901   2.332   6.176   3.357
 7979TIP3    H223902   2.409   6.301   3.322
 7980TIP3   OH223903   6.488   0.917   0.956
 7980TIP3    H123904   6.440   0.925   1.039
 7980TIP3    H223905   6.580   0.923   0.981
 7981TIP3   OH223906   0.180   6.292   5.768
 7981TIP3    H123907   0.181   6.343   5.849
 7981TIP3    H223908   0.089   6.296   5.738
 7982TIP3   OH223909   0.301   1.144   0.496
 7982TIP3    H123910   0.348   1.224   0.520
 7982TIP3    H223911   0.280   1.103   0.580
 7983TIP3   OH223912   5.126   1.517   3.224
 7983TIP3    H123913   5.143   1.427   3.195
 7983TIP3    H223914   5.213   1.557   3.229
 7984TIP3   OH223915   1.077   1.919   3.006
 7984TIP3    H123916   1.076   1.963   2.921
 7984TIP3    H223917   1.014   1.847   2.996
 7985TIP3   OH223918   4.729   6.245   0.034
 7985TIP3    H123919   4.813   6.218  -0.002
 7985TIP3    H223920   4.712   6.183   0.105
 7986TIP3   OH223921   2.314   5.515   2.051
 7986TIP3    H123922   2.348   5.480   1.969
 7986TIP3    H223923   2.389   5.513   2.111
 7987TIP3   OH223924   4.211   2.610   4.963
 7987TIP3    H123925   4.227   2.655   5.046
 7987TIP3    H223926   4.262   2.660   4.899
 7988TIP3   OH223927   5.327   2.555   3.186
 7988TIP3    H123928   5.413   2.539   3.148
 7988TIP3    H223929   5.291   2.468   3.201
 7989TIP3   OH223930   2.190   2.632   3.300
 7989TIP3    H123931   2.249   2.686   3.351
 7989TIP3    H223932   2.106   2.678   3.303
 7990TIP3   OH223933   3.915   4.664   1.719
 7990TIP3    H123934   3.996   4.656   1.770
 7990TIP3    H223935   3.927   4.743   1.667
 7991TIP3   OH223936   3.917   1.874   4.587
 7991TIP3    H123937   3.870   1.840   4.511
 7991TIP3    H223938   3.860   1.854   4.661
 7992TIP3   OH223939   4.448   6.058   3.891
 7992TIP3    H123940   4.504   6.004   3.947
 7992TIP3    H223941   4.501   6.134   3.870
 7993TIP3   OH223942   0.225   2.314   4.808
 7993TIP3    H123943   0.319   2.331   4.813
 7993TIP3    H223944   0.189   2.356   4.886
 7994TIP3   OH223945   3.967   1.940   3.863
 7994TIP3    H123946   4.036   2.005   3.883
 7994TIP3    H223947   4.007   1.882   3.799
 7995TIP3   OH223948   3.749   0.683   2.544
 7995TIP3    H123949   3.662   0.724   2.552
 7995TIP3    H223950   3.743   0.605   2.599
 7996TIP3   OH223951   3.851   5.237   4.691
 7996TIP3    H123952   3.840   5.143   4.676
 7996TIP3    H223953   3.920   5.264   4.631
 7997TIP3   OH223954   0.597   3.099   0.290
 7997TIP3    H123955   0.523   3.159   0.292
 7997TIP3    H223956   0.575   3.031   0.354
 7998TIP3   OH223957   4.935   5.914   4.128
 7998TIP3    H123958   4.982   5.851   4.183
 7998TIP3    H223959   4.941   5.877   4.040
 7999TIP3   OH223960   6.326   4.721   4.219
 7999TIP3    H123961   6.234   4.741   4.237
 7999TIP3    H223962   6.341   4.635   4.259
 8000TIP3   OH223963   4.055   5.144   4.272
 8000TIP3    H123964   4.068   5.049   4.266
 8000TIP3    H223965   3.970   5.159   4.229
 8001TIP3   OH223966   2.919   5.577   0.097
 8001TIP3    H123967   2.901   5.670   0.086
 8001TIP3    H223968   2.859   5.533   0.037
 8002TIP3   OH223969   0.933   4.023   3.767
 8002TIP3    H123970   1.020   3.994   3.796
 8002TIP3    H223971   0.887   3.941   3.745
 8003TIP3   OH223972   6.905   0.084   0.089
 8003TIP3    H123973   6.949   0.164   0.060
 8003TIP3    H223974   6.815   0.095   0.060
 8004TIP3   OH223975   1.520   6.716   0.616
 8004TIP3    H123976   1.459   6.773   0.663
 8004TIP3    H223977   1.540   6.764   0.535
 8005TIP3   OH223978   3.417   6.346   5.677
 8005TIP3    H123979   3.392   6.304   5.760
 8005TIP3    H223980   3.457   6.275   5.626
 8006TIP3   OH223981   1.404   2.046   2.953
 8006TIP3    H123982   1.445   1.980   3.008
 8006TIP3    H223983   1.361   1.996   2.884
 8007TIP3   OH223984   7.132   0.648   5.514
 8007TIP3    H123985   7.060   0.608   5.562
 8007TIP3    H223986   7.156   0.583   5.449
 8008TIP3   OH223987   5.017   3.402   4.416
 8008TIP3    H123988   5.004   3.497   4.405
 8008TIP3    H223989   5.001   3.387   4.509
 8009TIP3   OH223990   5.325   2.582   5.523
 8009TIP3    H123991   5.404   2.635   5.512
 8009TIP3    H223992   5.275   2.627   5.592
 8010TIP3   OH223993   3.045   0.035   0.375
 8010TIP3    H123994   3.077   0.012   0.462
 8010TIP3    H223995   3.106  -0.006   0.315
 8011TIP3   OH223996   0.077   0.728   1.134
 8011TIP3    H123997   0.166   0.714   1.168
 8011TIP3    H223998   0.031   0.647   1.154
 8012TIP3   OH223999   0.088   5.177   5.418
 8012TIP3    H124000   0.061   5.269   5.408
 8012TIP3    H224001   0.073   5.138   5.332
 8013TIP3   OH224002   0.425   1.448   3.136
 8013TIP3    H124003   0.425   1.480   3.226
 8013TIP3    H224004   0.372   1.512   3.088
 8014TIP3   OH224005   2.600   4.531   5.499
 8014TIP3    H124006   2.668   4.578   5.451
 8014TIP3    H224007   2.641   4.449   5.525
 8015TIP3   OH224008   1.992   6.290   5.852
 8015TIP3    H124009   2.037   6.243   5.782
 8015TIP3    H224010   1.899   6.271   5.837
 8016TIP3   OH224011   3.599   1.039   0.820
 8016TIP3    H124012   3.550   1.003   0.746
 8016TIP3    H224013   3.532   1.060   0.886
 8017TIP3   OH224014   4.802   3.723   1.583
 8017TIP3    H124015   4.879   3.716   1.639
 8017TIP3    H224016   4.732   3.679   1.632
 8018TIP3   OH224017   3.930   2.689   5.579
 8018TIP3    H124018   3.984   2.625   5.624
 8018TIP3    H224019   3.843   2.677   5.616
 8019TIP3   OH224020   6.084   1.545   1.037
 8019TIP3    H124021   5.998   1.554   0.997
 8019TIP3    H224022   6.068   1.555   1.131
 8020TIP3   OH224023   7.063   5.464   3.624
 8020TIP3    H124024   7.129   5.518   3.668
 8020TIP3    H224025   7.046   5.510   3.542
 8021TIP3   OH224026   1.568   4.153   1.057
 8021TIP3    H124027   1.587   4.060   1.067
 8021TIP3    H224028   1.652   4.196   1.071
 8022TIP3   OH224029   6.915   2.947   0.935
 8022TIP3    H124030   6.894   2.864   0.977
 8022TIP3    H224031   6.912   3.011   1.006
 8023TIP3   OH224032   4.501   2.473   1.526
 8023TIP3    H124033   4.526   2.493   1.436
 8023TIP3    H224034   4.411   2.441   1.519
 8024TIP3   OH224035   0.365   0.655   2.665
 8024TIP3    H124036   0.315   0.674   2.586
 8024TIP3    H224037   0.456   0.649   2.636
 8025TIP3   OH224038   5.450   6.207   1.966
 8025TIP3    H124039   5.446   6.259   2.046
 8025TIP3    H224040   5.404   6.126   1.987
 8026TIP3   OH224041   0.081   6.214   1.669
 8026TIP3    H124042   0.014   6.160   1.627
 8026TIP3    H224043   0.162   6.193   1.623
 8027TIP3   OH224044   2.476   5.515   2.907
 8027TIP3    H124045   2.562   5.552   2.925
 8027TIP3    H224046   2.418   5.557   2.970
 8028TIP3   OH224047   1.004   1.560   3.908
 8028TIP3    H124048   0.916   1.580   3.939
 8028TIP3    H224049   1.042   1.645   3.886
 8029TIP3   OH224050   4.358   1.557   3.528
 8029TIP3    H124051   4.319   1.496   3.465
 8029TIP3    H224052   4.321   1.642   3.504
 8030TIP3   OH224053   2.214   5.873   0.759
 8030TIP3    H124054   2.303   5.852   0.731
 8030TIP3    H224055   2.158   5.815   0.707
 8031TIP3   OH224056   6.302   1.458   5.753
 8031TIP3    H124057   6.308   1.431   5.845
 8031TIP3    H224058   6.380   1.421   5.712
 8032TIP3   OH224059   7.158   3.024   1.859
 8032TIP3    H124060   7.155   3.042   1.953
 8032TIP3    H224061   7.095   3.086   1.821
 8033TIP3   OH224062   1.032   3.338   4.186
 8033TIP3    H124063   1.025   3.430   4.211
 8033TIP3    H224064   0.960   3.295   4.233
 8034TIP3   OH224065   0.696   2.030   3.962
 8034TIP3    H124066   0.735   2.085   4.030
 8034TIP3    H224067   0.635   2.088   3.917
 8035TIP3   OH224068   1.099   2.511   5.409
 8035TIP3    H124069   1.031   2.465   5.457
 8035TIP3    H224070   1.147   2.560   5.476
 8036TIP3   OH224071   5.405   0.276   0.536
 8036TIP3    H124072   5.337   0.222   0.495
 8036TIP3    H224073   5.476   0.215   0.554
 8037TIP3   OH224074   2.018   3.863   3.448
 8037TIP3    H124075   2.014   3.916   3.369
 8037TIP3    H224076   2.072   3.913   3.509
 8038TIP3   OH224077   4.296   2.049   4.466
 8038TIP3    H124078   4.258   1.963   4.486
 8038TIP3    H224079   4.343   2.036   4.384
 8039TIP3   OH224080   3.534   4.917   3.709
 8039TIP3    H124081   3.576   4.927   3.624
 8039TIP3    H224082   3.606   4.906   3.770
 8040TIP3   OH224083   4.441   6.455   1.366
 8040TIP3    H124084   4.395   6.519   1.420
 8040TIP3    H224085   4.386   6.377   1.369
 8041TIP3   OH224086   4.844   1.221   5.621
 8041TIP3    H124087   4.823   1.207   5.713
 8041TIP3    H224088   4.760   1.212   5.576
 8042TIP3   OH224089   4.647   2.570   1.296
 8042TIP3    H124090   4.578   2.609   1.242
 8042TIP3    H224091   4.706   2.529   1.233
 8043TIP3   OH224092   0.160   5.986   2.346
 8043TIP3    H124093   0.252   6.006   2.366
 8043TIP3    H224094   0.115   5.995   2.430
 8044TIP3   OH224095   5.308   0.832   5.560
 8044TIP3    H124096   5.236   0.771   5.571
 8044TIP3    H224097   5.270   0.918   5.577
 8045TIP3   OH224098   3.082   4.442   3.051
 8045TIP3    H124099   3.030   4.364   3.068
 8045TIP3    H224100   3.136   4.418   2.976
 8046TIP3   OH224101   7.077   1.561   4.551
 8046TIP3    H124102   7.069   1.513   4.633
 8046TIP3    H224103   7.043   1.648   4.571
 8047TIP3   OH224104   5.235   3.114   0.175
 8047TIP3    H124105   5.200   3.031   0.142
 8047TIP3    H224106   5.271   3.158   0.098
 8048TIP3   OH224107   5.418   1.824   4.452
 8048TIP3    H124108   5.455   1.741   4.483
 8048TIP3    H224109   5.329   1.825   4.488
 8049TIP3   OH224110   3.350   4.194   2.471
 8049TIP3    H124111   3.327   4.287   2.473
 8049TIP3    H224112   3.437   4.190   2.511
 8050TIP3   OH224113   4.256   1.281   1.959
 8050TIP3    H124114   4.180   1.339   1.959
 8050TIP3    H224115   4.298   1.296   2.043
 8051TIP3   OH224116   1.141   3.606   1.647
 8051TIP3    H124117   1.107   3.552   1.719
 8051TIP3    H224118   1.236   3.601   1.657
 8052TIP3   OH224119   4.284   1.135   2.827
 8052TIP3    H124120   4.328   1.052   2.811
 8052TIP3    H224121   4.231   1.150   2.749
 8053TIP3   OH224122   4.464   0.417   3.667
 8053TIP3    H124123   4.540   0.465   3.634
 8053TIP3    H224124   4.449   0.348   3.602
 8054TIP3   OH224125   2.843   5.380   2.670
 8054TIP3    H124126   2.801   5.465   2.656
 8054TIP3    H224127   2.937   5.398   2.659
 8055TIP3   OH224128   0.156   3.897   1.943
 8055TIP3    H124129   0.153   3.876   2.036
 8055TIP3    H224130   0.071   3.869   1.909
 8056TIP3   OH224131   6.525   2.392   0.379
 8056TIP3    H124132   6.564   2.475   0.353
 8056TIP3    H224133   6.526   2.339   0.299
 8057TIP3   OH224134   0.738   1.610   1.544
 8057TIP3    H124135   0.684   1.533   1.528
 8057TIP3    H224136   0.749   1.613   1.639
 8058TIP3   OH224137   1.982   3.800   5.700
 8058TIP3    H124138   2.048   3.856   5.740
 8058TIP3    H224139   2.005   3.799   5.607
 8059TIP3   OH224140   1.808   1.673   1.582
 8059TIP3    H124141   1.751   1.750   1.585
 8059TIP3    H224142   1.848   1.670   1.669
 8060TIP3   OH224143   4.073   5.215   3.539
 8060TIP3    H124144   4.069   5.239   3.632
 8060TIP3    H224145   4.006   5.148   3.528
 8061TIP3   OH224146   2.545   1.010   4.666
 8061TIP3    H124147   2.578   1.092   4.702
 8061TIP3    H224148   2.548   1.023   4.571
 8062TIP3   OH224149   7.004   5.741   4.809
 8062TIP3    H124150   6.951   5.753   4.888
 8062TIP3    H224151   7.088   5.709   4.841
 8063TIP3   OH224152   2.206   1.186   0.880
 8063TIP3    H124153   2.113   1.193   0.900
 8063TIP3    H224154   2.220   1.245   0.806
 8064TIP3   OH224155   2.600   3.090   1.517
 8064TIP3    H124156   2.536   3.026   1.484
 8064TIP3    H224157   2.550   3.143   1.580
 8065TIP3   OH224158   5.134   5.470   0.187
 8065TIP3    H124159   5.073   5.420   0.133
 8065TIP3    H224160   5.085   5.490   0.267
 8066TIP3   OH224161   3.306   4.817   1.574
 8066TIP3    H124162   3.263   4.883   1.520
 8066TIP3    H224163   3.312   4.858   1.661
 8067TIP3   OH224164   4.195   4.396   5.226
 8067TIP3    H124165   4.233   4.319   5.183
 8067TIP3    H224166   4.141   4.437   5.159
 8068TIP3   OH224167   7.154   1.970   3.344
 8068TIP3    H124168   7.065   1.935   3.331
 8068TIP3    H224169   7.207   1.927   3.278
 8069TIP3   OH224170   4.238   1.411   0.834
 8069TIP3    H124171   4.319   1.360   0.840
 8069TIP3    H224172   4.248   1.464   0.755
 8070TIP3   OH224173   6.189   1.258   4.901
 8070TIP3    H124174   6.175   1.180   4.955
 8070TIP3    H224175   6.284   1.267   4.896
 8071TIP3   OH224176   0.342   0.807   4.872
 8071TIP3    H124177   0.320   0.814   4.965
 8071TIP3    H224178   0.424   0.757   4.870
 8072TIP3   OH224179   2.705   6.390   5.537
 8072TIP3    H124180   2.745   6.433   5.612
 8072TIP3    H224181   2.617   6.426   5.532
 8073TIP3   OH224182   6.281   4.066   4.274
 8073TIP3    H124183   6.282   4.047   4.368
 8073TIP3    H224184   6.269   3.982   4.232
 8074TIP3   OH224185   7.192   6.691   1.957
 8074TIP3    H124186   7.161   6.683   2.047
 8074TIP3    H224187   7.216   6.602   1.931
 8075TIP3   OH224188   6.564   2.086   4.434
 8075TIP3    H124189   6.543   2.152   4.368
 8075TIP3    H224190   6.585   2.136   4.513
 8076TIP3   OH224191   0.656   5.559   0.977
 8076TIP3    H124192   0.611   5.637   1.009
 8076TIP3    H224193   0.587   5.494   0.967
 8077TIP3   OH224194   2.438   6.395   0.471
 8077TIP3    H124195   2.488   6.476   0.480
 8077TIP3    H224196   2.418   6.389   0.378
 8078TIP3   OH224197   1.268   2.467   5.844
 8078TIP3    H124198   1.253   2.373   5.834
 8078TIP3    H224199   1.361   2.474   5.864
 8079TIP3   OH224200   0.757   4.123   3.133
 8079TIP3    H124201   0.787   4.204   3.091
 8079TIP3    H224202   0.826   4.102   3.196
 8080TIP3   OH224203   5.511   5.721   5.350
 8080TIP3    H124204   5.539   5.812   5.341
 8080TIP3    H224205   5.435   5.713   5.293
 8081TIP3   OH224206   3.917   3.221   0.247
 8081TIP3    H124207   3.897   3.247   0.337
 8081TIP3    H224208   4.011   3.202   0.248
 8082TIP3   OH224209   4.491   3.718   5.101
 8082TIP3    H124210   4.499   3.660   5.177
 8082TIP3    H224211   4.534   3.671   5.030
 8083TIP3   OH224212   6.862   5.131   3.001
 8083TIP3    H124213   6.934   5.146   3.063
 8083TIP3    H224214   6.864   5.208   2.944
 8084TIP3   OH224215   4.051   4.692   2.873
 8084TIP3    H124216   3.965   4.688   2.831
 8084TIP3    H224217   4.037   4.656   2.960
 8085TIP3   OH224218   4.518   3.335   0.829
 8085TIP3    H124219   4.539   3.373   0.743
 8085TIP3    H224220   4.498   3.411   0.884
 8086TIP3   OH224221   6.102   1.343   3.821
 8086TIP3    H124222   6.191   1.331   3.788
 8086TIP3    H224223   6.073   1.254   3.842
 8087TIP3   OH224224   1.563   5.837   1.903
 8087TIP3    H124225   1.518   5.870   1.824
 8087TIP3    H224226   1.656   5.843   1.881
 8088TIP3   OH224227   1.272   0.885   4.295
 8088TIP3    H124228   1.251   0.889   4.388
 8088TIP3    H224229   1.268   0.976   4.266
 8089TIP3   OH224230   3.237   2.025   0.254
 8089TIP3    H124231   3.197   2.014   0.167
 8089TIP3    H224232   3.170   2.070   0.306
 8090TIP3   OH224233   6.778   5.054   1.480
 8090TIP3    H124234   6.718   5.110   1.431
 8090TIP3    H224235   6.847   5.033   1.417
 8091TIP3   OH224236   4.660   2.495   3.748
 8091TIP3    H124237   4.611   2.426   3.792
 8091TIP3    H224238   4.672   2.562   3.816
 8092TIP3   OH224239   5.578   5.293   4.413
 8092TIP3    H124240   5.548   5.205   4.438
 8092TIP3    H224241   5.518   5.319   4.343
 8093TIP3   OH224242   6.843   3.299   5.281
 8093TIP3    H124243   6.760   3.300   5.234
 8093TIP3    H224244   6.819   3.291   5.373
 8094TIP3   OH224245   2.915   3.961   1.276
 8094TIP3    H124246   2.934   3.868   1.260
 8094TIP3    H224247   2.838   3.980   1.222
 8095TIP3   OH224248   6.885   6.159   4.467
 8095TIP3    H124249   6.824   6.183   4.537
 8095TIP3    H224250   6.926   6.078   4.498
 8096TIP3   OH224251   6.293   1.509   3.193
 8096TIP3    H124252   6.221   1.473   3.142
 8096TIP3    H224253   6.303   1.599   3.161
 8097TIP3   OH224254   3.996   1.643   4.766
 8097TIP3    H124255   4.061   1.706   4.735
 8097TIP3    H224256   4.032   1.558   4.741
 8098TIP3   OH224257   4.512   0.614   4.507
 8098TIP3    H124258   4.566   0.563   4.568
 8098TIP3    H224259   4.570   0.632   4.433
 8099TIP3   OH224260   5.728   6.315   3.375
 8099TIP3    H124261   5.783   6.321   3.453
 8099TIP3    H224262   5.772   6.250   3.320
 8100TIP3   OH224263   4.255   1.955   1.496
 8100TIP3    H124264   4.233   1.999   1.414
 8100TIP3    H224265   4.178   1.902   1.517
 8101TIP3   OH224266   0.152   2.436   5.062
 8101TIP3    H124267   0.061   2.467   5.063
 8101TIP3    H224268   0.204   2.513   5.084
 8102TIP3   OH224269   6.849   6.483   3.854
 8102TIP3    H124270   6.766   6.466   3.810
 8102TIP3    H224271   6.823   6.514   3.942
 8103TIP3   OH224272   4.677   1.116   4.354
 8103TIP3    H124273   4.642   1.038   4.312
 8103TIP3    H224274   4.750   1.084   4.407
 8104TIP3   OH224275   0.866   4.229   5.567
 8104TIP3    H124276   0.916   4.304   5.601
 8104TIP3    H224277   0.921   4.195   5.496
 8105TIP3   OH224278   2.800   0.277   0.787
 8105TIP3    H124279   2.858   0.240   0.854
 8105TIP3    H224280   2.827   0.369   0.781
 8106TIP3   OH224281   2.206   4.979   3.283
 8106TIP3    H124282   2.166   5.028   3.211
 8106TIP3    H224283   2.150   4.998   3.358
 8107TIP3   OH224284   1.606   4.753   3.600
 8107TIP3    H124285   1.607   4.668   3.645
 8107TIP3    H224286   1.685   4.797   3.632
 8108TIP3   OH224287   6.817   5.182   4.816
 8108TIP3    H124288   6.844   5.103   4.863
 8108TIP3    H224289   6.813   5.250   4.883
 8109TIP3   OH224290   3.650   3.926   0.698
 8109TIP3    H124291   3.555   3.940   0.700
 8109TIP3    H224292   3.674   3.948   0.608
 8110TIP3   OH224293   0.601   5.203   5.932
 8110TIP3    H124294   0.681   5.211   5.878
 8110TIP3    H224295   0.530   5.215   5.869
 8111TIP3   OH224296   5.852   1.767   2.283
 8111TIP3    H124297   5.926   1.724   2.240
 8111TIP3    H224298   5.780   1.704   2.273
 8112TIP3   OH224299   3.611   0.017   3.322
 8112TIP3    H124300   3.576   0.086   3.378
 8112TIP3    H224301   3.705   0.017   3.341
 8113TIP3   OH224302   2.697   2.949   4.231
 8113TIP3    H124303   2.763   2.998   4.181
 8113TIP3    H224304   2.614   2.972   4.189
 8114TIP3   OH224305   3.815   3.557   5.557
 8114TIP3    H124306   3.907   3.541   5.534
 8114TIP3    H224307   3.769   3.477   5.532
 8115TIP3   OH224308   7.077   0.299   0.052
 8115TIP3    H124309   7.138   0.271   0.120
 8115TIP3    H224310   7.126   0.292  -0.030
 8116TIP3   OH224311   5.013   6.273   4.355
 8116TIP3    H124312   5.036   6.322   4.434
 8116TIP3    H224313   4.998   6.184   4.385
 8117TIP3   OH224314   2.578   2.980   2.197
 8117TIP3    H124315   2.505   3.042   2.204
 8117TIP3    H224316   2.647   3.029   2.152
 8118TIP3   OH224317   5.184   2.161   4.305
 8118TIP3    H124318   5.276   2.138   4.301
 8118TIP3    H224319   5.178   2.245   4.259
 8119TIP3   OH224320   4.214   2.916   1.816
 8119TIP3    H124321   4.194   2.911   1.722
 8119TIP3    H224322   4.141   2.964   1.854
 8120TIP3   OH224323   4.086   3.738   5.843
 8120TIP3    H124324   4.143   3.725   5.919
 8120TIP3    H224325   4.131   3.804   5.791
 8121TIP3   OH224326   1.279   5.512   3.020
 8121TIP3    H124327   1.255   5.604   3.034
 8121TIP3    H224328   1.364   5.504   3.064
 8122TIP3   OH224329   6.378   1.871   5.170
 8122TIP3    H124330   6.471   1.849   5.161
 8122TIP3    H224331   6.359   1.858   5.263
 8123TIP3   OH224332   0.282   0.337   2.578
 8123TIP3    H124333   0.370   0.347   2.541
 8123TIP3    H224334   0.254   0.427   2.596
 8124TIP3   OH224335   6.100   4.843   4.313
 8124TIP3    H124336   6.030   4.808   4.369
 8124TIP3    H224337   6.111   4.933   4.343
 8125TIP3   OH224338   3.364   1.146   0.913
 8125TIP3    H124339   3.354   1.169   1.005
 8125TIP3    H224340   3.393   1.227   0.870
 8126TIP3   OH224341   2.591   1.703   0.105
 8126TIP3    H124342   2.686   1.719   0.110
 8126TIP3    H224343   2.552   1.790   0.106
 8127TIP3   OH224344   5.275   1.707   3.009
 8127TIP3    H124345   5.366   1.686   2.984
 8127TIP3    H224346   5.224   1.686   2.931
 8128TIP3   OH224347   0.072   4.588   5.374
 8128TIP3    H124348   0.096   4.515   5.432
 8128TIP3    H224349  -0.023   4.580   5.365
 8129TIP3   OH224350   2.332   5.787   2.733
 8129TIP3    H124351   2.279   5.848   2.681
 8129TIP3    H224352   2.398   5.843   2.775
 8130TIP3   OH224353   0.511   1.085   2.049
 8130TIP3    H124354   0.446   1.148   2.017
 8130TIP3    H224355   0.594   1.133   2.045
 8131TIP3   OH224356   2.090   4.521   3.200
 8131TIP3    H124357   2.176   4.480   3.194
 8131TIP3    H224358   2.104   4.611   3.170
 8132TIP3   OH224359   2.754   1.413   1.123
 8132TIP3    H124360   2.837   1.413   1.075
 8132TIP3    H224361   2.768   1.475   1.195
 8133TIP3   OH224362   2.347   0.614   2.308
 8133TIP3    H124363   2.315   0.565   2.232
 8133TIP3    H224364   2.441   0.625   2.292
 8134TIP3   OH224365   4.149   0.791   4.620
 8134TIP3    H124366   4.069   0.833   4.653
 8134TIP3    H224367   4.209   0.863   4.603
 8135TIP3   OH224368   0.665   5.890   4.075
 8135TIP3    H124369   0.655   5.937   3.992
 8135TIP3    H224370   0.759   5.893   4.093
 8136TIP3   OH224371   5.053   2.435   3.884
 8136TIP3    H124372   4.967   2.477   3.874
 8136TIP3    H224373   5.033   2.342   3.894
 8137TIP3   OH224374   2.009   4.600   2.802
 8137TIP3    H124375   2.040   4.522   2.848
 8137TIP3    H224376   2.056   4.599   2.719
 8138TIP3   OH224377   1.279   3.208   5.259
 8138TIP3    H124378   1.217   3.217   5.331
 8138TIP3    H224379   1.231   3.160   5.192
 8139TIP3   OH224380   0.289   0.357   0.311
 8139TIP3    H124381   0.334   0.370   0.227
 8139TIP3    H224382   0.283   0.445   0.348
 8140TIP3   OH224383   4.868   4.579   0.605
 8140TIP3    H124384   4.823   4.651   0.650
 8140TIP3    H224385   4.961   4.598   0.617
 8141TIP3   OH224386   4.975   0.438   5.235
 8141TIP3    H124387   4.895   0.490   5.233
 8141TIP3    H224388   4.974   0.388   5.154
 8142TIP3   OH224389   1.514   2.547   1.644
 8142TIP3    H124390   1.559   2.553   1.728
 8142TIP3    H224391   1.544   2.464   1.606
 8143TIP3   OH224392   5.622   6.181   1.539
 8143TIP3    H124393   5.530   6.172   1.565
 8143TIP3    H224394   5.654   6.091   1.532
 8144TIP3   OH224395   7.024   0.689   4.575
 8144TIP3    H124396   7.066   0.735   4.503
 8144TIP3    H224397   6.984   0.758   4.628
 8145TIP3   OH224398   4.160   0.551   0.829
 8145TIP3    H124399   4.176   0.543   0.924
 8145TIP3    H224400   4.074   0.590   0.822
 8146TIP3   OH224401   7.138   4.761   0.682
 8146TIP3    H124402   7.079   4.770   0.607
 8146TIP3    H224403   7.217   4.809   0.655
 8147TIP3   OH224404   5.274   2.136   2.004
 8147TIP3    H124405   5.296   2.053   2.047
 8147TIP3    H224406   5.358   2.180   1.991
 8148TIP3   OH224407   4.973   2.953   5.614
 8148TIP3    H124408   4.917   3.028   5.630
 8148TIP3    H224409   4.991   2.917   5.702
 8149TIP3   OH224410   2.273   6.697   4.079
 8149TIP3    H124411   2.187   6.687   4.120
 8149TIP3    H224412   2.320   6.758   4.136
 8150TIP3   OH224413   2.813   2.148   3.446
 8150TIP3    H124414   2.876   2.136   3.375
 8150TIP3    H224415   2.749   2.210   3.412
 8151TIP3   OH224416   4.230   0.079   5.800
 8151TIP3    H124417   4.179   0.026   5.738
 8151TIP3    H224418   4.164   0.134   5.842
 8152TIP3   OH224419   3.870   1.256   5.657
 8152TIP3    H124420   3.833   1.343   5.640
 8152TIP3    H224421   3.829   1.199   5.592
 8153TIP3   OH224422   4.402   3.797   4.785
 8153TIP3    H124423   4.363   3.777   4.870
 8153TIP3    H224424   4.327   3.812   4.728
 8154TIP3   OH224425   5.807   5.129   5.679
 8154TIP3    H124426   5.818   5.078   5.759
 8154TIP3    H224427   5.848   5.213   5.698
 8155TIP3   OH224428   0.373   2.257   2.673
 8155TIP3    H124429   0.393   2.203   2.596
 8155TIP3    H224430   0.434   2.330   2.668
 8156TIP3   OH224431   1.794   4.580   3.014
 8156TIP3    H124432   1.748   4.555   2.934
 8156TIP3    H224433   1.875   4.529   3.013
 8157TIP3   OH224434   1.538   4.573   2.574
 8157TIP3    H124435   1.602   4.628   2.618
 8157TIP3    H224436   1.571   4.565   2.485
 8158TIP3   OH224437   4.363   2.737   3.247
 8158TIP3    H124438   4.270   2.746   3.228
 8158TIP3    H224439   4.373   2.775   3.334
 8159TIP3   OH224440   6.171   3.732   0.338
 8159TIP3    H124441   6.142   3.725   0.247
 8159TIP3    H224442   6.184   3.641   0.366
 8160TIP3   OH224443   3.812   6.417   3.502
 8160TIP3    H124444   3.772   6.494   3.462
 8160TIP3    H224445   3.867   6.451   3.572
 8161TIP3   OH224446   3.901   0.730   4.134
 8161TIP3    H124447   3.976   0.688   4.176
 8161TIP3    H224448   3.908   0.705   4.042
 8162TIP3   OH224449   0.252   5.616   4.536
 8162TIP3    H124450   0.269   5.605   4.630
 8162TIP3    H224451   0.185   5.550   4.516
 8163TIP3   OH224452   5.682   0.273   3.964
 8163TIP3    H124453   5.590   0.245   3.965
 8163TIP3    H224454   5.683   0.351   4.020
 8164TIP3   OH224455   3.387   2.734   1.383
 8164TIP3    H124456   3.370   2.640   1.378
 8164TIP3    H224457   3.439   2.745   1.462
 8165TIP3   OH224458   0.840   4.659   1.181
 8165TIP3    H124459   0.842   4.565   1.164
 8165TIP3    H224460   0.787   4.668   1.260
 8166TIP3   OH224461   3.644   5.885   0.576
 8166TIP3    H124462   3.571   5.834   0.611
 8166TIP3    H224463   3.695   5.909   0.653
 8167TIP3   OH224464   0.187   0.369   1.771
 8167TIP3    H124465   0.147   0.302   1.716
 8167TIP3    H224466   0.125   0.442   1.769
 8168TIP3   OH224467   5.793   1.120   3.880
 8168TIP3    H124468   5.819   1.164   3.961
 8168TIP3    H224469   5.701   1.097   3.894
 8169TIP3   OH224470   6.088   6.790   2.427
 8169TIP3    H124471   6.076   6.787   2.332
 8169TIP3    H224472   6.097   6.883   2.447
 8170TIP3   OH224473   5.716   1.602   1.338
 8170TIP3    H124474   5.720   1.653   1.257
 8170TIP3    H224475   5.731   1.512   1.311
 8171TIP3   OH224476   3.711   4.698   2.509
 8171TIP3    H124477   3.650   4.769   2.490
 8171TIP3    H224478   3.757   4.726   2.587
 8172TIP3   OH224479   3.129   3.063   3.111
 8172TIP3    H124480   3.046   3.054   3.064
 8172TIP3    H224481   3.155   3.154   3.098
 8173TIP3   OH224482   6.894   3.672   2.069
 8173TIP3    H124483   6.815   3.721   2.090
 8173TIP3    H224484   6.878   3.584   2.105
 8174TIP3   OH224485   1.837   3.802   2.071
 8174TIP3    H124486   1.859   3.749   2.148
 8174TIP3    H224487   1.804   3.738   2.008
 8175TIP3   OH224488   4.796   6.349   2.646
 8175TIP3    H124489   4.763   6.276   2.699
 8175TIP3    H224490   4.739   6.350   2.569
 8176TIP3   OH224491   5.523   4.381   3.676
 8176TIP3    H124492   5.469   4.305   3.655
 8176TIP3    H224493   5.607   4.345   3.703
 8177TIP3   OH224494   2.736   4.786   0.936
 8177TIP3    H124495   2.827   4.773   0.963
 8177TIP3    H224496   2.735   4.757   0.844
 8178TIP3   OH224497   3.054   5.921   1.453
 8178TIP3    H124498   3.123   5.970   1.499
 8178TIP3    H224499   2.973   5.946   1.498
 8179TIP3   OH224500   4.191   0.714   2.304
 8179TIP3    H124501   4.254   0.644   2.287
 8179TIP3    H224502   4.109   0.667   2.322
 8180TIP3   OH224503   4.304   1.098   0.134
 8180TIP3    H124504   4.363   1.026   0.113
 8180TIP3    H224505   4.238   1.097   0.065
 8181TIP3   OH224506   5.811   3.520   3.979
 8181TIP3    H124507   5.730   3.533   3.928
 8181TIP3    H224508   5.781   3.515   4.070
 8182TIP3   OH224509   0.956   3.826   1.643
 8182TIP3    H124510   1.001   3.741   1.649
 8182TIP3    H224511   0.975   3.868   1.727
 8183TIP3   OH224512   2.916   5.701   5.706
 8183TIP3    H124513   2.944   5.624   5.756
 8183TIP3    H224514   2.929   5.775   5.765
 8184TIP3   OH224515   2.771   5.191   2.181
 8184TIP3    H124516   2.852   5.239   2.193
 8184TIP3    H224517   2.746   5.162   2.269
 8185TIP3   OH224518   5.345   5.638   4.253
 8185TIP3    H124519   5.427   5.685   4.247
 8185TIP3    H224520   5.314   5.655   4.342
 8186TIP3   OH224521   1.100   0.269   2.830
 8186TIP3    H124522   1.028   0.237   2.884
 8186TIP3    H224523   1.106   0.206   2.758
 8187TIP3   OH224524   0.415   1.768   5.831
 8187TIP3    H124525   0.333   1.792   5.790
 8187TIP3    H224526   0.462   1.851   5.842
 8188TIP3   OH224527   5.008   4.509   5.071
 8188TIP3    H124528   4.950   4.468   5.135
 8188TIP3    H224529   5.050   4.436   5.026
 8189TIP3   OH224530   2.891   3.172   1.551
 8189TIP3    H124531   2.939   3.183   1.469
 8189TIP3    H224532   2.800   3.154   1.524
 8190TIP3   OH224533   5.043   2.051   1.478
 8190TIP3    H124534   4.977   2.120   1.470
 8190TIP3    H224535   5.125   2.094   1.456
 8191TIP3   OH224536   3.154   2.025   2.467
 8191TIP3    H124537   3.098   1.968   2.414
 8191TIP3    H224538   3.102   2.045   2.545
 8192TIP3   OH224539   4.572   0.732   0.853
 8192TIP3    H124540   4.514   0.657   0.843
 8192TIP3    H224541   4.519   0.798   0.897
 8193TIP3   OH224542   4.462   4.536   3.641
 8193TIP3    H124543   4.441   4.589   3.719
 8193TIP3    H224544   4.403   4.570   3.573
 8194TIP3   OH224545   2.899   0.403   4.527
 8194TIP3    H124546   2.931   0.345   4.458
 8194TIP3    H224547   2.928   0.491   4.500
 8195TIP3   OH224548   5.390   6.497   1.385
 8195TIP3    H124549   5.313   6.450   1.417
 8195TIP3    H224550   5.354   6.564   1.326
 8196TIP3   OH224551   2.060   5.294   1.791
 8196TIP3    H124552   2.078   5.353   1.718
 8196TIP3    H224553   2.020   5.217   1.751
 8197TIP3   OH224554   1.811   1.157   4.074
 8197TIP3    H124555   1.818   1.238   4.125
 8197TIP3    H224556   1.762   1.182   3.996
 8198TIP3   OH224557   2.861   2.548   1.610
 8198TIP3    H124558   2.844   2.620   1.670
 8198TIP3    H224559   2.957   2.536   1.613
 8199TIP3   OH224560   2.305   6.115   1.733
 8199TIP3    H124561   2.398   6.097   1.751
 8199TIP3    H224562   2.271   6.151   1.815
 8200TIP3   OH224563   3.150   2.857   1.484
 8200TIP3    H124564   3.213   2.871   1.413
 8200TIP3    H224565   3.158   2.764   1.505
 8201TIP3   OH224566   2.753   5.909   3.530
 8201TIP3    H124567   2.696   5.982   3.555
 8201TIP3    H224568   2.701   5.859   3.466
 8202TIP3   OH224569   1.783   1.367   4.828
 8202TIP3    H124570   1.780   1.440   4.766
 8202TIP3    H224571   1.715   1.307   4.798
 8203TIP3   OH224572   6.329   3.261   4.810
 8203TIP3    H124573   6.395   3.306   4.758
 8203TIP3    H224574   6.374   3.236   4.890
 8204TIP3   OH224575   2.223   3.410   2.838
 8204TIP3    H124576   2.141   3.361   2.847
 8204TIP3    H224577   2.271   3.393   2.918
 8205TIP3   OH224578   2.494   0.301   2.284
 8205TIP3    H124579   2.559   0.365   2.312
 8205TIP3    H224580   2.515   0.221   2.333
 8206TIP3   OH224581   0.123   3.211   3.740
 8206TIP3    H124582   0.134   3.257   3.657
 8206TIP3    H224583   0.130   3.279   3.807
 8207TIP3   OH224584   4.182   0.571   1.909
 8207TIP3    H124585   4.118   0.546   1.843
 8207TIP3    H224586   4.147   0.651   1.947
 8208TIP3   OH224587   2.425   1.744   0.491
 8208TIP3    H124588   2.408   1.835   0.515
 8208TIP3    H224589   2.460   1.705   0.571
 8209TIP3   OH224590   6.594   0.089   0.926
 8209TIP3    H124591   6.673   0.142   0.918
 8209TIP3    H224592   6.552   0.120   1.006
 8210TIP3   OH224593   4.442   5.792   0.892
 8210TIP3    H124594   4.516   5.802   0.833
 8210TIP3    H224595   4.476   5.815   0.979
 8211TIP3   OH224596   4.959   6.420   5.477
 8211TIP3    H124597   4.904   6.499   5.470
 8211TIP3    H224598   5.009   6.433   5.558
 8212TIP3   OH224599   2.158   5.088   2.968
 8212TIP3    H124600   2.172   4.996   2.943
 8212TIP3    H224601   2.244   5.119   2.993
 8213TIP3   OH224602   5.847   1.190   4.502
 8213TIP3    H124603   5.817   1.238   4.425
 8213TIP3    H224604   5.877   1.257   4.563
 8214TIP3   OH224605   3.840   6.138   5.366
 8214TIP3    H124606   3.807   6.052   5.341
 8214TIP3    H224607   3.917   6.152   5.310
 8215TIP3   OH224608   4.756   5.996   2.346
 8215TIP3    H124609   4.667   6.025   2.366
 8215TIP3    H224610   4.801   6.075   2.315
 8216TIP3   OH224611   6.569   0.260   3.590
 8216TIP3    H124612   6.607   0.334   3.543
 8216TIP3    H224613   6.572   0.188   3.527
 8217TIP3   OH224614   1.366   0.091   2.011
 8217TIP3    H124615   1.380   0.115   2.103
 8217TIP3    H224616   1.332   0.171   1.971
 8218TIP3   OH224617   2.896   2.385   5.051
 8218TIP3    H124618   2.943   2.302   5.060
 8218TIP3    H224619   2.814   2.371   5.098
 8219TIP3   OH224620   0.272   1.155   2.916
 8219TIP3    H124621   0.265   1.236   2.864
 8219TIP3    H224622   0.310   1.091   2.856
 8220TIP3   OH224623   5.191   5.271   5.299
 8220TIP3    H124624   5.273   5.274   5.249
 8220TIP3    H224625   5.213   5.307   5.385
 8221TIP3   OH224626   2.962   0.397   1.392
 8221TIP3    H124627   2.949   0.412   1.298
 8221TIP3    H224628   2.896   0.332   1.415
 8222TIP3   OH224629   0.838   1.239   3.382
 8222TIP3    H124630   0.915   1.272   3.428
 8222TIP3    H224631   0.870   1.212   3.296
 8223TIP3   OH224632   4.172   6.721   2.439
 8223TIP3    H124633   4.249   6.711   2.383
 8223TIP3    H224634   4.154   6.815   2.439
 8224TIP3   OH224635   4.564   5.241   5.032
 8224TIP3    H124636   4.647   5.208   4.999
 8224TIP3    H224637   4.536   5.174   5.095
 8225TIP3   OH224638   6.269   1.259   3.569
 8225TIP3    H124639   6.325   1.300   3.503
 8225TIP3    H224640   6.321   1.260   3.649
 8226TIP3   OH224641   6.553   4.402  -0.015
 8226TIP3    H124642   6.627   4.373   0.038
 8226TIP3    H224643   6.482   4.417   0.049
 8227TIP3   OH224644   5.536   5.911   0.650
 8227TIP3    H124645   5.616   5.860   0.650
 8227TIP3    H224646   5.467   5.848   0.671
 8228TIP3   OH224647   2.428   5.447   4.233
 8228TIP3    H124648   2.464   5.359   4.245
 8228TIP3    H224649   2.433   5.487   4.320
 8229TIP3   OH224650   4.445   6.672   2.348
 8229TIP3    H124651   4.516   6.700   2.405
 8229TIP3    H224652   4.446   6.735   2.276
 8230TIP3   OH224653   4.096   3.734   3.336
 8230TIP3    H124654   4.099   3.708   3.428
 8230TIP3    H224655   4.118   3.655   3.287
 8231TIP3   OH224656   1.738   3.145   0.521
 8231TIP3    H124657   1.728   3.054   0.549
 8231TIP3    H224658   1.786   3.140   0.438
 8232TIP3   OH224659   6.220   2.446   4.202
 8232TIP3    H124660   6.179   2.489   4.127
 8232TIP3    H224661   6.289   2.507   4.229
 8233TIP3   OH224662   3.824   6.092   3.921
 8233TIP3    H124663   3.752   6.029   3.915
 8233TIP3    H224664   3.820   6.142   3.840
 8234TIP3   OH224665   4.614   6.253   5.234
 8234TIP3    H124666   4.560   6.315   5.184
 8234TIP3    H224667   4.551   6.204   5.287
 8235TIP3   OH224668   2.190   3.652   5.503
 8235TIP3    H124669   2.193   3.586   5.572
 8235TIP3    H224670   2.281   3.680   5.494
 8236TIP3   OH224671   7.054   6.798   4.184
 8236TIP3    H124672   7.004   6.861   4.133
 8236TIP3    H224673   7.099   6.744   4.119
 8237TIP3   OH224674   0.166   5.200   4.663
 8237TIP3    H124675   0.170   5.269   4.596
 8237TIP3    H224676   0.107   5.135   4.626
 8238TIP3   OH224677   5.516   2.054   2.779
 8238TIP3    H124678   5.460   2.123   2.815
 8238TIP3    H224679   5.592   2.101   2.744
 8239TIP3   OH224680   1.437   3.625   1.009
 8239TIP3    H124681   1.419   3.700   0.953
 8239TIP3    H224682   1.403   3.550   0.961
 8240TIP3   OH224683   4.997   2.404   1.611
 8240TIP3    H124684   4.933   2.358   1.557
 8240TIP3    H224685   5.081   2.366   1.586
 8241TIP3   OH224686   1.469   1.440   1.975
 8241TIP3    H124687   1.417   1.519   1.957
 8241TIP3    H224688   1.555   1.460   1.938
 8242TIP3   OH224689   1.629   4.069   5.085
 8242TIP3    H124690   1.679   4.035   5.011
 8242TIP3    H224691   1.559   4.005   5.098
 8243TIP3   OH224692   5.085   1.159   4.069
 8243TIP3    H124693   4.999   1.133   4.036
 8243TIP3    H224694   5.131   1.193   3.992
 8244TIP3   OH224695   4.049   4.630   1.229
 8244TIP3    H124696   4.014   4.595   1.147
 8244TIP3    H224697   3.988   4.700   1.253
 8245TIP3   OH224698   5.238   3.244   3.450
 8245TIP3    H124699   5.152   3.248   3.408
 8245TIP3    H224700   5.271   3.157   3.427
 8246TIP3   OH224701   5.659   2.493   4.908
 8246TIP3    H124702   5.658   2.534   4.995
 8246TIP3    H224703   5.567   2.471   4.891
 8247TIP3   OH224704   0.522   2.869   4.454
 8247TIP3    H124705   0.485   2.780   4.449
 8247TIP3    H224706   0.597   2.861   4.512
 8248TIP3   OH224707   1.675   2.947   0.139
 8248TIP3    H124708   1.603   2.905   0.093
 8248TIP3    H224709   1.734   2.977   0.070
 8249TIP3   OH224710   5.911   1.730   0.623
 8249TIP3    H124711   5.898   1.672   0.698
 8249TIP3    H224712   5.828   1.729   0.577
 8250TIP3   OH224713   5.359   1.200   0.941
 8250TIP3    H124714   5.404   1.246   1.013
 8250TIP3    H224715   5.427   1.147   0.900
 8251TIP3   OH224716   4.308   2.661   0.250
 8251TIP3    H124717   4.213   2.673   0.246
 8251TIP3    H224718   4.325   2.586   0.194
 8252TIP3   OH224719   1.628   6.405   1.848
 8252TIP3    H124720   1.702   6.414   1.788
 8252TIP3    H224721   1.573   6.338   1.808
 8253TIP3   OH224722   0.792   2.579   0.069
 8253TIP3    H124723   0.754   2.641   0.132
 8253TIP3    H224724   0.806   2.499   0.119
 8254TIP3   OH224725   3.009   2.579   1.975
 8254TIP3    H124726   2.988   2.656   1.922
 8254TIP3    H224727   3.091   2.546   1.938
 8255TIP3   OH224728   6.521   6.287   4.018
 8255TIP3    H124729   6.586   6.228   3.982
 8255TIP3    H224730   6.543   6.293   4.111
 8256TIP3   OH224731   4.693   0.565   2.661
 8256TIP3    H124732   4.728   0.502   2.598
 8256TIP3    H224733   4.705   0.523   2.746
 8257TIP3   OH224734   6.887   1.748   2.071
 8257TIP3    H124735   6.919   1.686   2.136
 8257TIP3    H224736   6.791   1.742   2.077
 8258TIP3   OH224737   4.851   4.966   1.036
 8258TIP3    H124738   4.760   4.963   1.006
 8258TIP3    H224739   4.901   4.991   0.958
 8259TIP3   OH224740   3.674   6.639   3.481
 8259TIP3    H124741   3.654   6.688   3.561
 8259TIP3    H224742   3.680   6.706   3.413
 8260TIP3   OH224743   4.947   3.434   5.604
 8260TIP3    H124744   5.029   3.471   5.638
 8260TIP3    H224745   4.884   3.506   5.613
 8261TIP3   OH224746   5.758   3.442   5.562
 8261TIP3    H124747   5.737   3.466   5.472
 8261TIP3    H224748   5.725   3.515   5.615
 8262TIP3   OH224749   3.908   6.437   5.181
 8262TIP3    H124750   3.848   6.489   5.126
 8262TIP3    H224751   3.855   6.364   5.212
 8263TIP3   OH224752   2.941   3.375   5.542
 8263TIP3    H124753   2.952   3.352   5.635
 8263TIP3    H224754   2.920   3.469   5.543
 8264TIP3   OH224755   6.556   4.116   4.183
 8264TIP3    H124756   6.461   4.105   4.177
 8264TIP3    H224757   6.589   4.083   4.099
 8265TIP3   OH224758   0.662   5.328   5.223
 8265TIP3    H124759   0.665   5.421   5.248
 8265TIP3    H224760   0.577   5.298   5.255
 8266TIP3   OH224761   3.260   5.095   4.507
 8266TIP3    H124762   3.330   5.119   4.568
 8266TIP3    H224763   3.184   5.145   4.538
 8267TIP3   OH224764   2.261   5.048   0.680
 8267TIP3    H124765   2.236   5.076   0.768
 8267TIP3    H224766   2.200   4.978   0.658
 8268TIP3   OH224767   4.294   6.222   1.372
 8268TIP3    H124768   4.203   6.195   1.359
 8268TIP3    H224769   4.345   6.160   1.320
 8269TIP3   OH224770   2.669   1.549   4.033
 8269TIP3    H124771   2.679   1.628   3.979
 8269TIP3    H224772   2.756   1.510   4.035
 8270TIP3   OH224773   6.498   4.523   5.050
 8270TIP3    H124774   6.565   4.591   5.063
 8270TIP3    H224775   6.515   4.460   5.120
 8271TIP3   OH224776   6.265   0.202   3.572
 8271TIP3    H124777   6.338   0.236   3.624
 8271TIP3    H224778   6.290   0.218   3.481
 8272TIP3   OH224779   5.576   3.429   1.366
 8272TIP3    H124780   5.547   3.357   1.423
 8272TIP3    H224781   5.667   3.408   1.346
 8273TIP3   OH224782   4.688   5.881   4.605
 8273TIP3    H124783   4.612   5.923   4.564
 8273TIP3    H224784   4.759   5.945   4.595
 8274TIP3   OH224785   0.493   4.521   1.480
 8274TIP3    H124786   0.537   4.466   1.416
 8274TIP3    H224787   0.399   4.509   1.462
 8275TIP3   OH224788   0.149   2.254   2.401
 8275TIP3    H124789   0.062   2.221   2.423
 8275TIP3    H224790   0.185   2.283   2.485
 8276TIP3   OH224791   5.585   2.652   1.722
 8276TIP3    H124792   5.570   2.720   1.788
 8276TIP3    H224793   5.500   2.640   1.680
 8277TIP3   OH224794   6.203   3.863   1.417
 8277TIP3    H124795   6.114   3.866   1.451
 8277TIP3    H224796   6.236   3.952   1.427
 8278TIP3   OH224797   1.288   3.936   2.473
 8278TIP3    H124798   1.300   3.843   2.491
 8278TIP3    H224799   1.367   3.978   2.509
 8279TIP3   OH224800   6.375   0.552   3.683
 8279TIP3    H124801   6.391   0.461   3.657
 8279TIP3    H224802   6.426   0.604   3.621
 8280TIP3   OH224803   6.636   5.734   0.958
 8280TIP3    H124804   6.552   5.695   0.934
 8280TIP3    H224805   6.644   5.718   1.052
 8281TIP3   OH224806   6.863   3.812   0.234
 8281TIP3    H124807   6.822   3.805   0.148
 8281TIP3    H224808   6.905   3.726   0.247
 8282TIP3   OH224809   2.971   1.435   1.515
 8282TIP3    H124810   2.917   1.369   1.472
 8282TIP3    H224811   2.928   1.450   1.599
 8283TIP3   OH224812   5.973   5.838   5.746
 8283TIP3    H124813   5.892   5.885   5.765
 8283TIP3    H224814   5.990   5.857   5.653
 8284TIP3   OH224815   2.074   5.382   2.979
 8284TIP3    H124816   2.137   5.435   2.929
 8284TIP3    H224817   2.090   5.293   2.950
 8285TIP3   OH224818   5.263   5.331   2.624
 8285TIP3    H124819   5.234   5.251   2.581
 8285TIP3    H224820   5.358   5.320   2.635
 8286TIP3   OH224821   2.155   3.439   5.657
 8286TIP3    H124822   2.136   3.368   5.595
 8286TIP3    H224823   2.183   3.393   5.737
 8287TIP3   OH224824   7.185   5.584   4.646
 8287TIP3    H124825   7.273   5.559   4.675
 8287TIP3    H224826   7.126   5.540   4.707
 8288TIP3   OH224827   2.730   1.846   2.962
 8288TIP3    H124828   2.777   1.866   3.043
 8288TIP3    H224829   2.765   1.762   2.934
 8289TIP3   OH224830   5.079   1.883   4.100
 8289TIP3    H124831   5.154   1.882   4.040
 8289TIP3    H224832   5.019   1.819   4.063
 8290TIP3   OH224833   6.349   1.453   1.517
 8290TIP3    H124834   6.295   1.469   1.440
 8290TIP3    H224835   6.372   1.540   1.550
 8291TIP3   OH224836   1.518   2.826   1.648
 8291TIP3    H124837   1.520   2.838   1.553
 8291TIP3    H224838   1.500   2.733   1.661
 8292TIP3   OH224839   1.172   0.986   2.153
 8292TIP3    H124840   1.195   1.078   2.146
 8292TIP3    H224841   1.236   0.951   2.216
 8293TIP3   OH224842   5.461   6.323   5.481
 8293TIP3    H124843   5.541   6.363   5.515
 8293TIP3    H224844   5.415   6.291   5.559
 8294TIP3   OH224845   1.765   4.259   5.376
 8294TIP3    H124846   1.692   4.287   5.321
 8294TIP3    H224847   1.732   4.185   5.425
 8295TIP3   OH224848   3.577   4.843   0.923
 8295TIP3    H124849   3.671   4.828   0.914
 8295TIP3    H224850   3.552   4.791   0.999
 8296TIP3   OH224851   3.569   6.707   5.316
 8296TIP3    H124852   3.548   6.660   5.396
 8296TIP3    H224853   3.665   6.718   5.318
 8297TIP3   OH224854   4.944   0.102   1.013
 8297TIP3    H124855   4.880   0.173   1.004
 8297TIP3    H224856   4.896   0.023   0.989
 8298TIP3   OH224857   6.656   0.055   1.995
 8298TIP3    H124858   6.568   0.069   2.031
 8298TIP3    H224859   6.714   0.057   2.071
 8299TIP3   OH224860   4.477   4.776   5.550
 8299TIP3    H124861   4.460   4.845   5.615
 8299TIP3    H224862   4.470   4.695   5.600
 8300TIP3   OH224863   1.492   5.218   1.773
 8300TIP3    H124864   1.483   5.184   1.862
 8300TIP3    H224865   1.439   5.160   1.719
 8301TIP3   OH224866   0.038   4.198   0.515
 8301TIP3    H124867  -0.040   4.199   0.460
 8301TIP3    H224868   0.007   4.172   0.602
 8302TIP3   OH224869   1.866   6.474   1.746
 8302TIP3    H124870   1.920   6.440   1.818
 8302TIP3    H224871   1.929   6.500   1.679
 8303TIP3   OH224872   6.662   3.090   4.800
 8303TIP3    H124873   6.681   3.132   4.716
 8303TIP3    H224874   6.627   3.004   4.777
 8304TIP3   OH224875   0.759   0.801   2.505
 8304TIP3    H124876   0.845   0.815   2.545
 8304TIP3    H224877   0.749   0.706   2.505
 8305TIP3   OH224878   1.862   4.941   0.513
 8305TIP3    H124879   1.862   4.989   0.597
 8305TIP3    H224880   1.950   4.903   0.508
 8306TIP3   OH224881   5.484   5.559   2.474
 8306TIP3    H124882   5.452   5.483   2.426
 8306TIP3    H224883   5.540   5.606   2.411
 8307TIP3   OH224884   5.065   2.980   1.498
 8307TIP3    H124885   5.148   2.962   1.543
 8307TIP3    H224886   5.091   3.000   1.408
 8308TIP3   OH224887   5.281   5.025   2.803
 8308TIP3    H124888   5.217   5.058   2.739
 8308TIP3    H224889   5.270   5.083   2.878
 8309TIP3   OH224890   1.378   4.441   4.235
 8309TIP3    H124891   1.404   4.351   4.254
 8309TIP3    H224892   1.293   4.451   4.277
 8310TIP3   OH224893   1.557   4.202   2.603
 8310TIP3    H124894   1.531   4.173   2.516
 8310TIP3    H224895   1.652   4.211   2.598
 8311TIP3   OH224896   5.715   1.091   2.341
 8311TIP3    H124897   5.666   1.015   2.309
 8311TIP3    H224898   5.692   1.097   2.434
 8312TIP3   OH224899   7.129   0.255   4.867
 8312TIP3    H124900   7.135   0.217   4.780
 8312TIP3    H224901   7.163   0.344   4.856
 8313TIP3   OH224902   6.431   1.700   5.732
 8313TIP3    H124903   6.366   1.729   5.796
 8313TIP3    H224904   6.396   1.617   5.699
 8314TIP3   OH224905   4.122   1.658   1.114
 8314TIP3    H124906   4.078   1.707   1.044
 8314TIP3    H224907   4.194   1.614   1.070
 8315TIP3   OH224908   1.937   3.121   2.338
 8315TIP3    H124909   2.030   3.120   2.362
 8315TIP3    H224910   1.891   3.098   2.419
 8316TIP3   OH224911   6.999   5.991   4.645
 8316TIP3    H124912   6.976   5.903   4.676
 8316TIP3    H224913   7.048   6.030   4.717
 8317TIP3   OH224914   5.657   2.576   4.084
 8317TIP3    H124915   5.606   2.627   4.020
 8317TIP3    H224916   5.661   2.488   4.047
 8318TIP3   OH224917   1.759   5.255   2.309
 8318TIP3    H124918   1.670   5.240   2.339
 8318TIP3    H224919   1.812   5.192   2.358
 8319TIP3   OH224920   4.921   3.771   3.565
 8319TIP3    H124921   5.010   3.747   3.539
 8319TIP3    H224922   4.880   3.687   3.589
 8320TIP3   OH224923   4.535   0.720   5.660
 8320TIP3    H124924   4.490   0.792   5.617
 8320TIP3    H224925   4.491   0.711   5.745
 8321TIP3   OH224926   0.415   5.045   3.401
 8321TIP3    H124927   0.497   4.995   3.395
 8321TIP3    H224928   0.423   5.111   3.333
 8322TIP3   OH224929   6.143   2.392   4.715
 8322TIP3    H124930   6.180   2.320   4.767
 8322TIP3    H224931   6.109   2.349   4.636
 8323TIP3   OH224932   7.149   5.599   5.584
 8323TIP3    H124933   7.058   5.603   5.612
 8323TIP3    H224934   7.199   5.582   5.664
 8324TIP3   OH224935   3.760   0.281   3.794
 8324TIP3    H124936   3.665   0.268   3.791
 8324TIP3    H224937   3.785   0.301   3.704
 8325TIP3   OH224938   6.875   2.074   0.104
 8325TIP3    H124939   6.905   2.147   0.159
 8325TIP3    H224940   6.796   2.107   0.061
 8326TIP3   OH224941   2.015   4.770   0.875
 8326TIP3    H124942   1.925   4.748   0.850
 8326TIP3    H224943   2.006   4.822   0.954
 8327TIP3   OH224944   0.735   2.893   5.830
 8327TIP3    H124945   0.749   2.949   5.754
 8327TIP3    H224946   0.800   2.924   5.894
 8328TIP3   OH224947   2.256   4.096   4.292
 8328TIP3    H124948   2.259   4.162   4.223
 8328TIP3    H224949   2.163   4.073   4.299
 8329TIP3   OH224950   7.204   2.706   2.169
 8329TIP3    H124951   7.290   2.739   2.144
 8329TIP3    H224952   7.158   2.783   2.204
 8330TIP3   OH224953   2.421   4.822   3.790
 8330TIP3    H124954   2.420   4.859   3.879
 8330TIP3    H224955   2.482   4.877   3.742
 8331TIP3   OH224956   3.433   5.948   4.922
 8331TIP3    H124957   3.501   6.001   4.880
 8331TIP3    H224958   3.404   6.000   4.996
 8332TIP3   OH224959   3.687   4.220   5.347
 8332TIP3    H124960   3.630   4.204   5.423
 8332TIP3    H224961   3.650   4.299   5.307
 8333TIP3   OH224962   6.978   1.604   2.284
 8333TIP3    H124963   7.036   1.659   2.337
 8333TIP3    H224964   6.891   1.621   2.320
 8334TIP3   OH224965   1.238   3.183   2.317
 8334TIP3    H124966   1.322   3.165   2.277
 8334TIP3    H224967   1.235   3.278   2.327
 8335TIP3   OH224968   1.984   3.404   0.174
 8335TIP3    H124969   2.021   3.328   0.130
 8335TIP3    H224970   2.053   3.470   0.173
 8336TIP3   OH224971   3.543   5.673   5.656
 8336TIP3    H124972   3.546   5.765   5.629
 8336TIP3    H224973   3.459   5.641   5.623
 8337TIP3   OH224974   5.014   5.627   4.987
 8337TIP3    H124975   4.971   5.691   4.931
 8337TIP3    H224976   4.944   5.567   5.014
 8338TIP3   OH224977   2.044   3.609   0.942
 8338TIP3    H124978   1.971   3.557   0.974
 8338TIP3    H224979   2.087   3.553   0.877
 8339TIP3   OH224980   2.778   1.623   1.286
 8339TIP3    H124981   2.825   1.634   1.369
 8339TIP3    H224982   2.795   1.703   1.238
 8340TIP3   OH224983   4.516   6.060   4.958
 8340TIP3    H124984   4.505   5.965   4.962
 8340TIP3    H224985   4.609   6.073   4.942
 8341TIP3   OH224986   4.987   1.637   2.847
 8341TIP3    H124987   4.967   1.671   2.934
 8341TIP3    H224988   4.956   1.705   2.787
 8342TIP3   OH224989   6.989   3.222   0.208
 8342TIP3    H124990   6.903   3.259   0.189
 8342TIP3    H224991   6.972   3.129   0.224
 8343TIP3   OH224992   2.988   6.774   2.221
 8343TIP3    H124993   3.063   6.826   2.191
 8343TIP3    H224994   3.005   6.759   2.314
 8344TIP3   OH224995   5.457   4.652   2.826
 8344TIP3    H124996   5.436   4.592   2.897
 8344TIP3    H224997   5.379   4.706   2.816
 8345TIP3   OH224998   6.188   2.792   1.728
 8345TIP3    H124999   6.127   2.865   1.732
 8345TIP3    H225000   6.250   2.816   1.659
 8346TIP3   OH225001   6.072   6.406   2.825
 8346TIP3    H125002   6.098   6.315   2.806
 8346TIP3    H225003   6.064   6.447   2.740
 8347TIP3   OH225004   5.077   5.154   1.638
 8347TIP3    H125005   5.104   5.236   1.678
 8347TIP3    H225006   5.158   5.103   1.631
 8348TIP3   OH225007   4.884   0.182   4.664
 8348TIP3    H125008   4.911   0.251   4.604
 8348TIP3    H225009   4.927   0.103   4.632
 8349TIP3   OH225010   0.682   2.149   3.636
 8349TIP3    H125011   0.688   2.241   3.609
 8349TIP3    H225012   0.611   2.148   3.701
 8350TIP3   OH225013   0.216   6.311   0.304
 8350TIP3    H125014   0.230   6.368   0.379
 8350TIP3    H225015   0.259   6.356   0.231
 8351TIP3   OH225016   5.848   6.476   0.109
 8351TIP3    H125017   5.762   6.477   0.067
 8351TIP3    H225018   5.911   6.486   0.037
 8352TIP3   OH225019   4.925   3.809   4.422
 8352TIP3    H125020   5.003   3.764   4.456
 8352TIP3    H225021   4.931   3.897   4.458
 8353TIP3   OH225022   0.239   4.094   5.562
 8353TIP3    H125023   0.253   4.119   5.471
 8353TIP3    H225024   0.146   4.073   5.568
 8354TIP3   OH225025   3.352   5.445   0.698
 8354TIP3    H125026   3.394   5.452   0.783
 8354TIP3    H225027   3.263   5.478   0.712
 8355TIP3   OH225028   1.130   3.628   3.153
 8355TIP3    H125029   1.127   3.581   3.069
 8355TIP3    H225030   1.200   3.585   3.202
 8356TIP3   OH225031   2.088   4.857   4.698
 8356TIP3    H125032   2.162   4.806   4.664
 8356TIP3    H225033   2.113   4.948   4.683
 8357TIP3   OH225034   5.395   3.748   0.688
 8357TIP3    H125035   5.341   3.766   0.765
 8357TIP3    H225036   5.450   3.674   0.713
 8358TIP3   OH225037   1.273   3.859   5.717
 8358TIP3    H125038   1.213   3.786   5.737
 8358TIP3    H225039   1.334   3.822   5.652
 8359TIP3   OH225040   1.144   0.102   0.565
 8359TIP3    H125041   1.153   0.007   0.561
 8359TIP3    H225042   1.228   0.133   0.600
 8360TIP3   OH225043   3.727   5.246   3.441
 8360TIP3    H125044   3.691   5.280   3.523
 8360TIP3    H225045   3.655   5.196   3.402
 8361TIP3   OH225046   0.916   3.666   0.547
 8361TIP3    H125047   0.932   3.716   0.627
 8361TIP3    H225048   0.837   3.705   0.509
 8362TIP3   OH225049   4.057   3.311   4.820
 8362TIP3    H125050   4.121   3.292   4.752
 8362TIP3    H225051   4.030   3.225   4.853
 8363TIP3   OH225052   1.439   3.110   3.782
 8363TIP3    H125053   1.469   3.096   3.692
 8363TIP3    H225054   1.448   3.204   3.796
 8364TIP3   OH225055   0.908   0.284   5.436
 8364TIP3    H125056   0.841   0.344   5.405
 8364TIP3    H225057   0.976   0.287   5.370
 8365TIP3   OH225058   5.833   0.501   3.358
 8365TIP3    H125059   5.838   0.595   3.343
 8365TIP3    H225060   5.839   0.492   3.453
 8366TIP3   OH225061   6.835   5.958   5.769
 8366TIP3    H125062   6.836   5.906   5.849
 8366TIP3    H225063   6.795   5.900   5.704
 8367TIP3   OH225064   2.470   0.124   1.037
 8367TIP3    H125065   2.456   0.216   1.057
 8367TIP3    H225066   2.515   0.088   1.114
 8368TIP3   OH225067   1.446   4.097   1.560
 8368TIP3    H125068   1.370   4.039   1.559
 8368TIP3    H225069   1.512   4.050   1.610
 8369TIP3   OH225070   5.700   2.604   5.157
 8369TIP3    H125071   5.776   2.657   5.132
 8369TIP3    H225072   5.625   2.661   5.141
 8370TIP3   OH225073   1.510   3.980   3.529
 8370TIP3    H125074   1.581   4.025   3.482
 8370TIP3    H225075   1.491   4.037   3.603
 8371TIP3   OH225076   2.167   5.639   4.137
 8371TIP3    H125077   2.101   5.631   4.206
 8371TIP3    H225078   2.246   5.666   4.184
 8372TIP3   OH225079   7.200   3.242   4.988
 8372TIP3    H125080   7.131   3.200   4.938
 8372TIP3    H225081   7.153   3.293   5.055
 8373TIP3   OH225082   5.729   4.904   4.319
 8373TIP3    H125083   5.662   4.837   4.320
 8373TIP3    H225084   5.762   4.905   4.229
 8374TIP3   OH225085   2.331   2.599   0.749
 8374TIP3    H125086   2.403   2.646   0.707
 8374TIP3    H225087   2.372   2.551   0.821
 8375TIP3   OH225088   4.057   0.860   0.380
 8375TIP3    H125089   4.008   0.901   0.452
 8375TIP3    H225090   4.140   0.835   0.420
 8376TIP3   OH225091   4.428   0.558   2.290
 8376TIP3    H125092   4.373   0.486   2.259
 8376TIP3    H225093   4.452   0.606   2.210
 8377TIP3   OH225094   4.118   2.478   2.231
 8377TIP3    H125095   4.028   2.456   2.258
 8377TIP3    H225096   4.108   2.557   2.178
 8378TIP3   OH225097   2.457   5.863   1.353
 8378TIP3    H125098   2.507   5.917   1.292
 8378TIP3    H225099   2.367   5.871   1.324
 8379TIP3   OH225100   1.525   3.816   4.763
 8379TIP3    H125101   1.544   3.908   4.780
 8379TIP3    H225102   1.607   3.770   4.780
 8380TIP3   OH225103   7.074   1.112   4.816
 8380TIP3    H125104   7.031   1.059   4.749
 8380TIP3    H225105   7.168   1.101   4.799
 8381TIP3   OH225106   4.242   5.773   5.482
 8381TIP3    H125107   4.259   5.691   5.435
 8381TIP3    H225108   4.186   5.746   5.556
 8382TIP3   OH225109   5.232   1.652   2.590
 8382TIP3    H125110   5.140   1.654   2.565
 8382TIP3    H225111   5.246   1.734   2.638
 8383TIP3   OH225112   5.819   1.743   4.499
 8383TIP3    H125113   5.781   1.710   4.580
 8383TIP3    H225114   5.768   1.822   4.479
 8384TIP3   OH225115   3.320   4.450   0.379
 8384TIP3    H125116   3.293   4.402   0.457
 8384TIP3    H225117   3.287   4.539   0.393
 8385TIP3   OH225118   2.576   0.262   3.441
 8385TIP3    H125119   2.510   0.297   3.381
 8385TIP3    H225120   2.527   0.206   3.501
 8386TIP3   OH225121   3.692   4.230   2.542
 8386TIP3    H125122   3.692   4.151   2.488
 8386TIP3    H225123   3.718   4.200   2.629
 8387TIP3   OH225124   3.966   0.389   3.271
 8387TIP3    H125125   4.005   0.338   3.342
 8387TIP3    H225126   3.941   0.472   3.313
 8388TIP3   OH225127   3.169   6.586   3.843
 8388TIP3    H125128   3.173   6.664   3.787
 8388TIP3    H225129   3.091   6.539   3.813
 8389TIP3   OH225130   4.830   1.076   3.968
 8389TIP3    H125131   4.761   1.009   3.973
 8389TIP3    H225132   4.840   1.093   3.874
 8390TIP3   OH225133   4.167   0.876   5.083
 8390TIP3    H125134   4.176   0.803   5.022
 8390TIP3    H225135   4.078   0.907   5.071
 8391TIP3   OH225136   4.065   4.240   0.184
 8391TIP3    H125137   4.094   4.320   0.140
 8391TIP3    H225138   3.970   4.251   0.194
 8392TIP3   OH225139   5.929   0.943   1.574
 8392TIP3    H125140   5.849   0.981   1.610
 8392TIP3    H225141   5.992   0.946   1.646
 8393TIP3   OH225142   6.853   3.338   3.013
 8393TIP3    H125143   6.780   3.395   2.990
 8393TIP3    H225144   6.882   3.302   2.929
 8394TIP3   OH225145   3.078   2.601   5.098
 8394TIP3    H125146   3.038   2.683   5.070
 8394TIP3    H225147   3.007   2.538   5.100
 8395TIP3   OH225148   2.686   0.892   5.480
 8395TIP3    H125149   2.777   0.864   5.485
 8395TIP3    H225150   2.649   0.873   5.566
 8396TIP3   OH225151   0.388   5.129   2.735
 8396TIP3    H125152   0.454   5.188   2.771
 8396TIP3    H225153   0.399   5.136   2.640
 8397TIP3   OH225154   7.109   2.353   2.221
 8397TIP3    H125155   7.077   2.346   2.131
 8397TIP3    H225156   7.042   2.405   2.265
 8398TIP3   OH225157   4.127   2.713   2.752
 8398TIP3    H125158   4.183   2.773   2.801
 8398TIP3    H225159   4.115   2.638   2.811
 8399TIP3   OH225160   5.749   0.300   5.118
 8399TIP3    H125161   5.749   0.357   5.195
 8399TIP3    H225162   5.764   0.212   5.153
 8400TIP3   OH225163   6.661   4.288   0.607
 8400TIP3    H125164   6.703   4.294   0.693
 8400TIP3    H225165   6.674   4.375   0.568
 8401TIP3   OH225166   1.032   3.085   0.225
 8401TIP3    H125167   1.085   3.126   0.157
 8401TIP3    H225168   0.967   3.151   0.249
 8402TIP3   OH225169   6.433   6.193   1.689
 8402TIP3    H125170   6.403   6.267   1.636
 8402TIP3    H225171   6.368   6.185   1.758
 8403TIP3   OH225172   5.434   0.066   5.733
 8403TIP3    H125173   5.398   0.041   5.648
 8403TIP3    H225174   5.359   0.098   5.783
 8404TIP3   OH225175   1.053   1.543   1.416
 8404TIP3    H125176   0.989   1.506   1.478
 8404TIP3    H225177   1.091   1.617   1.462
 8405TIP3   OH225178   5.735   6.214   1.882
 8405TIP3    H125179   5.649   6.255   1.897
 8405TIP3    H225180   5.731   6.184   1.791
 8406TIP3   OH225181   0.919   3.924   4.576
 8406TIP3    H125182   0.933   3.830   4.570
 8406TIP3    H225183   0.889   3.949   4.489
 8407TIP3   OH225184   5.089   6.332   2.691
 8407TIP3    H125185   5.003   6.292   2.687
 8407TIP3    H225186   5.100   6.376   2.606
 8408TIP3   OH225187   3.231   0.462   3.847
 8408TIP3    H125188   3.252   0.554   3.864
 8408TIP3    H225189   3.239   0.419   3.932
 8409TIP3   OH225190   1.862   6.745   2.022
 8409TIP3    H125191   1.856   6.650   2.017
 8409TIP3    H225192   1.884   6.763   2.114
 8410TIP3   OH225193   3.186   2.844   2.300
 8410TIP3    H125194   3.186   2.915   2.363
 8410TIP3    H225195   3.271   2.849   2.257
 8411TIP3   OH225196   5.702   0.317   4.869
 8411TIP3    H125197   5.767   0.386   4.856
 8411TIP3    H225198   5.712   0.292   4.961
 8412TIP3   OH225199   1.872   0.455   3.454
 8412TIP3    H125200   1.858   0.435   3.362
 8412TIP3    H225201   1.797   0.415   3.499
 8413TIP3   OH225202   3.896   4.549   0.406
 8413TIP3    H125203   3.967   4.587   0.457
 8413TIP3    H225204   3.935   4.473   0.363
 8414TIP3   OH225205   2.327   1.641   4.160
 8414TIP3    H125206   2.297   1.676   4.076
 8414TIP3    H225207   2.342   1.548   4.143
 8415TIP3   OH225208   0.730   5.871   5.225
 8415TIP3    H125209   0.788   5.926   5.171
 8415TIP3    H225210   0.782   5.849   5.302
 8416TIP3   OH225211   6.076   5.562   3.378
 8416TIP3    H125212   5.985   5.575   3.404
 8416TIP3    H225213   6.117   5.520   3.453
 8417TIP3   OH225214   4.982   6.006   5.586
 8417TIP3    H125215   4.889   5.996   5.569
 8417TIP3    H225216   4.993   6.100   5.604
 8418TIP3   OH225217   0.357   5.243   0.101
 8418TIP3    H125218   0.382   5.176   0.038
 8418TIP3    H225219   0.440   5.285   0.125
 8419TIP3   OH225220   6.094   1.044   3.841
 8419TIP3    H125221   6.008   1.013   3.814
 8419TIP3    H225222   6.095   1.033   3.937
 8420TIP3   OH225223   6.573   0.535   4.908
 8420TIP3    H125224   6.570   0.542   5.003
 8420TIP3    H225225   6.502   0.590   4.877
 8421TIP3   OH225226   0.099   4.599   0.955
 8421TIP3    H125227   0.101   4.619   0.861
 8421TIP3    H225228   0.144   4.674   0.995
 8422TIP3   OH225229   6.729   6.847   3.534
 8422TIP3    H125230   6.636   6.833   3.550
 8422TIP3    H225231   6.732   6.883   3.445
 8423TIP3   OH225232   6.651   4.084   2.447
 8423TIP3    H125233   6.601   4.110   2.524
 8423TIP3    H225234   6.652   4.162   2.392
 8424TIP3   OH225235   2.672   6.494   4.575
 8424TIP3    H125236   2.622   6.561   4.622
 8424TIP3    H225237   2.754   6.538   4.553
 8425TIP3   OH225238   6.286   0.346   2.505
 8425TIP3    H125239   6.207   0.384   2.466
 8425TIP3    H225240   6.358   0.400   2.472
 8426TIP3   OH225241   5.404   2.263   4.082
 8426TIP3    H125242   5.440   2.185   4.123
 8426TIP3    H225243   5.475   2.299   4.030
 8427TIP3   OH225244   0.672   6.154   4.983
 8427TIP3    H125245   0.639   6.168   4.894
 8427TIP3    H225246   0.598   6.175   5.040
 8428TIP3   OH225247   5.943   3.035   4.653
 8428TIP3    H125248   5.901   3.104   4.601
 8428TIP3    H225249   6.001   3.083   4.712
 8429TIP3   OH225250   4.803   1.160   3.113
 8429TIP3    H125251   4.849   1.171   3.029
 8429TIP3    H225252   4.797   1.065   3.124
 8430TIP3   OH225253   4.937   1.700   1.261
 8430TIP3    H125254   5.018   1.746   1.285
 8430TIP3    H225255   4.948   1.612   1.299
 8431TIP3   OH225256   4.672   5.371   0.540
 8431TIP3    H125257   4.754   5.419   0.550
 8431TIP3    H225258   4.605   5.434   0.568
 8432TIP3   OH225259   4.415   0.867   1.634
 8432TIP3    H125260   4.505   0.895   1.622
 8432TIP3    H225261   4.375   0.936   1.688
 8433TIP3   OH225262   1.058   4.822   0.889
 8433TIP3    H125263   1.028   4.837   0.978
 8433TIP3    H225264   0.991   4.766   0.849
 8434TIP3   OH225265   2.666   0.529   1.359
 8434TIP3    H125266   2.697   0.564   1.442
 8434TIP3    H225267   2.716   0.448   1.347
 8435TIP3   OH225268   2.859   6.711   4.605
 8435TIP3    H125269   2.842   6.797   4.642
 8435TIP3    H225270   2.935   6.679   4.653
 8436TIP3   OH225271   7.082   3.493   4.170
 8436TIP3    H125272   7.084   3.487   4.266
 8436TIP3    H225273   7.092   3.586   4.152
 8437TIP3   OH225274   3.713   0.948   5.779
 8437TIP3    H125275   3.799   0.942   5.736
 8437TIP3    H225276   3.729   0.915   5.868
 8438TIP3   OH225277   1.225   1.313   0.344
 8438TIP3    H125278   1.157   1.297   0.410
 8438TIP3    H225279   1.199   1.394   0.302
 8439TIP3   OH225280   2.923   3.732   0.630
 8439TIP3    H125281   2.854   3.799   0.630
 8439TIP3    H225282   3.004   3.781   0.642
 8440TIP3   OH225283   3.238   2.046   0.615
 8440TIP3    H125284   3.160   2.000   0.646
 8440TIP3    H225285   3.272   2.091   0.692
 8441TIP3   OH225286   0.803   4.482   0.379
 8441TIP3    H125287   0.716   4.450   0.354
 8441TIP3    H225288   0.785   4.557   0.435
 8442TIP3   OH225289   6.728   5.175   3.642
 8442TIP3    H125290   6.643   5.216   3.657
 8442TIP3    H225291   6.730   5.156   3.548
 8443TIP3   OH225292   0.744   4.627   2.238
 8443TIP3    H125293   0.816   4.668   2.286
 8443TIP3    H225294   0.757   4.533   2.251
 8444TIP3   OH225295   3.174   3.283   2.418
 8444TIP3    H125296   3.270   3.286   2.417
 8444TIP3    H225297   3.147   3.375   2.421
 8445TIP3   OH225298   2.437   3.556   2.765
 8445TIP3    H125299   2.398   3.643   2.759
 8445TIP3    H225300   2.364   3.498   2.785
 8446TIP3   OH225301   2.213   5.918   2.493
 8446TIP3    H125302   2.282   5.938   2.429
 8446TIP3    H225303   2.174   6.003   2.514
 8447TIP3   OH225304   1.619   2.459   3.075
 8447TIP3    H125305   1.534   2.436   3.037
 8447TIP3    H225306   1.677   2.388   3.046
 8448TIP3   OH225307   1.122   4.083   0.495
 8448TIP3    H125308   1.070   4.148   0.541
 8448TIP3    H225309   1.098   4.094   0.403
 8449TIP3   OH225310   4.551   1.709   0.840
 8449TIP3    H125311   4.527   1.776   0.777
 8449TIP3    H225312   4.621   1.748   0.892
 8450TIP3   OH225313   6.504   4.308   4.377
 8450TIP3    H125314   6.528   4.245   4.309
 8450TIP3    H225315   6.429   4.355   4.340
 8451TIP3   OH225316   0.690   3.986   1.236
 8451TIP3    H125317   0.726   3.917   1.290
 8451TIP3    H225318   0.606   3.951   1.205
 8452TIP3   OH225319   2.792   1.236   1.454
 8452TIP3    H125320   2.802   1.243   1.359
 8452TIP3    H225321   2.711   1.283   1.472
 8453TIP3   OH225322   1.748   5.152   5.879
 8453TIP3    H125323   1.702   5.085   5.830
 8453TIP3    H225324   1.819   5.180   5.821
 8454TIP3   OH225325   6.764   6.205   0.937
 8454TIP3    H125326   6.821   6.138   0.976
 8454TIP3    H225327   6.824   6.267   0.897
 8455TIP3   OH225328   1.263   3.479   5.231
 8455TIP3    H125329   1.309   3.396   5.217
 8455TIP3    H225330   1.173   3.453   5.251
 8456TIP3   OH225331   4.519   0.194   2.570
 8456TIP3    H125332   4.583   0.240   2.515
 8456TIP3    H225333   4.525   0.103   2.541
 8457TIP3   OH225334   5.792   2.133   5.053
 8457TIP3    H125335   5.799   2.060   5.115
 8457TIP3    H225336   5.706   2.122   5.013
 8458TIP3   OH225337   2.118   2.725   2.146
 8458TIP3    H125338   2.039   2.773   2.120
 8458TIP3    H225339   2.189   2.788   2.135
 8459TIP3   OH225340   4.907   4.891   2.756
 8459TIP3    H125341   4.937   4.889   2.665
 8459TIP3    H225342   4.877   4.801   2.773
 8460TIP3   OH225343   2.331   1.719   1.996
 8460TIP3    H125344   2.285   1.638   1.975
 8460TIP3    H225345   2.274   1.789   1.964
 8461TIP3   OH225346   0.242   5.412   5.080
 8461TIP3    H125347   0.149   5.425   5.063
 8461TIP3    H225348   0.272   5.358   5.007
 8462TIP3   OH225349   0.187   2.182   3.807
 8462TIP3    H125350   0.179   2.235   3.886
 8462TIP3    H225351   0.097   2.153   3.788
 8463TIP3   OH225352   2.923   3.336   1.119
 8463TIP3    H125353   2.837   3.376   1.134
 8463TIP3    H225354   2.958   3.384   1.043
 8464TIP3   OH225355   1.218   3.988   0.742
 8464TIP3    H125356   1.190   4.014   0.654
 8464TIP3    H225357   1.227   4.070   0.790
 8465TIP3   OH225358   1.875   3.067   0.296
 8465TIP3    H125359   1.952   3.111   0.260
 8465TIP3    H225360   1.850   3.003   0.229
 8466TIP3   OH225361   3.573   1.486   5.286
 8466TIP3    H125362   3.538   1.469   5.198
 8466TIP3    H225363   3.649   1.428   5.293
 8467TIP3   OH225364   4.513   1.412   3.219
 8467TIP3    H125365   4.477   1.488   3.265
 8467TIP3    H225366   4.572   1.449   3.154
 8468TIP3   OH225367   1.793   5.193   2.026
 8468TIP3    H125368   1.703   5.162   2.035
 8468TIP3    H225369   1.833   5.178   2.111
 8469TIP3   OH225370   1.436   5.408   4.289
 8469TIP3    H125371   1.507   5.473   4.295
 8469TIP3    H225372   1.449   5.366   4.204
 8470TIP3   OH225373   2.276   1.164   2.177
 8470TIP3    H125374   2.261   1.190   2.268
 8470TIP3    H225375   2.299   1.071   2.182
 8471TIP3   OH225376   3.016   5.728   5.411
 8471TIP3    H125377   3.032   5.653   5.354
 8471TIP3    H225378   2.975   5.691   5.489
 8472TIP3   OH225379   1.790   3.600   2.844
 8472TIP3    H125380   1.696   3.595   2.823
 8472TIP3    H225381   1.818   3.509   2.851
 8473TIP3   OH225382   6.362   5.246   2.876
 8473TIP3    H125383   6.417   5.319   2.850
 8473TIP3    H225384   6.374   5.181   2.808
 8474TIP3   OH225385   5.441   2.391   2.515
 8474TIP3    H125386   5.425   2.394   2.420
 8474TIP3    H225387   5.399   2.310   2.543
 8475TIP3   OH225388   2.936   5.696   0.946
 8475TIP3    H125389   2.942   5.759   1.018
 8475TIP3    H225390   2.873   5.735   0.885
 8476TIP3   OH225391   0.708   5.069   3.573
 8476TIP3    H125392   0.674   5.069   3.663
 8476TIP3    H225393   0.704   4.977   3.547
 8477TIP3   OH225394   4.619   4.239   4.146
 8477TIP3    H125395   4.652   4.324   4.118
 8477TIP3    H225396   4.658   4.177   4.085
 8478TIP3   OH225397   2.796   3.704   4.342
 8478TIP3    H125398   2.751   3.787   4.361
 8478TIP3    H225399   2.768   3.645   4.412
 8479TIP3   OH225400   5.789   3.769   0.402
 8479TIP3    H125401   5.698   3.792   0.417
 8479TIP3    H225402   5.823   3.746   0.489
 8480TIP3   OH225403   6.127   2.811   5.343
 8480TIP3    H125404   6.145   2.871   5.271
 8480TIP3    H225405   6.209   2.807   5.392
 8481TIP3   OH225406   4.587   3.104   3.447
 8481TIP3    H125407   4.582   3.022   3.497
 8481TIP3    H225408   4.502   3.111   3.404
 8482TIP3   OH225409   5.530   1.190   4.220
 8482TIP3    H125410   5.509   1.269   4.170
 8482TIP3    H225411   5.623   1.176   4.204
 8483TIP3   OH225412   2.428   3.484   2.411
 8483TIP3    H125413   2.395   3.573   2.419
 8483TIP3    H225414   2.509   3.484   2.462
 8484TIP3   OH225415   5.573   0.284   4.333
 8484TIP3    H125416   5.503   0.346   4.314
 8484TIP3    H225417   5.636   0.298   4.262
 8485TIP3   OH225418   4.494   4.945   0.611
 8485TIP3    H125419   4.452   4.981   0.533
 8485TIP3    H225420   4.443   4.866   0.631
 8486TIP3   OH225421   0.084   6.082   4.646
 8486TIP3    H125422   0.092   6.033   4.728
 8486TIP3    H225423   0.051   6.019   4.583
 8487TIP3   OH225424   6.104   1.715   0.188
 8487TIP3    H125425   6.114   1.792   0.243
 8487TIP3    H225426   6.128   1.642   0.244
 8488TIP3   OH225427   1.208   5.118   4.246
 8488TIP3    H125428   1.200   5.125   4.151
 8488TIP3    H225429   1.301   5.131   4.263
 8489TIP3   OH225430   2.787   2.654   5.864
 8489TIP3    H125431   2.718   2.720   5.853
 8489TIP3    H225432   2.831   2.652   5.779
 8490TIP3   OH225433   3.966   0.634   3.016
 8490TIP3    H125434   3.887   0.590   3.046
 8490TIP3    H225435   4.024   0.563   2.989
 8491TIP3   OH225436   5.502   2.105   3.839
 8491TIP3    H125437   5.409   2.093   3.822
 8491TIP3    H225438   5.545   2.085   3.756
 8492TIP3   OH225439   5.861   2.926   4.207
 8492TIP3    H125440   5.894   3.015   4.202
 8492TIP3    H225441   5.795   2.928   4.277
 8493TIP3   OH225442   4.342   1.808   1.915
 8493TIP3    H125443   4.331   1.851   2.000
 8493TIP3    H225444   4.264   1.752   1.906
 8494TIP3   OH225445   5.800   0.567   3.632
 8494TIP3    H125446   5.796   0.487   3.684
 8494TIP3    H225447   5.737   0.626   3.674
 8495TIP3   OH225448   4.382   2.960   0.573
 8495TIP3    H125449   4.340   2.976   0.488
 8495TIP3    H225450   4.320   2.905   0.621
 8496TIP3   OH225451   6.968   3.875   4.295
 8496TIP3    H125452   7.029   3.864   4.222
 8496TIP3    H225453   7.021   3.914   4.365
 8497TIP3   OH225454   0.101   1.537   0.230
 8497TIP3    H125455   0.074   1.531   0.322
 8497TIP3    H225456   0.019   1.551   0.182
 8498TIP3   OH225457   4.254   3.305   1.625
 8498TIP3    H125458   4.229   3.355   1.702
 8498TIP3    H225459   4.327   3.250   1.654
 8499TIP3   OH225460   6.341   4.134   5.314
 8499TIP3    H125461   6.283   4.105   5.243
 8499TIP3    H225462   6.284   4.138   5.391
 8500TIP3   OH225463   3.863   1.299   3.237
 8500TIP3    H125464   3.782   1.272   3.193
 8500TIP3    H225465   3.924   1.316   3.165
 8501TIP3   OH225466   3.107   5.481   2.629
 8501TIP3    H125467   3.110   5.564   2.581
 8501TIP3    H225468   3.093   5.506   2.720
 8502TIP3   OH225469   0.214   0.349   2.251
 8502TIP3    H125470   0.239   0.269   2.298
 8502TIP3    H225471   0.130   0.374   2.289
 8503TIP3   OH225472   1.208   5.439   3.878
 8503TIP3    H125473   1.278   5.464   3.938
 8503TIP3    H225474   1.136   5.499   3.897
 8504TIP3   OH225475   3.716   3.047   5.604
 8504TIP3    H125476   3.722   2.981   5.535
 8504TIP3    H225477   3.788   3.026   5.664
 8505TIP3   OH225478   1.778   5.982   0.680
 8505TIP3    H125479   1.866   5.948   0.667
 8505TIP3    H225480   1.785   6.076   0.661
 8506TIP3   OH225481   2.930   1.444   5.465
 8506TIP3    H125482   2.878   1.427   5.544
 8506TIP3    H225483   2.865   1.454   5.395
 8507TIP3   OH225484   2.480   6.437   1.491
 8507TIP3    H125485   2.467   6.531   1.483
 8507TIP3    H225486   2.508   6.409   1.404
 8508TIP3   OH225487   1.662   4.853   3.940
 8508TIP3    H125488   1.723   4.853   3.867
 8508TIP3    H225489   1.712   4.817   4.013
 8509TIP3   OH225490   1.531   3.149   5.112
 8509TIP3    H125491   1.604   3.193   5.155
 8509TIP3    H225492   1.453   3.188   5.152
 8510TIP3   OH225493   2.092   4.049   3.998
 8510TIP3    H125494   2.031   4.049   4.072
 8510TIP3    H225495   2.075   4.131   3.952
 8511TIP3   OH225496   3.031   5.549   2.890
 8511TIP3    H125497   3.045   5.542   2.984
 8511TIP3    H225498   2.976   5.627   2.880
 8512TIP3   OH225499   5.369   6.063   0.815
 8512TIP3    H125500   5.434   6.018   0.761
 8512TIP3    H225501   5.412   6.145   0.840
 8513TIP3   OH225502   2.428   5.569   5.863
 8513TIP3    H125503   2.524   5.568   5.854
 8513TIP3    H225504   2.399   5.629   5.794
 8514TIP3   OH225505   4.422   6.448   5.422
 8514TIP3    H125506   4.387   6.536   5.406
 8514TIP3    H225507   4.409   6.401   5.340
 8515TIP3   OH225508   5.762   4.722   1.599
 8515TIP3    H125509   5.761   4.816   1.585
 8515TIP3    H225510   5.719   4.686   1.520
 8516TIP3   OH225511   3.138   2.309   0.701
 8516TIP3    H125512   3.182   2.249   0.761
 8516TIP3    H225513   3.160   2.396   0.734
 8517TIP3   OH225514   3.697   3.424   4.019
 8517TIP3    H125515   3.743   3.506   4.002
 8517TIP3    H225516   3.711   3.371   3.940
 8518TIP3   OH225517   4.839   5.108   2.322
 8518TIP3    H125518   4.843   5.133   2.414
 8518TIP3    H225519   4.786   5.028   2.321
 8519TIP3   OH225520   6.549   4.059   3.126
 8519TIP3    H125521   6.471   4.022   3.085
 8519TIP3    H225522   6.621   4.028   3.072
 8520TIP3   OH225523   0.612   0.067   1.392
 8520TIP3    H125524   0.520   0.053   1.411
 8520TIP3    H225525   0.644   0.119   1.466
 8521TIP3   OH225526   3.333   2.573  -0.048
 8521TIP3    H125527   3.312   2.665  -0.032
 8521TIP3    H225528   3.271   2.525   0.006
 8522TIP3   OH225529   6.376   3.483   4.420
 8522TIP3    H125530   6.436   3.553   4.392
 8522TIP3    H225531   6.289   3.519   4.405
 8523TIP3   OH225532   0.213   3.543   2.873
 8523TIP3    H125533   0.191   3.475   2.937
 8523TIP3    H225534   0.160   3.618   2.899
 8524TIP3   OH225535   2.369   5.791   3.719
 8524TIP3    H125536   2.349   5.818   3.629
 8524TIP3    H225537   2.391   5.873   3.764
 8525TIP3   OH225538   3.480   1.421   5.047
 8525TIP3    H125539   3.495   1.336   5.087
 8525TIP3    H225540   3.535   1.421   4.969
 8526TIP3   OH225541   4.927   6.126   3.850
 8526TIP3    H125542   4.994   6.075   3.896
 8526TIP3    H225543   4.887   6.180   3.919
 8527TIP3   OH225544   0.559   1.551   5.743
 8527TIP3    H125545   0.525   1.639   5.763
 8527TIP3    H225546   0.653   1.558   5.757
 8528TIP3   OH225547   3.925   0.513   1.690
 8528TIP3    H125548   3.838   0.532   1.654
 8528TIP3    H225549   3.907   0.465   1.771
 8529TIP3   OH225550   5.902   2.886   5.496
 8529TIP3    H125551   5.985   2.858   5.456
 8529TIP3    H225552   5.884   2.820   5.562
 8530TIP3   OH225553   2.703   4.327   3.691
 8530TIP3    H125554   2.733   4.355   3.605
 8530TIP3    H225555   2.745   4.242   3.705
 8531TIP3   OH225556   6.528   0.768   0.263
 8531TIP3    H125557   6.519   0.803   0.352
 8531TIP3    H225558   6.514   0.844   0.207
 8532TIP3   OH225559   3.101   5.271   5.151
 8532TIP3    H125560   3.178   5.314   5.188
 8532TIP3    H225561   3.134   5.217   5.080
 8533TIP3   OH225562   4.875   2.214   0.322
 8533TIP3    H125563   4.896   2.142   0.262
 8533TIP3    H225564   4.915   2.291   0.282
 8534TIP3   OH225565   0.551   3.549   2.366
 8534TIP3    H125566   0.477   3.585   2.414
 8534TIP3    H225567   0.562   3.461   2.402
 8535TIP3   OH225568  -0.053   4.644   3.312
 8535TIP3    H125569  -0.031   4.592   3.389
 8535TIP3    H225570   0.028   4.645   3.260
 8536TIP3   OH225571   2.279   4.289   4.121
 8536TIP3    H125572   2.285   4.251   4.034
 8536TIP3    H225573   2.245   4.377   4.107
 8537TIP3   OH225574   0.303   2.705   3.370
 8537TIP3    H125575   0.388   2.743   3.390
 8537TIP3    H225576   0.319   2.610   3.366
 8538TIP3   OH225577   3.143   0.581   4.754
 8538TIP3    H125578   3.111   0.601   4.666
 8538TIP3    H225579   3.090   0.507   4.783
 8539TIP3   OH225580   2.483   3.784   4.621
 8539TIP3    H125581   2.465   3.838   4.697
 8539TIP3    H225582   2.446   3.832   4.547
 8540TIP3   OH225583   4.918   5.576   0.640
 8540TIP3    H125584   4.833   5.575   0.685
 8540TIP3    H225585   4.974   5.630   0.696
 8541TIP3   OH225586   2.862   0.542   0.767
 8541TIP3    H125587   2.787   0.547   0.708
 8541TIP3    H225588   2.911   0.622   0.749
 8542TIP3   OH225589   4.894   1.132   1.302
 8542TIP3    H125590   4.845   1.087   1.233
 8542TIP3    H225591   4.986   1.121   1.277
 8543TIP3   OH225592   4.263   0.047   5.409
 8543TIP3    H125593   4.253   0.142   5.419
 8543TIP3    H225594   4.346   0.036   5.363
 8544TIP3   OH225595   6.442   4.087   5.765
 8544TIP3    H125596   6.365   4.034   5.788
 8544TIP3    H225597   6.437   4.162   5.825
 8545TIP3   OH225598   0.008   5.123   1.476
 8545TIP3    H125599  -0.065   5.111   1.537
 8545TIP3    H225600   0.071   5.055   1.500
 8546TIP3   OH225601   3.787   3.660   0.531
 8546TIP3    H125602   3.730   3.714   0.477
 8546TIP3    H225603   3.728   3.612   0.588
 8547TIP3   OH225604   3.782   2.437   1.489
 8547TIP3    H125605   3.713   2.416   1.551
 8547TIP3    H225606   3.737   2.451   1.406
 8548TIP3   OH225607   7.263   0.035   2.851
 8548TIP3    H125608   7.294   0.010   2.763
 8548TIP3    H225609   7.219   0.119   2.837
 8549TIP3   OH225610   0.202   1.750   3.842
 8549TIP3    H125611   0.230   1.734   3.752
 8549TIP3    H225612   0.191   1.662   3.880
 8550TIP3   OH225613   2.877   1.967   4.621
 8550TIP3    H125614   2.903   1.984   4.712
 8550TIP3    H225615   2.954   1.990   4.569
 8551TIP3   OH225616   2.131   3.842   3.796
 8551TIP3    H125617   2.117   3.890   3.878
 8551TIP3    H225618   2.135   3.911   3.729
 8552TIP3   OH225619   2.321   5.155   2.669
 8552TIP3    H125620   2.411   5.138   2.695
 8552TIP3    H225621   2.306   5.246   2.693
 8553TIP3   OH225622   3.779   3.034   4.714
 8553TIP3    H125623   3.698   3.005   4.672
 8553TIP3    H225624   3.811   2.956   4.760
 8554TIP3   OH225625   0.318   3.543   1.261
 8554TIP3    H125626   0.297   3.636   1.273
 8554TIP3    H225627   0.244   3.497   1.300
 8555TIP3   OH225628   1.484   4.801   3.266
 8555TIP3    H125629   1.571   4.785   3.301
 8555TIP3    H225630   1.498   4.851   3.186
 8556TIP3   OH225631   5.340   4.779   2.320
 8556TIP3    H125632   5.295   4.722   2.383
 8556TIP3    H225633   5.415   4.814   2.368
 8557TIP3   OH225634   3.484   4.679   5.636
 8557TIP3    H125635   3.529   4.596   5.621
 8557TIP3    H225636   3.473   4.717   5.548
 8558TIP3   OH225637   4.376   6.094   3.587
 8558TIP3    H125638   4.382   6.039   3.665
 8558TIP3    H225639   4.326   6.041   3.525
 8559TIP3   OH225640   2.841   6.732   0.984
 8559TIP3    H125641   2.922   6.772   1.015
 8559TIP3    H225642   2.790   6.716   1.063
 8560TIP3   OH225643   0.845   5.539   5.068
 8560TIP3    H125644   0.787   5.546   5.144
 8560TIP3    H225645   0.911   5.608   5.081
 8561TIP3   OH225646   1.403   6.019   0.636
 8561TIP3    H125647   1.334   5.968   0.593
 8561TIP3    H225648   1.411   6.098   0.582
 8562TIP3   OH225649   0.340   6.466   0.105
 8562TIP3    H125650   0.331   6.519   0.026
 8562TIP3    H225651   0.381   6.524   0.169
 8563TIP3   OH225652   3.139   5.942   0.998
 8563TIP3    H125653   3.181   5.885   0.933
 8563TIP3    H225654   3.201   5.945   1.071
 8564TIP3   OH225655   5.249   2.290   1.592
 8564TIP3    H125656   5.311   2.339   1.538
 8564TIP3    H225657   5.268   2.317   1.682
 8565TIP3   OH225658   4.999   2.452   1.162
 8565TIP3    H125659   5.002   2.527   1.221
 8565TIP3    H225660   4.909   2.420   1.166
 8566TIP3   OH225661   6.692   4.319   0.213
 8566TIP3    H125662   6.744   4.382   0.261
 8566TIP3    H225663   6.684   4.244   0.272
 8567TIP3   OH225664   4.382   3.164   4.746
 8567TIP3    H125665   4.301   3.115   4.760
 8567TIP3    H225666   4.426   3.164   4.831
 8568TIP3   OH225667   2.121   3.350   4.856
 8568TIP3    H125668   2.026   3.338   4.854
 8568TIP3    H225669   2.133   3.444   4.867
 8569TIP3   OH225670   4.207   2.324   1.534
 8569TIP3    H125671   4.221   2.309   1.627
 8569TIP3    H225672   4.157   2.406   1.530
 8570TIP3   OH225673   0.966   4.978   0.677
 8570TIP3    H125674   0.950   4.937   0.762
 8570TIP3    H225675   1.029   5.048   0.696
 8571TIP3   OH225676   2.482   6.761   5.293
 8571TIP3    H125677   2.570   6.724   5.295
 8571TIP3    H225678   2.438   6.715   5.221
 8572TIP3   OH225679   0.105   2.306   4.067
 8572TIP3    H125680   0.128   2.253   4.143
 8572TIP3    H225681   0.176   2.371   4.061
 8573TIP3   OH225682   1.135   2.406   2.871
 8573TIP3    H125683   1.226   2.420   2.898
 8573TIP3    H225684   1.139   2.334   2.808
 8574TIP3   OH225685   0.483   6.612   0.307
 8574TIP3    H125686   0.555   6.633   0.248
 8574TIP3    H225687   0.513   6.535   0.356
 8575TIP3   OH225688   3.950   5.706   4.179
 8575TIP3    H125689   4.020   5.722   4.115
 8575TIP3    H225690   3.956   5.779   4.240
 8576TIP3   OH225691   2.895   0.711   0.273
 8576TIP3    H125692   2.850   0.765   0.208
 8576TIP3    H225693   2.985   0.705   0.242
 8577TIP3   OH225694   2.624   5.124   3.102
 8577TIP3    H125695   2.615   5.177   3.181
 8577TIP3    H225696   2.592   5.038   3.127
 8578TIP3   OH225697   3.677   5.176   2.760
 8578TIP3    H125698   3.734   5.249   2.782
 8578TIP3    H225699   3.589   5.206   2.784
 8579TIP3   OH225700   1.893   0.130   3.016
 8579TIP3    H125701   1.855   0.214   2.989
 8579TIP3    H225702   1.988   0.147   3.018
 8580TIP3   OH225703   5.868   0.916   3.533
 8580TIP3    H125704   5.950   0.964   3.543
 8580TIP3    H225705   5.801   0.977   3.562
 8581TIP3   OH225706   2.902   0.451   1.105
 8581TIP3    H125707   2.961   0.476   1.034
 8581TIP3    H225708   2.815   0.449   1.065
 8582TIP3   OH225709   2.822   3.680   1.213
 8582TIP3    H125710   2.849   3.666   1.304
 8582TIP3    H225711   2.773   3.600   1.190
 8583TIP3   OH225712   2.805   0.558   4.301
 8583TIP3    H125713   2.899   0.570   4.313
 8583TIP3    H225714   2.797   0.470   4.263
 8584TIP3   OH225715   5.310   4.141   3.740
 8584TIP3    H125716   5.258   4.076   3.788
 8584TIP3    H225717   5.248   4.210   3.718
 8585TIP3   OH225718   6.411   1.836   3.678
 8585TIP3    H125719   6.476   1.881   3.623
 8585TIP3    H225720   6.393   1.898   3.749
 8586TIP3   OH225721   4.624   1.383   2.786
 8586TIP3    H125722   4.619   1.436   2.866
 8586TIP3    H225723   4.702   1.329   2.798
 8587TIP3   OH225724   3.753   4.849   5.395
 8587TIP3    H125725   3.772   4.910   5.324
 8587TIP3    H225726   3.767   4.900   5.475
 8588TIP3   OH225727   1.119   2.520   4.500
 8588TIP3    H125728   1.086   2.503   4.411
 8588TIP3    H225729   1.086   2.447   4.552
 8589TIP3   OH225730   0.569   2.611   2.993
 8589TIP3    H125731   0.637   2.676   2.977
 8589TIP3    H225732   0.488   2.653   2.964
 8590TIP3   OH225733   5.081   0.236   4.005
 8590TIP3    H125734   5.001   0.211   3.958
 8590TIP3    H225735   5.152   0.210   3.947
 8591TIP3   OH225736   6.033   4.133   5.221
 8591TIP3    H125737   5.942   4.157   5.205
 8591TIP3    H225738   6.061   4.190   5.292
 8592TIP3   OH225739   3.368   1.283   4.371
 8592TIP3    H125740   3.370   1.188   4.383
 8592TIP3    H225741   3.358   1.318   4.460
 8593TIP3   OH225742   2.668   3.441   1.187
 8593TIP3    H125743   2.613   3.515   1.160
 8593TIP3    H225744   2.643   3.424   1.278
 8594TIP3   OH225745   1.442   4.295   2.999
 8594TIP3    H125746   1.449   4.381   3.038
 8594TIP3    H225747   1.348   4.276   2.997
 8595TIP3   OH225748   6.422   3.916   2.302
 8595TIP3    H125749   6.345   3.929   2.357
 8595TIP3    H225750   6.485   3.982   2.333
 8596TIP3   OH225751   6.679   1.553   3.337
 8596TIP3    H125752   6.670   1.560   3.432
 8596TIP3    H225753   6.771   1.573   3.320
 8597TIP3   OH225754   5.895   6.076   4.373
 8597TIP3    H125755   5.845   6.123   4.440
 8597TIP3    H225756   5.847   6.092   4.292
 8598TIP3   OH225757   6.573   5.218   4.108
 8598TIP3    H125758   6.493   5.174   4.138
 8598TIP3    H225759   6.624   5.149   4.066
 8599TIP3   OH225760   1.858   0.897   1.266
 8599TIP3    H125761   1.944   0.936   1.247
 8599TIP3    H225762   1.858   0.886   1.361
 8600TIP3   OH225763   2.410   3.920   0.877
 8600TIP3    H125764   2.350   3.913   0.804
 8600TIP3    H225765   2.354   3.924   0.954
 8601TIP3   OH225766   3.797   3.001   3.098
 8601TIP3    H125767   3.844   3.065   3.043
 8601TIP3    H225768   3.706   3.008   3.069
 8602TIP3   OH225769   1.350   4.655   5.978
 8602TIP3    H125770   1.373   4.598   5.904
 8602TIP3    H225771   1.291   4.720   5.941
 8603TIP3   OH225772   5.028   1.686   3.413
 8603TIP3    H125773   4.934   1.703   3.416
 8603TIP3    H225774   5.038   1.618   3.347
 8604TIP3   OH225775   3.697   2.120   2.073
 8604TIP3    H125776   3.630   2.141   2.137
 8604TIP3    H225777   3.751   2.199   2.068
 8605TIP3   OH225778   6.949   6.229   3.998
 8605TIP3    H125779   6.970   6.307   3.946
 8605TIP3    H225780   6.975   6.251   4.087
 8606TIP3   OH225781   3.099   5.413   5.575
 8606TIP3    H125782   3.055   5.334   5.543
 8606TIP3    H225783   3.055   5.434   5.657
 8607TIP3   OH225784   2.177   3.958   1.053
 8607TIP3    H125785   2.226   4.040   1.060
 8607TIP3    H225786   2.131   3.965   0.970
 8608TIP3   OH225787   0.604   6.170   0.760
 8608TIP3    H125788   0.513   6.147   0.740
 8608TIP3    H225789   0.654   6.145   0.682
 8609TIP3   OH225790   1.803   3.536   0.331
 8609TIP3    H125791   1.845   3.621   0.321
 8609TIP3    H225792   1.861   3.474   0.288
 8610TIP3   OH225793   1.702   4.778   0.797
 8610TIP3    H125794   1.645   4.806   0.726
 8610TIP3    H225795   1.705   4.854   0.856
 8611TIP3   OH225796   5.625   2.657   2.248
 8611TIP3    H125797   5.557   2.723   2.258
 8611TIP3    H225798   5.701   2.693   2.293
 8612TIP3   OH225799   6.299   5.822   1.465
 8612TIP3    H125800   6.328   5.891   1.405
 8612TIP3    H225801   6.360   5.750   1.451
 8613TIP3   OH225802   4.830   0.850   1.961
 8613TIP3    H125803   4.853   0.920   2.023
 8613TIP3    H225804   4.745   0.878   1.926
 8614TIP3   OH225805   2.580   6.072   1.788
 8614TIP3    H125806   2.629   6.006   1.837
 8614TIP3    H225807   2.612   6.155   1.822
 8615TIP3   OH225808   3.740   1.515   0.528
 8615TIP3    H125809   3.693   1.517   0.611
 8615TIP3    H225810   3.817   1.460   0.545
 8616TIP3   OH225811   3.443   1.658   3.519
 8616TIP3    H125812   3.367   1.707   3.553
 8616TIP3    H225813   3.445   1.579   3.572
 8617TIP3   OH225814   6.600   5.966   4.997
 8617TIP3    H125815   6.543   5.929   5.065
 8617TIP3    H225816   6.552   6.044   4.967
 8618TIP3   OH225817   5.109   6.400   2.155
 8618TIP3    H125818   5.092   6.391   2.061
 8618TIP3    H225819   5.105   6.311   2.189
 8619TIP3   OH225820   4.561   2.607   1.995
 8619TIP3    H125821   4.566   2.608   1.899
 8619TIP3    H225822   4.523   2.692   2.017
 8620TIP3   OH225823   1.225   5.916   5.371
 8620TIP3    H125824   1.235   5.898   5.278
 8620TIP3    H225825   1.140   5.879   5.394
 8621TIP3   OH225826   1.387   3.291   0.602
 8621TIP3    H125827   1.375   3.218   0.541
 8621TIP3    H225828   1.302   3.335   0.604
 8622TIP3   OH225829   3.861   5.437   2.756
 8622TIP3    H125830   3.920   5.446   2.682
 8622TIP3    H225831   3.838   5.527   2.779
 8623TIP3   OH225832   3.008   6.058   2.964
 8623TIP3    H125833   2.967   6.138   2.930
 8623TIP3    H225834   3.102   6.072   2.950
 8624TIP3   OH225835   5.965   1.076   2.935
 8624TIP3    H125836   5.959   1.158   2.886
 8624TIP3    H225837   5.880   1.033   2.920
 8625TIP3   OH225838   0.100   3.304   1.363
 8625TIP3    H125839   0.059   3.389   1.348
 8625TIP3    H225840   0.058   3.246   1.299
 8626TIP3   OH225841   4.903   1.674   4.014
 8626TIP3    H125842   4.825   1.620   3.999
 8626TIP3    H225843   4.934   1.697   3.926
 8627TIP3   OH225844   3.833   1.610   4.977
 8627TIP3    H125845   3.803   1.695   5.009
 8627TIP3    H225846   3.863   1.627   4.888
 8628TIP3   OH225847   1.088   1.428   4.874
 8628TIP3    H125848   1.182   1.426   4.852
 8628TIP3    H225849   1.044   1.424   4.789
 8629TIP3   OH225850   7.198   5.564   2.250
 8629TIP3    H125851   7.196   5.657   2.228
 8629TIP3    H225852   7.107   5.535   2.240
 8630TIP3   OH225853   5.975   6.314   4.652
 8630TIP3    H125854   6.064   6.336   4.680
 8630TIP3    H225855   5.952   6.237   4.705
 8631TIP3   OH225856   0.297   6.387   4.731
 8631TIP3    H125857   0.212   6.377   4.776
 8631TIP3    H225858   0.296   6.320   4.663
 8632TIP3   OH225859   0.682   2.336   2.870
 8632TIP3    H125860   0.776   2.353   2.864
 8632TIP3    H225861   0.643   2.421   2.892
 8633TIP3   OH225862   7.099   4.750   1.237
 8633TIP3    H125863   7.049   4.699   1.174
 8633TIP3    H225864   7.062   4.727   1.322
 8634TIP3   OH225865   1.857   6.050   1.446
 8634TIP3    H125866   1.952   6.049   1.431
 8634TIP3    H225867   1.835   5.959   1.466
 8635TIP3   OH225868   6.578   1.002   4.462
 8635TIP3    H125869   6.562   0.961   4.377
 8635TIP3    H225870   6.613   1.089   4.440
 8636TIP3   OH225871   6.905   4.532   3.472
 8636TIP3    H125872   6.945   4.519   3.386
 8636TIP3    H225873   6.876   4.445   3.499
 8637TIP3   OH225874   0.150   4.932   0.568
 8637TIP3    H125875   0.178   5.018   0.601
 8637TIP3    H225876   0.142   4.944   0.473
 8638TIP3   OH225877   6.556   0.618   3.111
 8638TIP3    H125878   6.587   0.693   3.061
 8638TIP3    H225879   6.479   0.650   3.157
 8639TIP3   OH225880   4.246   0.930   2.117
 8639TIP3    H125881   4.157   0.937   2.150
 8639TIP3    H225882   4.282   0.852   2.161
 8640TIP3   OH225883   5.502   4.149   1.132
 8640TIP3    H125884   5.433   4.163   1.197
 8640TIP3    H225885   5.577   4.198   1.166
 8641TIP3   OH225886   3.532   3.811   2.232
 8641TIP3    H125887   3.514   3.719   2.253
 8641TIP3    H225888   3.496   3.823   2.144
 8642TIP3   OH225889   0.263   3.107   2.956
 8642TIP3    H125890   0.356   3.084   2.952
 8642TIP3    H225891   0.244   3.113   3.050
 8643TIP3   OH225892   2.729   4.958   3.508
 8643TIP3    H125893   2.727   4.862   3.511
 8643TIP3    H225894   2.811   4.979   3.465
 8644TIP3   OH225895   5.708   1.575  -0.038
 8644TIP3    H125896   5.796   1.542  -0.057
 8644TIP3    H225897   5.722   1.665  -0.009
 8645TIP3   OH225898   0.157   3.060   3.499
 8645TIP3    H125899   0.086   3.092   3.556
 8645TIP3    H225900   0.229   3.040   3.559
 8646TIP3   OH225901   6.028   2.546   5.495
 8646TIP3    H125902   5.970   2.481   5.457
 8646TIP3    H225903   6.028   2.619   5.433
 8647TIP3   OH225904   5.053   2.616   3.230
 8647TIP3    H125905   5.033   2.631   3.323
 8647TIP3    H225906   5.149   2.623   3.225
 8648TIP3   OH225907   1.745   4.726   2.598
 8648TIP3    H125908   1.776   4.753   2.512
 8648TIP3    H225909   1.817   4.676   2.635
 8649TIP3   OH225910   2.570   1.932   4.780
 8649TIP3    H125911   2.529   1.846   4.786
 8649TIP3    H225912   2.598   1.939   4.689
 8650TIP3   OH225913   5.082   5.350   1.103
 8650TIP3    H125914   4.994   5.368   1.068
 8650TIP3    H225915   5.065   5.309   1.188
 8651TIP3   OH225916   3.798   6.229   5.630
 8651TIP3    H125917   3.712   6.189   5.617
 8651TIP3    H225918   3.858   6.174   5.579
 8652TIP3   OH225919   7.026   2.131   4.548
 8652TIP3    H125920   7.047   2.139   4.455
 8652TIP3    H225921   7.090   2.187   4.592
 8653TIP3   OH225922   3.680   0.181   4.360
 8653TIP3    H125923   3.637   0.155   4.278
 8653TIP3    H225924   3.679   0.102   4.414
 8654TIP3   OH225925   2.434   0.499   4.444
 8654TIP3    H125926   2.372   0.572   4.441
 8654TIP3    H225927   2.382   0.426   4.478
 8655TIP3   OH225928   4.807   5.154   3.329
 8655TIP3    H125929   4.899   5.155   3.304
 8655TIP3    H225930   4.807   5.137   3.423
 8656TIP3   OH225931   0.250   0.598   2.905
 8656TIP3    H125932   0.278   0.628   2.819
 8656TIP3    H225933   0.320   0.539   2.933
 8657TIP3   OH225934   4.725   3.048   3.200
 8657TIP3    H125935   4.649   3.050   3.141
 8657TIP3    H225936   4.688   3.062   3.287
 8658TIP3   OH225937   3.632   0.376   3.279
 8658TIP3    H125938   3.681   0.370   3.198
 8658TIP3    H225939   3.549   0.331   3.260
 8659TIP3   OH225940   2.079   4.580   1.551
 8659TIP3    H125941   2.055   4.645   1.616
 8659TIP3    H225942   2.002   4.522   1.547
 8660TIP3   OH225943   0.748   6.202   4.461
 8660TIP3    H125944   0.664   6.159   4.478
 8660TIP3    H225945   0.725   6.291   4.436
 8661TIP3   OH225946   3.149   2.619   5.628
 8661TIP3    H125947   3.121   2.639   5.539
 8661TIP3    H225948   3.245   2.610   5.621
 8662TIP3   OH225949   5.846   4.454   0.425
 8662TIP3    H125950   5.865   4.400   0.501
 8662TIP3    H225951   5.861   4.544   0.456
 8663TIP3   OH225952   1.557   1.675   4.706
 8663TIP3    H125953   1.610   1.723   4.768
 8663TIP3    H225954   1.615   1.605   4.674
 8664TIP3   OH225955   3.706   3.231   4.275
 8664TIP3    H125956   3.679   3.284   4.199
 8664TIP3    H225957   3.770   3.285   4.320
 8665TIP3   OH225958   7.071   1.786   5.001
 8665TIP3    H125959   6.988   1.835   4.997
 8665TIP3    H225960   7.062   1.732   5.080
 8666TIP3   OH225961   6.525   2.563   5.386
 8666TIP3    H125962   6.588   2.610   5.331
 8666TIP3    H225963   6.445   2.561   5.335
 8667TIP3   OH225964   7.038   0.383   1.029
 8667TIP3    H125965   7.029   0.290   1.047
 8667TIP3    H225966   7.112   0.389   0.968
 8668TIP3   OH225967   5.995   1.110   2.506
 8668TIP3    H125968   5.900   1.114   2.493
 8668TIP3    H225969   6.025   1.043   2.445
 8669TIP3   OH225970   5.192   6.167   3.171
 8669TIP3    H125971   5.125   6.120   3.122
 8669TIP3    H225972   5.272   6.155   3.119
 8670TIP3   OH225973   5.883   6.251   1.166
 8670TIP3    H125974   5.812   6.300   1.208
 8670TIP3    H225975   5.947   6.236   1.235
 8671TIP3   OH225976   5.147   1.312   3.830
 8671TIP3    H125977   5.198   1.266   3.764
 8671TIP3    H225978   5.119   1.393   3.786
 8672TIP3   OH225979   4.062   6.404   2.274
 8672TIP3    H125980   4.112   6.415   2.193
 8672TIP3    H225981   3.971   6.422   2.248
 8673TIP3   OH225982   2.808   0.548   4.788
 8673TIP3    H125983   2.717   0.524   4.804
 8673TIP3    H225984   2.807   0.589   4.701
 8674TIP3   OH225985   1.384   4.873   0.570
 8674TIP3    H125986   1.300   4.884   0.525
 8674TIP3    H225987   1.368   4.807   0.636
 8675TIP3   OH225988   0.380   5.751   3.145
 8675TIP3    H125989   0.377   5.677   3.205
 8675TIP3    H225990   0.444   5.727   3.079
 8676TIP3   OH225991   2.211   0.116   0.845
 8676TIP3    H125992   2.288   0.117   0.902
 8676TIP3    H225993   2.144   0.070   0.896
 8677TIP3   OH225994   1.848   0.599   4.947
 8677TIP3    H125995   1.776   0.641   4.901
 8677TIP3    H225996   1.843   0.507   4.923
 8678TIP3   OH225997   1.100   4.218   3.082
 8678TIP3    H125998   1.108   4.255   3.170
 8678TIP3    H225999   1.088   4.124   3.096
 8679TIP3   OH226000   4.587   4.906   3.078
 8679TIP3    H126001   4.680   4.898   3.103
 8679TIP3    H226002   4.552   4.818   3.089
 8680TIP3   OH226003   6.572   0.714   0.759
 8680TIP3    H126004   6.485   0.701   0.722
 8680TIP3    H226005   6.557   0.773   0.833
 8681TIP3   OH226006   6.640   0.084   4.718
 8681TIP3    H126007   6.630  -0.005   4.682
 8681TIP3    H226008   6.670   0.136   4.643
 8682TIP3   OH226009   1.673   5.291   4.624
 8682TIP3    H126010   1.645   5.381   4.644
 8682TIP3    H226011   1.711   5.297   4.536
 8683TIP3   OH226012   3.552   3.985   4.545
 8683TIP3    H126013   3.570   4.014   4.456
 8683TIP3    H226014   3.457   3.993   4.554
 8684TIP3   OH226015   2.264   0.636   3.436
 8684TIP3    H126016   2.208   0.567   3.473
 8684TIP3    H226017   2.353   0.606   3.453
 8685TIP3   OH226018   3.586   6.277   2.803
 8685TIP3    H126019   3.642   6.315   2.871
 8685TIP3    H226020   3.622   6.190   2.789
 8686TIP3   OH226021   7.106   6.675   3.225
 8686TIP3    H126022   7.105   6.595   3.173
 8686TIP3    H226023   7.041   6.660   3.293
 8687TIP3   OH226024   6.693   0.734   2.241
 8687TIP3    H126025   6.725   0.821   2.216
 8687TIP3    H226026   6.655   0.746   2.328
 8688TIP3   OH226027   6.467   6.274   2.505
 8688TIP3    H126028   6.417   6.247   2.428
 8688TIP3    H226029   6.402   6.315   2.562
 8689TIP3   OH226030   5.731   4.727   2.903
 8689TIP3    H126031   5.794   4.666   2.864
 8689TIP3    H226032   5.646   4.700   2.868
 8690TIP3   OH226033   0.907   5.660   1.571
 8690TIP3    H126034   0.907   5.635   1.478
 8690TIP3    H226035   0.911   5.755   1.570
 8691TIP3   OH226036   0.458   2.833   0.347
 8691TIP3    H126037   0.407   2.912   0.364
 8691TIP3    H226038   0.498   2.811   0.431
 8692TIP3   OH226039   4.219   5.913   1.963
 8692TIP3    H126040   4.219   5.837   1.904
 8692TIP3    H226041   4.134   5.954   1.948
 8693TIP3   OH226042   5.797   6.080   5.312
 8693TIP3    H126043   5.805   6.121   5.398
 8693TIP3    H226044   5.879   6.100   5.268
 8694TIP3   OH226045   3.524   0.487   3.629
 8694TIP3    H126046   3.566   0.401   3.616
 8694TIP3    H226047   3.476   0.502   3.548
 8695TIP3   OH226048   3.665   6.739   4.019
 8695TIP3    H126049   3.654   6.692   4.102
 8695TIP3    H226050   3.702   6.673   3.960
 8696TIP3   OH226051   2.692   5.425   1.813
 8696TIP3    H126052   2.761   5.456   1.872
 8696TIP3    H226053   2.738   5.376   1.745
 8697TIP3   OH226054   1.111   0.096   3.136
 8697TIP3    H126055   1.051   0.166   3.164
 8697TIP3    H226056   1.136   0.052   3.216
 8698TIP3   OH226057   4.395   3.188   4.428
 8698TIP3    H126058   4.342   3.109   4.416
 8698TIP3    H226059   4.433   3.177   4.516
 8699TIP3   OH226060   4.325   2.225   1.001
 8699TIP3    H126061   4.415   2.212   0.970
 8699TIP3    H226062   4.292   2.137   1.018
 8700TIP3   OH226063   4.725   6.705   1.355
 8700TIP3    H126064   4.746   6.650   1.431
 8700TIP3    H226065   4.742   6.794   1.385
 8701TIP3   OH226066   1.944   5.835   2.083
 8701TIP3    H126067   1.982   5.785   2.156
 8701TIP3    H226068   2.016   5.890   2.052
 8702TIP3   OH226069   3.476   4.594   4.844
 8702TIP3    H126070   3.535   4.524   4.870
 8702TIP3    H226071   3.533   4.665   4.814
 8703TIP3   OH226072   4.979   6.596   1.994
 8703TIP3    H126073   4.996   6.582   1.901
 8703TIP3    H226074   5.059   6.639   2.026
 8704TIP3   OH226075   2.317   0.985   3.735
 8704TIP3    H126076   2.310   0.894   3.762
 8704TIP3    H226077   2.227   1.016   3.731
 8705TIP3   OH226078   6.533   1.151   5.857
 8705TIP3    H126079   6.588   1.166   5.780
 8705TIP3    H226080   6.485   1.071   5.836
 8706TIP3   OH226081   2.254   3.344   2.572
 8706TIP3    H126082   2.329   3.390   2.533
 8706TIP3    H226083   2.255   3.371   2.664
 8707TIP3   OH226084   6.466   5.048   0.805
 8707TIP3    H126085   6.475   5.105   0.729
 8707TIP3    H226086   6.436   4.964   0.770
 8708TIP3   OH226087   0.646   6.816   3.625
 8708TIP3    H126088   0.736   6.846   3.637
 8708TIP3    H226089   0.597   6.856   3.696
 8709TIP3   OH226090   0.588   1.287   5.148
 8709TIP3    H126091   0.522   1.356   5.138
 8709TIP3    H226092   0.671   1.334   5.159
 8710TIP3   OH226093   1.408   5.798   2.383
 8710TIP3    H126094   1.441   5.837   2.302
 8710TIP3    H226095   1.450   5.850   2.453
 8711TIP3   OH226096   6.172   6.549   1.438
 8711TIP3    H126097   6.084   6.573   1.465
 8711TIP3    H226098   6.215   6.633   1.419
 8712TIP3   OH226099   0.894   6.372   4.053
 8712TIP3    H126100   0.884   6.466   4.038
 8712TIP3    H226101   0.821   6.332   4.005
 8713TIP3   OH226102   5.765   3.107   1.875
 8713TIP3    H126103   5.813   3.040   1.925
 8713TIP3    H226104   5.759   3.181   1.935
 8714TIP3   OH226105   2.239   1.287   2.417
 8714TIP3    H126106   2.217   1.249   2.502
 8714TIP3    H226107   2.211   1.379   2.424
 8715TIP3   OH226108   1.355   5.695   5.006
 8715TIP3    H126109   1.436   5.644   5.011
 8715TIP3    H226110   1.380   5.775   4.961
 8716TIP3   OH226111   4.417   2.603   4.439
 8716TIP3    H126112   4.325   2.605   4.467
 8716TIP3    H226113   4.459   2.671   4.492
 8717TIP3   OH226114   4.859   5.489   0.278
 8717TIP3    H126115   4.887   5.405   0.316
 8717TIP3    H226116   4.767   5.476   0.256
 8718TIP3   OH226117   6.559   3.693   4.771
 8718TIP3    H126118   6.648   3.686   4.805
 8718TIP3    H226119   6.562   3.767   4.711
 8719TIP3   OH226120   0.045   1.232   1.352
 8719TIP3    H126121   0.076   1.167   1.289
 8719TIP3    H226122   0.111   1.229   1.423
 8720TIP3   OH226123   5.088   2.171   5.550
 8720TIP3    H126124   5.140   2.113   5.494
 8720TIP3    H226125   5.075   2.120   5.631
 8721TIP3   OH226126   1.082   5.758   5.030
 8721TIP3    H126127   1.177   5.748   5.039
 8721TIP3    H226128   1.065   5.741   4.938
 8722TIP3   OH226129   4.494   3.984   5.193
 8722TIP3    H126130   4.464   3.985   5.284
 8722TIP3    H226131   4.497   3.892   5.169
 8723TIP3   OH226132   6.527   5.657   1.732
 8723TIP3    H126133   6.517   5.667   1.637
 8723TIP3    H226134   6.443   5.684   1.768
 8724TIP3   OH226135   1.370   5.058   5.610
 8724TIP3    H126136   1.305   5.066   5.680
 8724TIP3    H226137   1.428   4.987   5.640
 8725TIP3   OH226138   1.067   3.434   3.501
 8725TIP3    H126139   1.156   3.398   3.505
 8725TIP3    H226140   1.026   3.387   3.429
 8726TIP3   OH226141   0.402   2.038   0.899
 8726TIP3    H126142   0.395   1.969   0.965
 8726TIP3    H226143   0.453   2.107   0.941
 8727TIP3   OH226144   4.027   6.731   3.870
 8727TIP3    H126145   4.090   6.801   3.860
 8727TIP3    H226146   4.050   6.690   3.953
 8728TIP3   OH226147   7.067   2.251   4.955
 8728TIP3    H126148   7.020   2.319   4.906
 8728TIP3    H226149   7.021   2.246   5.038
 8729TIP3   OH226150   0.359   1.695   2.443
 8729TIP3    H126151   0.374   1.789   2.452
 8729TIP3    H226152   0.265   1.687   2.427
 8730TIP3   OH226153   5.604   6.321   3.785
 8730TIP3    H126154   5.682   6.329   3.840
 8730TIP3    H226155   5.627   6.367   3.704
 8731TIP3   OH226156   0.123   3.496   5.466
 8731TIP3    H126157   0.032   3.516   5.487
 8731TIP3    H226158   0.174   3.554   5.523
 8732TIP3   OH226159   0.542   6.500   3.926
 8732TIP3    H126160   0.481   6.427   3.927
 8732TIP3    H226161   0.623   6.464   3.889
 8733TIP3   OH226162   2.063   1.335   4.782
 8733TIP3    H126163   2.090   1.245   4.800
 8733TIP3    H226164   1.973   1.340   4.816
 8734TIP3   OH226165   0.250   2.384   4.547
 8734TIP3    H126166   0.241   2.349   4.635
 8734TIP3    H226167   0.160   2.401   4.518
 8735TIP3   OH226168   0.501   2.488   0.024
 8735TIP3    H126169   0.560   2.483   0.100
 8735TIP3    H226170   0.548   2.544  -0.038
 8736TIP3   OH226171   3.565   2.922   2.586
 8736TIP3    H126172   3.536   3.001   2.631
 8736TIP3    H226173   3.617   2.954   2.512
 8737TIP3   OH226174   5.302   0.848   2.736
 8737TIP3    H126175   5.261   0.878   2.655
 8737TIP3    H226176   5.388   0.889   2.736
 8738TIP3   OH226177   5.378   2.667   4.948
 8738TIP3    H126178   5.330   2.737   4.991
 8738TIP3    H226179   5.319   2.592   4.949
 8739TIP3   OH226180   2.423   1.839   5.610
 8739TIP3    H126181   2.386   1.856   5.697
 8739TIP3    H226182   2.466   1.754   5.618
 8740TIP3   OH226183   2.831   1.333   3.476
 8740TIP3    H126184   2.774   1.392   3.525
 8740TIP3    H226185   2.920   1.363   3.497
 8741TIP3   OH226186   2.888   0.173   1.707
 8741TIP3    H126187   2.912   0.081   1.720
 8741TIP3    H226188   2.859   0.203   1.793
 8742TIP3   OH226189   5.515   3.823   4.918
 8742TIP3    H126190   5.544   3.888   4.983
 8742TIP3    H226191   5.508   3.873   4.836
 8743TIP3   OH226192   3.283   1.724   4.260
 8743TIP3    H126193   3.200   1.697   4.299
 8743TIP3    H226194   3.263   1.742   4.169
 8744TIP3   OH226195   1.615   6.232   4.597
 8744TIP3    H126196   1.670   6.168   4.551
 8744TIP3    H226197   1.532   6.187   4.610
 8745TIP3   OH226198   4.107   1.314   2.628
 8745TIP3    H126199   4.202   1.320   2.635
 8745TIP3    H226200   4.088   1.333   2.536
 8746TIP3   OH226201   1.572   3.544   0.718
 8746TIP3    H126202   1.591   3.453   0.742
 8746TIP3    H226203   1.482   3.558   0.749
 8747TIP3   OH226204   3.547   6.435   3.623
 8747TIP3    H126205   3.588   6.491   3.558
 8747TIP3    H226206   3.467   6.404   3.581
 8748TIP3   OH226207   3.498   1.189   5.183
 8748TIP3    H126208   3.461   1.130   5.249
 8748TIP3    H226209   3.590   1.164   5.178
 8749TIP3   OH226210   5.539   5.605   2.874
 8749TIP3    H126211   5.443   5.602   2.867
 8749TIP3    H226212   5.563   5.515   2.897
 8750TIP3   OH226213   4.870   3.411   2.160
 8750TIP3    H126214   4.941   3.474   2.163
 8750TIP3    H226215   4.878   3.369   2.075
 8751TIP3   OH226216   2.625   6.369   4.809
 8751TIP3    H126217   2.665   6.418   4.736
 8751TIP3    H226218   2.648   6.419   4.887
 8752TIP3   OH226219   0.210   6.054   0.998
 8752TIP3    H126220   0.274   6.026   1.063
 8752TIP3    H226221   0.126   6.021   1.031
 8753TIP3   OH226222   7.165   0.489   2.263
 8753TIP3    H126223   7.150   0.464   2.171
 8753TIP3    H226224   7.094   0.549   2.283
 8754TIP3   OH226225   3.786   5.421   4.944
 8754TIP3    H126226   3.853   5.476   4.903
 8754TIP3    H226227   3.773   5.349   4.882
 8755TIP3   OH226228   0.459   6.790   3.408
 8755TIP3    H126229   0.382   6.811   3.460
 8755TIP3    H226230   0.522   6.754   3.471
 8756TIP3   OH226231   5.572   0.904   1.493
 8756TIP3    H126232   5.603   0.890   1.404
 8756TIP3    H226233   5.538   0.818   1.520
 8757TIP3   OH226234   4.430   4.233   0.629
 8757TIP3    H126235   4.353   4.212   0.575
 8757TIP3    H226236   4.498   4.173   0.599
 8758TIP3   OH226237   4.302   5.521   3.051
 8758TIP3    H126238   4.220   5.529   3.100
 8758TIP3    H226239   4.297   5.590   2.985
 8759TIP3   OH226240   5.409   6.592   3.663
 8759TIP3    H126241   5.372   6.674   3.695
 8759TIP3    H226242   5.352   6.566   3.591
 8760TIP3   OH226243   4.424   5.903   4.530
 8760TIP3    H126244   4.386   5.853   4.457
 8760TIP3    H226245   4.354   5.907   4.595
 8761TIP3   OH226246   0.535   2.487   2.460
 8761TIP3    H126247   0.503   2.524   2.542
 8761TIP3    H226248   0.560   2.563   2.407
 8762TIP3   OH226249   4.035   5.151   2.965
 8762TIP3    H126250   4.063   5.241   2.948
 8762TIP3    H226251   4.011   5.117   2.879
 8763TIP3   OH226252   4.896   2.397   4.885
 8763TIP3    H126253   4.897   2.444   4.802
 8763TIP3    H226254   4.811   2.419   4.924
 8764TIP3   OH226255   0.196   5.031   0.300
 8764TIP3    H126256   0.225   5.122   0.296
 8764TIP3    H226257   0.258   4.984   0.245
 8765TIP3   OH226258   0.939   4.321   1.714
 8765TIP3    H126259   0.982   4.261   1.775
 8765TIP3    H226260   0.949   4.280   1.628
 8766TIP3   OH226261   4.197   1.642   1.377
 8766TIP3    H126262   4.157   1.556   1.391
 8766TIP3    H226263   4.171   1.666   1.288
 8767TIP3   OH226264   0.689   0.644   2.133
 8767TIP3    H126265   0.749   0.708   2.171
 8767TIP3    H226266   0.716   0.636   2.042
 8768TIP3   OH226267   0.073   1.301   2.734
 8768TIP3    H126268   0.082   1.210   2.705
 8768TIP3    H226269  -0.017   1.325   2.711
 8769TIP3   OH226270   6.361   3.357   1.099
 8769TIP3    H126271   6.286   3.313   1.139
 8769TIP3    H226272   6.338   3.361   1.006
 8770TIP3   OH226273   2.021   1.348   2.977
 8770TIP3    H126274   2.041   1.257   3.001
 8770TIP3    H226275   1.933   1.345   2.941
 8771TIP3   OH226276   1.112   3.062   1.713
 8771TIP3    H126277   1.088   3.073   1.805
 8771TIP3    H226278   1.200   3.024   1.715
 8772TIP3   OH226279   6.676   5.640   5.245
 8772TIP3    H126280   6.584   5.616   5.242
 8772TIP3    H226281   6.706   5.610   5.331
 8773TIP3   OH226282   2.334   0.332   5.235
 8773TIP3    H126283   2.239   0.335   5.246
 8773TIP3    H226284   2.359   0.422   5.214
 8774TIP3   OH226285   4.258   2.621   1.301
 8774TIP3    H126286   4.273   2.528   1.284
 8774TIP3    H226287   4.184   2.622   1.362
 8775TIP3   OH226288   1.655   1.296   3.122
 8775TIP3    H126289   1.723   1.351   3.085
 8775TIP3    H226290   1.589   1.357   3.154
 8776TIP3   OH226291   4.024   0.421   4.004
 8776TIP3    H126292   4.084   0.423   4.079
 8776TIP3    H226293   3.990   0.332   4.002
 8777TIP3   OH226294   3.294   5.265   1.017
 8777TIP3    H126295   3.367   5.222   0.974
 8777TIP3    H226296   3.218   5.209   0.998
 8778TIP3   OH226297   6.768   1.793   3.591
 8778TIP3    H126298   6.701   1.850   3.555
 8778TIP3    H226299   6.754   1.709   3.548
 8779TIP3   OH226300   5.941   6.311   3.099
 8779TIP3    H126301   5.988   6.358   3.168
 8779TIP3    H226302   5.947   6.369   3.023
 8780TIP3   OH226303   5.912   4.892   4.999
 8780TIP3    H126304   5.894   4.986   4.994
 8780TIP3    H226305   5.848   4.858   5.061
 8781TIP3   OH226306   1.047   2.364   2.187
 8781TIP3    H126307   1.044   2.313   2.268
 8781TIP3    H226308   0.983   2.434   2.201
 8782TIP3   OH226309   3.254   6.659   4.143
 8782TIP3    H126310   3.315   6.730   4.125
 8782TIP3    H226311   3.172   6.685   4.100
 8783TIP3   OH226312   3.625   0.353   1.237
 8783TIP3    H126313   3.553   0.389   1.289
 8783TIP3    H226314   3.590   0.349   1.148
 8784TIP3   OH226315   1.366   2.158   1.549
 8784TIP3    H126316   1.390   2.071   1.518
 8784TIP3    H226317   1.448   2.207   1.550
 8785TIP3   OH226318   2.443   5.520   3.633
 8785TIP3    H126319   2.367   5.544   3.579
 8785TIP3    H226320   2.454   5.594   3.693
 8786TIP3   OH226321   2.497   1.094   4.300
 8786TIP3    H126322   2.583   1.117   4.335
 8786TIP3    H226323   2.441   1.167   4.327
 8787TIP3   OH226324   0.570   1.943   1.536
 8787TIP3    H126325   0.543   1.939   1.628
 8787TIP3    H226326   0.488   1.940   1.487
 8788TIP3   OH226327   1.924   5.593   0.570
 8788TIP3    H126328   2.007   5.546   0.565
 8788TIP3    H226329   1.925   5.634   0.657
 8789TIP3   OH226330   5.189   2.383   3.601
 8789TIP3    H126331   5.137   2.438   3.660
 8789TIP3    H226332   5.279   2.413   3.614
 8790TIP3   OH226333   5.182   5.177   1.312
 8790TIP3    H126334   5.140   5.106   1.263
 8790TIP3    H226335   5.261   5.137   1.350
 8791TIP3   OH226336   1.883   2.457   4.402
 8791TIP3    H126337   1.964   2.463   4.454
 8791TIP3    H226338   1.904   2.500   4.319
 8792TIP3   OH226339   4.725   5.540   2.376
 8792TIP3    H126340   4.678   5.457   2.384
 8792TIP3    H226341   4.673   5.602   2.427
 8793TIP3   OH226342   6.321   5.176   3.583
 8793TIP3    H126343   6.389   5.184   3.516
 8793TIP3    H226344   6.351   5.104   3.638
 8794TIP3   OH226345   6.173   4.546   4.830
 8794TIP3    H126346   6.207   4.522   4.744
 8794TIP3    H226347   6.154   4.640   4.823
 8795TIP3   OH226348   3.956   3.037   0.860
 8795TIP3    H126349   3.899   3.029   0.937
 8795TIP3    H226350   4.039   3.070   0.896
 8796TIP3   OH226351   3.180   3.716   4.834
 8796TIP3    H126352   3.263   3.758   4.810
 8796TIP3    H226353   3.125   3.725   4.757
 8797TIP3   OH226354   0.727   4.682   0.074
 8797TIP3    H126355   0.790   4.653   0.140
 8797TIP3    H226356   0.741   4.776   0.067
 8798TIP3   OH226357   1.100   3.007   1.323
 8798TIP3    H126358   1.120   3.080   1.383
 8798TIP3    H226359   1.182   2.993   1.275
 8799TIP3   OH226360   4.619   3.577   1.730
 8799TIP3    H126361   4.552   3.551   1.792
 8799TIP3    H226362   4.613   3.512   1.659
 8800TIP3   OH226363   1.456   3.457   4.029
 8800TIP3    H126364   1.490   3.409   4.104
 8800TIP3    H226365   1.376   3.499   4.062
 8801TIP3   OH226366   0.952   5.690   1.293
 8801TIP3    H126367   1.042   5.658   1.285
 8801TIP3    H226368   0.961   5.783   1.314
 8802TIP3   OH226369   0.126   3.975   2.950
 8802TIP3    H126370   0.210   3.928   2.955
 8802TIP3    H226371   0.137   4.037   2.879
 8803TIP3   OH226372   1.764   3.321   4.835
 8803TIP3    H126373   1.792   3.366   4.755
 8803TIP3    H226374   1.674   3.295   4.818
 8804TIP3   OH226375   3.371   3.437   5.747
 8804TIP3    H126376   3.305   3.369   5.759
 8804TIP3    H226377   3.385   3.441   5.652
 8805TIP3   OH226378   4.992   2.310   2.741
 8805TIP3    H126379   4.954   2.304   2.829
 8805TIP3    H226380   4.933   2.368   2.693
 8806TIP3   OH226381   4.836   4.204   0.476
 8806TIP3    H126382   4.899   4.197   0.548
 8806TIP3    H226383   4.758   4.159   0.507
 8807TIP3   OH226384   2.508   5.784   4.774
 8807TIP3    H126385   2.469   5.835   4.844
 8807TIP3    H226386   2.575   5.841   4.737
 8808TIP3   OH226387   1.679   0.410   4.416
 8808TIP3    H126388   1.592   0.449   4.425
 8808TIP3    H226389   1.662   0.318   4.400
 8809TIP3   OH226390   3.486   5.498   3.108
 8809TIP3    H126391   3.515   5.586   3.084
 8809TIP3    H226392   3.564   5.444   3.099
 8810TIP3   OH226393   1.946   1.326   2.143
 8810TIP3    H126394   1.930   1.358   2.232
 8810TIP3    H226395   1.936   1.231   2.150
 8811TIP3   OH226396   2.092   0.637   1.162
 8811TIP3    H126397   2.069   0.556   1.209
 8811TIP3    H226398   2.126   0.607   1.078
 8812TIP3   OH226399   5.593   0.096   0.582
 8812TIP3    H126400   5.647   0.115   0.505
 8812TIP3    H226401   5.558   0.008   0.565
 8813TIP3   OH226402   6.932   3.214   1.859
 8813TIP3    H126403   6.960   3.305   1.852
 8813TIP3    H226404   6.838   3.219   1.875
 8814TIP3   OH226405   7.010   1.332   2.693
 8814TIP3    H126406   7.036   1.423   2.707
 8814TIP3    H226407   6.946   1.336   2.622
 8815TIP3   OH226408   0.324   3.158   4.760
 8815TIP3    H126409   0.261   3.230   4.756
 8815TIP3    H226410   0.362   3.164   4.848
 8816TIP3   OH226411   5.541   4.234   2.626
 8816TIP3    H126412   5.633   4.210   2.640
 8816TIP3    H226413   5.497   4.152   2.606
 8817TIP3   OH226414   1.271   5.259   3.676
 8817TIP3    H126415   1.284   5.341   3.723
 8817TIP3    H226416   1.178   5.240   3.685
 8818TIP3   OH226417   3.519   5.176   5.761
 8818TIP3    H126418   3.505   5.087   5.727
 8818TIP3    H226419   3.493   5.233   5.689
 8819TIP3   OH226420   1.306   3.372   2.996
 8819TIP3    H126421   1.328   3.386   3.089
 8819TIP3    H226422   1.350   3.291   2.973
 8820TIP3   OH226423   7.042   0.439   3.480
 8820TIP3    H126424   7.006   0.427   3.568
 8820TIP3    H226425   6.978   0.495   3.436
 8821TIP3   OH226426   2.933   6.564   4.363
 8821TIP3    H126427   2.971   6.650   4.383
 8821TIP3    H226428   2.964   6.507   4.434
 8822TIP3   OH226429   6.977   5.181   5.817
 8822TIP3    H126430   6.944   5.110   5.871
 8822TIP3    H226431   7.063   5.201   5.854
 8823TIP3   OH226432   4.803   0.415   4.358
 8823TIP3    H126433   4.840   0.349   4.300
 8823TIP3    H226434   4.747   0.469   4.301
 8824TIP3   OH226435   2.583   5.586   1.290
 8824TIP3    H126436   2.543   5.673   1.294
 8824TIP3    H226437   2.645   5.584   1.363
 8825TIP3   OH226438   5.620   5.251   5.507
 8825TIP3    H126439   5.668   5.328   5.474
 8825TIP3    H226440   5.673   5.220   5.580
 8826TIP3   OH226441   5.765   1.958   5.301
 8826TIP3    H126442   5.760   1.914   5.386
 8826TIP3    H226443   5.676   1.952   5.266
 8827TIP3   OH226444   3.547   2.834   3.330
 8827TIP3    H126445   3.505   2.836   3.416
 8827TIP3    H226446   3.474   2.832   3.268
 8828TIP3   OH226447   4.673   6.729   2.517
 8828TIP3    H126448   4.755   6.683   2.502
 8828TIP3    H226449   4.687   6.817   2.484
 8829TIP3   OH226450   2.215   6.664   0.563
 8829TIP3    H126451   2.185   6.636   0.476
 8829TIP3    H226452   2.301   6.704   0.546
 8830TIP3   OH226453   3.530   2.987   0.638
 8830TIP3    H126454   3.530   2.997   0.543
 8830TIP3    H226455   3.447   2.942   0.658
 8831TIP3   OH226456   0.734   0.092   4.286
 8831TIP3    H126457   0.739   0.003   4.319
 8831TIP3    H226458   0.819   0.131   4.307
 8832TIP3   OH226459   7.137   6.377   5.099
 8832TIP3    H126460   7.166   6.360   5.009
 8832TIP3    H226461   7.041   6.373   5.095
 8833TIP3   OH226462   6.448   4.877   2.372
 8833TIP3    H126463   6.530   4.888   2.419
 8833TIP3    H226464   6.416   4.967   2.358
 8834TIP3   OH226465   3.336   1.297   3.798
 8834TIP3    H126466   3.352   1.204   3.817
 8834TIP3    H226467   3.366   1.308   3.708
 8835TIP3   OH226468   6.179   2.288   5.916
 8835TIP3    H126469   6.153   2.378   5.895
 8835TIP3    H226470   6.273   2.293   5.933
 8836TIP3   OH226471   4.727   6.331   3.264
 8836TIP3    H126472   4.673   6.391   3.212
 8836TIP3    H226473   4.666   6.292   3.327
 8837TIP3   OH226474   1.082   5.439   0.422
 8837TIP3    H126475   1.110   5.443   0.330
 8837TIP3    H226476   1.117   5.518   0.462
 8838TIP3   OH226477   3.757   1.736   4.037
 8838TIP3    H126478   3.754   1.825   4.073
 8838TIP3    H226479   3.721   1.744   3.949
 8839TIP3   OH226480   7.183   6.068   3.087
 8839TIP3    H126481   7.176   6.163   3.090
 8839TIP3    H226482   7.130   6.043   3.011
 8840TIP3   OH226483   4.897   6.261   0.473
 8840TIP3    H126484   4.952   6.183   0.466
 8840TIP3    H226485   4.944   6.317   0.535
 8841TIP3   OH226486   0.523   5.807   3.670
 8841TIP3    H126487   0.497   5.756   3.593
 8841TIP3    H226488   0.598   5.760   3.706
 8842TIP3   OH226489   0.133   1.033   3.464
 8842TIP3    H126490   0.195   1.104   3.480
 8842TIP3    H226491   0.181   0.969   3.411
 8843TIP3   OH226492   2.213   4.203   1.690
 8843TIP3    H126493   2.153   4.173   1.758
 8843TIP3    H226494   2.171   4.178   1.608
 8844TIP3   OH226495   1.107   3.691   5.443
 8844TIP3    H126496   1.105   3.719   5.351
 8844TIP3    H226497   1.158   3.610   5.442
 8845TIP3   OH226498   0.520   0.326   1.030
 8845TIP3    H126499   0.474   0.337   1.114
 8845TIP3    H226500   0.519   0.413   0.990
 8846TIP3   OH226501   7.126   1.356   5.161
 8846TIP3    H126502   7.054   1.411   5.130
 8846TIP3    H226503   7.082   1.284   5.208
 8847TIP3   OH226504   4.998   4.620   1.825
 8847TIP3    H126505   4.963   4.703   1.793
 8847TIP3    H226506   4.941   4.553   1.788
 8848TIP3   OH226507   2.415   4.666   1.254
 8848TIP3    H126508   2.468   4.744   1.238
 8848TIP3    H226509   2.350   4.694   1.318
 8849TIP3   OH226510   1.829   5.630   2.684
 8849TIP3    H126511   1.883   5.703   2.714
 8849TIP3    H226512   1.818   5.644   2.590
 8850TIP3   OH226513   6.555   1.926   5.799
 8850TIP3    H126514   6.515   1.849   5.758
 8850TIP3    H226515   6.486   1.963   5.853
 8851TIP3   OH226516   2.463   3.012   3.484
 8851TIP3    H126517   2.554   3.007   3.516
 8851TIP3    H226518   2.471   3.048   3.396
 8852TIP3   OH226519   3.395   3.871   3.613
 8852TIP3    H126520   3.387   3.958   3.575
 8852TIP3    H226521   3.341   3.873   3.692
 8853TIP3   OH226522   1.214   4.409   2.042
 8853TIP3    H126523   1.197   4.480   1.980
 8853TIP3    H226524   1.172   4.332   2.002
 8854TIP3   OH226525   6.838   3.348   2.167
 8854TIP3    H126526   6.803   3.278   2.113
 8854TIP3    H226527   6.809   3.327   2.256
 8855TIP3   OH226528   0.876   3.394   0.703
 8855TIP3    H126529   0.839   3.482   0.707
 8855TIP3    H226530   0.802   3.338   0.680
 8856TIP3   OH226531   6.651   6.461   4.733
 8856TIP3    H126532   6.738   6.424   4.742
 8856TIP3    H226533   6.605   6.401   4.674
 8857TIP3   OH226534   0.190   6.646   4.661
 8857TIP3    H126535   0.228   6.560   4.680
 8857TIP3    H226536   0.175   6.684   4.747
 8858TIP3   OH226537   0.341   0.915   0.334
 8858TIP3    H126538   0.291   0.973   0.391
 8858TIP3    H226539   0.425   0.959   0.323
 8859TIP3   OH226540   6.972   4.846   3.326
 8859TIP3    H126541   7.036   4.776   3.337
 8859TIP3    H226542   6.991   4.883   3.240
 8860TIP3   OH226543   4.337   4.896   4.256
 8860TIP3    H126544   4.336   4.990   4.238
 8860TIP3    H226545   4.359   4.855   4.173
 8861TIP3   OH226546   3.393   3.777   1.274
 8861TIP3    H126547   3.302   3.796   1.252
 8861TIP3    H226548   3.424   3.722   1.203
 8862TIP3   OH226549   1.994   4.715   3.507
 8862TIP3    H126550   2.042   4.786   3.464
 8862TIP3    H226551   1.902   4.730   3.482
 8863TIP3   OH226552   4.912   2.706   2.922
 8863TIP3    H126553   4.922   2.692   2.828
 8863TIP3    H226554   4.992   2.670   2.961
 8864TIP3   OH226555   4.451   4.172   2.477
 8864TIP3    H126556   4.472   4.234   2.547
 8864TIP3    H226557   4.482   4.215   2.398
 8865TIP3   OH226558   0.342   4.409   1.096
 8865TIP3    H126559   0.371   4.496   1.068
 8865TIP3    H226560   0.415   4.351   1.072
 8866TIP3   OH226561   0.257   1.553   5.465
 8866TIP3    H126562   0.326   1.618   5.453
 8866TIP3    H226563   0.265   1.494   5.390
 8867TIP3   OH226564   3.349   4.334   0.810
 8867TIP3    H126565   3.285   4.391   0.770
 8867TIP3    H226566   3.430   4.385   0.812
 8868TIP3   OH226567   6.787   5.273   3.248
 8868TIP3    H126568   6.866   5.232   3.282
 8868TIP3    H226569   6.751   5.208   3.187
 8869TIP3   OH226570   6.743   3.326   2.446
 8869TIP3    H126571   6.806   3.314   2.517
 8869TIP3    H226572   6.682   3.253   2.455
 8870TIP3   OH226573   0.881   5.484   3.179
 8870TIP3    H126574   0.909   5.574   3.160
 8870TIP3    H226575   0.846   5.452   3.096
 8871TIP3   OH226576   7.085   0.460   1.962
 8871TIP3    H126577   7.019   0.523   1.935
 8871TIP3    H226578   7.159   0.475   1.903
 8872TIP3   OH226579   6.583   2.552   0.160
 8872TIP3    H126580   6.490   2.572   0.155
 8872TIP3    H226581   6.613   2.551   0.069
 8873TIP3   OH226582   4.055   6.510   3.181
 8873TIP3    H126583   4.028   6.548   3.097
 8873TIP3    H226584   3.982   6.453   3.206
 8874TIP3   OH226585   2.225   4.570   3.520
 8874TIP3    H126586   2.276   4.630   3.466
 8874TIP3    H226587   2.136   4.607   3.519
 8875TIP3   OH226588   5.356   5.361   0.038
 8875TIP3    H126589   5.349   5.267   0.022
 8875TIP3    H226590   5.290   5.379   0.106
 8876TIP3   OH226591   4.700   2.219   3.798
 8876TIP3    H126592   4.746   2.143   3.833
 8876TIP3    H226593   4.745   2.238   3.715
 8877TIP3   OH226594   4.118   3.073   3.427
 8877TIP3    H126595   4.028   3.039   3.434
 8877TIP3    H226596   4.115   3.158   3.471
 8878TIP3   OH226597   2.886   2.145   1.644
 8878TIP3    H126598   2.911   2.055   1.663
 8878TIP3    H226599   2.929   2.197   1.712
 8879TIP3   OH226600   0.589   2.784   2.554
 8879TIP3    H126601   0.509   2.795   2.607
 8879TIP3    H226602   0.563   2.809   2.466
 8880TIP3   OH226603   1.349   6.490   3.262
 8880TIP3    H126604   1.296   6.411   3.277
 8880TIP3    H226605   1.397   6.502   3.344
 8881TIP3   OH226606   1.468   1.150   5.052
 8881TIP3    H126607   1.492   1.128   5.142
 8881TIP3    H226608   1.438   1.067   5.014
 8882TIP3   OH226609   1.800   6.447   2.049
 8882TIP3    H126610   1.744   6.432   1.973
 8882TIP3    H226611   1.816   6.360   2.086
 8883TIP3   OH226612   1.779   3.775   0.717
 8883TIP3    H126613   1.849   3.759   0.653
 8883TIP3    H226614   1.738   3.689   0.729
 8884TIP3   OH226615   3.034   1.627   5.212
 8884TIP3    H126616   3.000   1.610   5.124
 8884TIP3    H226617   3.095   1.555   5.228
 8885TIP3   OH226618   1.802   5.258   3.056
 8885TIP3    H126619   1.823   5.229   3.145
 8885TIP3    H226620   1.869   5.325   3.037
 8886TIP3   OH226621   2.321   3.006   0.683
 8886TIP3    H126622   2.304   2.953   0.760
 8886TIP3    H226623   2.236   3.012   0.639
 8887TIP3   OH226624   3.560   6.521   2.041
 8887TIP3    H126625   3.488   6.515   1.978
 8887TIP3    H226626   3.536   6.594   2.098
 8888TIP3   OH226627   3.847   5.501   0.536
 8888TIP3    H126628   3.778   5.536   0.593
 8888TIP3    H226629   3.856   5.409   0.563
 8889TIP3   OH226630   5.577   2.529   0.376
 8889TIP3    H126631   5.641   2.459   0.382
 8889TIP3    H226632   5.552   2.531   0.283
 8890TIP3   OH226633   1.055   5.649   3.996
 8890TIP3    H126634   1.072   5.703   4.073
 8890TIP3    H226635   0.968   5.675   3.966
 8891TIP3   OH226636   5.218   0.821   0.349
 8891TIP3    H126637   5.266   0.855   0.424
 8891TIP3    H226638   5.266   0.742   0.323
 8892TIP3   OH226639   5.111   4.934   4.366
 8892TIP3    H126640   5.038   4.878   4.341
 8892TIP3    H226641   5.124   4.992   4.290
 8893TIP3   OH226642   6.047   1.892   1.010
 8893TIP3    H126643   6.081   1.953   0.944
 8893TIP3    H226644   6.123   1.839   1.034
 8894TIP3   OH226645   6.964   4.646   2.089
 8894TIP3    H126646   7.008   4.631   2.005
 8894TIP3    H226647   6.922   4.732   2.079
 8895TIP3   OH226648   6.752   0.711   5.769
 8895TIP3    H126649   6.818   0.642   5.755
 8895TIP3    H226650   6.799   0.779   5.817
 8896TIP3   OH226651   1.487   1.883   3.185
 8896TIP3    H126652   1.520   1.971   3.205
 8896TIP3    H226653   1.550   1.824   3.227
 8897TIP3   OH226654   1.496   3.399   1.232
 8897TIP3    H126655   1.453   3.426   1.313
 8897TIP3    H226656   1.426   3.360   1.180
 8898TIP3   OH226657   2.397   4.357   3.595
 8898TIP3    H126658   2.352   4.433   3.559
 8898TIP3    H226659   2.445   4.390   3.670
 8899TIP3   OH226660   4.040   0.822   5.421
 8899TIP3    H126661   3.997   0.855   5.343
 8899TIP3    H226662   4.034   0.727   5.414
 8900TIP3   OH226663   4.897   6.612   5.032
 8900TIP3    H126664   4.978   6.616   4.981
 8900TIP3    H226665   4.925   6.631   5.122
 8901TIP3   OH226666   6.617   6.495   3.675
 8901TIP3    H126667   6.581   6.508   3.588
 8901TIP3    H226668   6.547   6.520   3.735
 8902TIP3   OH226669   0.228   4.870   4.014
 8902TIP3    H126670   0.289   4.928   4.060
 8902TIP3    H226671   0.239   4.892   3.921
 8903TIP3   OH226672   3.353   2.882   0.380
 8903TIP3    H126673   3.410   2.959   0.373
 8903TIP3    H226674   3.264   2.917   0.373
 8904TIP3   OH226675   0.678   1.519   4.870
 8904TIP3    H126676   0.694   1.513   4.964
 8904TIP3    H226677   0.583   1.514   4.861
 8905TIP3   OH226678   4.418   6.482   3.063
 8905TIP3    H126679   4.343   6.443   3.107
 8905TIP3    H226680   4.388   6.498   2.973
 8906TIP3   OH226681   4.830   3.870   2.283
 8906TIP3    H126682   4.795   3.949   2.241
 8906TIP3    H226683   4.782   3.864   2.366
 8907TIP3   OH226684   0.432   0.616   0.466
 8907TIP3    H126685   0.501   0.681   0.458
 8907TIP3    H226686   0.367   0.656   0.524
 8908TIP3   OH226687   2.745   6.315   0.406
 8908TIP3    H126688   2.732   6.231   0.449
 8908TIP3    H226689   2.812   6.359   0.460
 8909TIP3   OH226690   1.284   1.560   4.266
 8909TIP3    H126691   1.341   1.482   4.273
 8909TIP3    H226692   1.306   1.612   4.343
 8910TIP3   OH226693   1.883   3.638   3.238
 8910TIP3    H126694   1.929   3.570   3.188
 8910TIP3    H226695   1.931   3.644   3.320
 8911TIP3   OH226696   5.191   3.237   2.719
 8911TIP3    H126697   5.196   3.255   2.625
 8911TIP3    H226698   5.154   3.317   2.756
 8912TIP3   OH226699   5.174   0.755   1.563
 8912TIP3    H126700   5.268   0.755   1.547
 8912TIP3    H226701   5.161   0.691   1.633
 8913TIP3   OH226702   6.114   2.397   2.681
 8913TIP3    H126703   6.140   2.489   2.686
 8913TIP3    H226704   6.124   2.373   2.589
 8914TIP3   OH226705   0.346   5.467   3.288
 8914TIP3    H126706   0.410   5.396   3.290
 8914TIP3    H226707   0.299   5.454   3.205
 8915TIP3   OH226708   1.548   1.964   1.877
 8915TIP3    H126709   1.570   1.956   1.784
 8915TIP3    H226710   1.521   1.876   1.902
 8916TIP3   OH226711   0.017   4.453   5.090
 8916TIP3    H126712  -0.002   4.516   5.160
 8916TIP3    H226713   0.089   4.492   5.041
 8917TIP3   OH226714   3.501   5.870   0.902
 8917TIP3    H126715   3.532   5.945   0.952
 8917TIP3    H226716   3.580   5.823   0.876
 8918TIP3   OH226717   0.812   1.793   3.867
 8918TIP3    H126718   0.787   1.884   3.883
 8918TIP3    H226719   0.884   1.798   3.804
 8919TIP3   OH226720   3.102   3.630   0.041
 8919TIP3    H126721   3.119   3.616  -0.052
 8919TIP3    H226722   3.007   3.620   0.050
 8920TIP3   OH226723   4.272   4.679   4.496
 8920TIP3    H126724   4.361   4.665   4.530
 8920TIP3    H226725   4.285   4.720   4.411
 8921TIP3   OH226726   1.024   3.711   5.878
 8921TIP3    H126727   1.055   3.645   5.940
 8921TIP3    H226728   0.930   3.719   5.896
 8922TIP3   OH226729   6.868   6.226   2.872
 8922TIP3    H126730   6.953   6.187   2.854
 8922TIP3    H226731   6.848   6.200   2.962
 8923TIP3   OH226732   7.201   2.257   1.908
 8923TIP3    H126733   7.110   2.267   1.935
 8923TIP3    H226734   7.200   2.183   1.847
 8924TIP3   OH226735   2.699   4.082   2.031
 8924TIP3    H126736   2.725   4.164   2.073
 8924TIP3    H226737   2.778   4.028   2.034
 8925TIP3   OH226738   3.981   1.640   4.185
 8925TIP3    H126739   4.037   1.715   4.163
 8925TIP3    H226740   3.900   1.657   4.137
 8926TIP3   OH226741   5.140   1.077   2.093
 8926TIP3    H126742   5.215   1.136   2.097
 8926TIP3    H226743   5.113   1.077   2.001
 8927TIP3   OH226744   6.077   2.799   4.600
 8927TIP3    H126745   6.032   2.884   4.601
 8927TIP3    H226746   6.008   2.736   4.623
 8928TIP3   OH226747   0.268   2.562   0.575
 8928TIP3    H126748   0.348   2.590   0.619
 8928TIP3    H226749   0.198   2.603   0.626
 8929TIP3   OH226750   5.484   3.734   2.202
 8929TIP3    H126751   5.406   3.761   2.249
 8929TIP3    H226752   5.506   3.809   2.146
 8930TIP3   OH226753   2.835   3.477   0.595
 8930TIP3    H126754   2.771   3.477   0.666
 8930TIP3    H226755   2.862   3.569   0.587
 8931TIP3   OH226756   1.339   6.418   2.893
 8931TIP3    H126757   1.277   6.347   2.913
 8931TIP3    H226758   1.315   6.488   2.953
 8932TIP3   OH226759   5.832   0.155   1.551
 8932TIP3    H126760   5.916   0.156   1.598
 8932TIP3    H226761   5.767   0.171   1.619
 8933TIP3   OH226762   6.889   2.539   5.221
 8933TIP3    H126763   6.830   2.588   5.278
 8933TIP3    H226764   6.832   2.499   5.155
 8934TIP3   OH226765   5.566   5.975   5.326
 8934TIP3    H126766   5.652   6.018   5.328
 8934TIP3    H226767   5.504   6.046   5.311
 8935TIP3   OH226768   4.046   1.858   5.122
 8935TIP3    H126769   3.953   1.843   5.140
 8935TIP3    H226770   4.067   1.937   5.172
 8936TIP3   OH226771   2.486   4.793   2.824
 8936TIP3    H126772   2.438   4.762   2.901
 8936TIP3    H226773   2.567   4.741   2.824
 8937TIP3   OH226774   6.565   4.514   3.508
 8937TIP3    H126775   6.651   4.552   3.490
 8937TIP3    H226776   6.538   4.476   3.425
 8938TIP3   OH226777   4.091   4.654   3.578
 8938TIP3    H126778   4.106   4.739   3.537
 8938TIP3    H226779   4.129   4.590   3.518
 8939TIP3   OH226780   6.279   5.291   0.220
 8939TIP3    H126781   6.261   5.219   0.281
 8939TIP3    H226782   6.373   5.305   0.225
 8940TIP3   OH226783   5.221   4.567   2.462
 8940TIP3    H126784   5.149   4.540   2.519
 8940TIP3    H226785   5.299   4.555   2.514
 8941TIP3   OH226786   3.417   3.105   0.063
 8941TIP3    H126787   3.466   3.062   0.133
 8941TIP3    H226788   3.439   3.197   0.071
 8942TIP3   OH226789   6.971   1.705   1.595
 8942TIP3    H126790   7.036   1.654   1.546
 8942TIP3    H226791   6.917   1.639   1.638
 8943TIP3   OH226792   1.784   3.925   0.930
 8943TIP3    H126793   1.788   3.999   0.869
 8943TIP3    H226794   1.775   3.848   0.874
 8944TIP3   OH226795   0.803   2.020   0.811
 8944TIP3    H126796   0.735   1.953   0.813
 8944TIP3    H226797   0.847   2.013   0.895
 8945TIP3   OH226798   6.941   2.267   2.941
 8945TIP3    H126799   6.899   2.186   2.967
 8945TIP3    H226800   6.978   2.303   3.021
 8946TIP3   OH226801   2.500   4.905   4.892
 8946TIP3    H126802   2.483   4.995   4.921
 8946TIP3    H226803   2.595   4.897   4.895
 8947TIP3   OH226804   2.864   0.877   2.506
 8947TIP3    H126805   2.833   0.794   2.543
 8947TIP3    H226806   2.817   0.944   2.556
 8948TIP3   OH226807   5.197   1.378   1.242
 8948TIP3    H126808   5.190   1.439   1.168
 8948TIP3    H226809   5.154   1.298   1.212
 8949TIP3   OH226810   0.265   4.320   5.722
 8949TIP3    H126811   0.292   4.281   5.804
 8949TIP3    H226812   0.271   4.249   5.658
 8950TIP3   OH226813   4.667   3.249   1.277
 8950TIP3    H126814   4.600   3.217   1.337
 8950TIP3    H226815   4.732   3.179   1.274
 8951TIP3   OH226816   1.833   6.750   0.890
 8951TIP3    H126817   1.738   6.743   0.888
 8951TIP3    H226818   1.864   6.660   0.883
 8952TIP3   OH226819   4.234   3.747   4.991
 8952TIP3    H126820   4.144   3.779   4.990
 8952TIP3    H226821   4.272   3.785   5.070
 8953TIP3   OH226822   2.079   4.076   3.615
 8953TIP3    H126823   2.053   4.153   3.563
 8953TIP3    H226824   2.102   4.112   3.701
 8954TIP3   OH226825   3.239   5.875   1.737
 8954TIP3    H126826   3.319   5.831   1.766
 8954TIP3    H226827   3.170   5.809   1.746
 8955TIP3   OH226828   4.353   5.459   0.115
 8955TIP3    H126829   4.260   5.476   0.133
 8955TIP3    H226830   4.369   5.500   0.030
 8956TIP3   OH226831   1.489   5.277   2.454
 8956TIP3    H126832   1.393   5.279   2.456
 8956TIP3    H226833   1.516   5.367   2.470
 8957TIP3   OH226834   6.377   6.691   5.812
 8957TIP3    H126835   6.435   6.616   5.799
 8957TIP3    H226836   6.289   6.655   5.803
 8958TIP3   OH226837   6.209   4.023   2.778
 8958TIP3    H126838   6.212   3.948   2.836
 8958TIP3    H226839   6.150   4.085   2.821
 8959TIP3   OH226840   2.458   2.739   2.190
 8959TIP3    H126841   2.515   2.675   2.148
 8959TIP3    H226842   2.509   2.819   2.194
 8960TIP3   OH226843   1.023   4.154   5.140
 8960TIP3    H126844   0.935   4.176   5.169
 8960TIP3    H226845   1.078   4.223   5.177
 8961TIP3   OH226846   0.918   1.779   2.686
 8961TIP3    H126847   0.902   1.872   2.667
 8961TIP3    H226848   0.838   1.749   2.727
 8962TIP3   OH226849   3.544   1.812   5.010
 8962TIP3    H126850   3.592   1.775   5.084
 8962TIP3    H226851   3.458   1.833   5.047
 8963TIP3   OH226852   1.492   2.341   0.660
 8963TIP3    H126853   1.523   2.256   0.627
 8963TIP3    H226854   1.539   2.406   0.608
 8964TIP3   OH226855   2.944   6.014   0.636
 8964TIP3    H126856   3.005   5.954   0.592
 8964TIP3    H226857   3.000   6.072   0.687
 8965TIP3   OH226858   0.115   4.664   0.278
 8965TIP3    H126859   0.112   4.731   0.209
 8965TIP3    H226860   0.148   4.586   0.233
 8966TIP3   OH226861   3.942   0.348   5.005
 8966TIP3    H126862   4.037   0.346   4.990
 8966TIP3    H226863   3.904   0.359   4.918
 8967TIP3   OH226864   3.237   4.027   5.050
 8967TIP3    H126865   3.155   4.019   5.099
 8967TIP3    H226866   3.268   3.937   5.040
 8968TIP3   OH226867   0.947   3.754   2.859
 8968TIP3    H126868   0.864   3.746   2.907
 8968TIP3    H226869   0.921   3.762   2.767
 8969TIP3   OH226870   0.400   5.983   1.226
 8969TIP3    H126871   0.407   5.906   1.168
 8969TIP3    H226872   0.467   6.043   1.194
 8970TIP3   OH226873   1.991   0.159   3.283
 8970TIP3    H126874   1.965   0.089   3.223
 8970TIP3    H226875   1.935   0.233   3.260
 8971TIP3   OH226876   2.552   6.745   3.956
 8971TIP3    H126877   2.501   6.808   3.905
 8971TIP3    H226878   2.508   6.661   3.943
 8972TIP3   OH226879   6.755   2.716   5.361
 8972TIP3    H126880   6.727   2.736   5.450
 8972TIP3    H226881   6.793   2.797   5.328
 8973TIP3   OH226882   5.211   0.194   3.199
 8973TIP3    H126883   5.292   0.207   3.249
 8973TIP3    H226884   5.147   0.251   3.240
 8974TIP3   OH226885   3.028   5.521   5.213
 8974TIP3    H126886   3.045   5.427   5.208
 8974TIP3    H226887   2.999   5.545   5.125
 8975TIP3   OH226888   1.695   5.174   2.803
 8975TIP3    H126889   1.739   5.204   2.883
 8975TIP3    H226890   1.742   5.217   2.732
 8976TIP3   OH226891   4.496   2.576   5.275
 8976TIP3    H126892   4.453   2.491   5.287
 8976TIP3    H226893   4.574   2.570   5.331
 8977TIP3   OH226894   3.522   1.959   3.020
 8977TIP3    H126895   3.604   1.910   3.014
 8977TIP3    H226896   3.542   2.032   3.078
 8978TIP3   OH226897   0.829   2.284   4.976
 8978TIP3    H126898   0.786   2.302   5.060
 8978TIP3    H226899   0.922   2.281   4.997
 8979TIP3   OH226900   4.014   3.758   0.135
 8979TIP3    H126901   3.997   3.675   0.090
 8979TIP3    H226902   4.109   3.764   0.141
 8980TIP3   OH226903   3.334   0.815   5.542
 8980TIP3    H126904   3.412   0.793   5.594
 8980TIP3    H226905   3.261   0.777   5.591
 8981TIP3   OH226906   3.256   5.769   0.842
 8981TIP3    H126907   3.257   5.675   0.860
 8981TIP3    H226908   3.347   5.797   0.856
 8982TIP3   OH226909   2.847   1.100   2.294
 8982TIP3    H126910   2.792   1.172   2.325
 8982TIP3    H226911   2.842   1.035   2.364
 8983TIP3   OH226912   1.149   5.785   4.248
 8983TIP3    H126913   1.060   5.807   4.273
 8983TIP3    H226914   1.180   5.860   4.198
 8984TIP3   OH226915   0.969   6.713   3.244
 8984TIP3    H126916   0.952   6.774   3.172
 8984TIP3    H226917   1.020   6.763   3.307
 8985TIP3   OH226918   0.828   6.418   0.604
 8985TIP3    H126919   0.853   6.507   0.630
 8985TIP3    H226920   0.742   6.405   0.645
 8986TIP3   OH226921   6.070   4.285   0.850
 8986TIP3    H126922   6.090   4.378   0.835
 8986TIP3    H226923   6.154   4.245   0.873
 8987TIP3   OH226924   1.474   2.106   3.786
 8987TIP3    H126925   1.427   2.073   3.710
 8987TIP3    H226926   1.410   2.161   3.832
 8988TIP3   OH226927   2.240   6.294   1.381
 8988TIP3    H126928   2.231   6.348   1.303
 8988TIP3    H226929   2.312   6.335   1.430
 8989TIP3   OH226930   0.229   3.124   0.984
 8989TIP3    H126931   0.232   3.217   1.007
 8989TIP3    H226932   0.258   3.079   1.063
 8990TIP3   OH226933   2.829   1.260   4.646
 8990TIP3    H126934   2.879   1.247   4.566
 8990TIP3    H226935   2.873   1.333   4.690
 8991TIP3   OH226936   3.682   2.036   5.131
 8991TIP3    H126937   3.638   2.017   5.048
 8991TIP3    H226938   3.754   2.094   5.106
 8992TIP3   OH226939   3.828   3.560   1.873
 8992TIP3    H126940   3.885   3.501   1.924
 8992TIP3    H226941   3.753   3.575   1.930
 8993TIP3   OH226942   5.145   1.284   3.437
 8993TIP3    H126943   5.083   1.259   3.369
 8993TIP3    H226944   5.137   1.214   3.502
 8994TIP3   OH226945   0.713   5.576   5.319
 8994TIP3    H126946   0.650   5.646   5.337
 8994TIP3    H226947   0.759   5.564   5.402
 8995TIP3   OH226948   3.973   2.834   4.817
 8995TIP3    H126949   3.964   2.829   4.912
 8995TIP3    H226950   3.939   2.750   4.785
 8996TIP3   OH226951   1.914   0.071   4.515
 8996TIP3    H126952   1.902   0.068   4.610
 8996TIP3    H226953   2.006   0.048   4.502
 8997TIP3   OH226954   2.976   1.714   5.814
 8997TIP3    H126955   2.912   1.649   5.785
 8997TIP3    H226956   2.986   1.698   5.908
 8998TIP3   OH226957   1.748   0.665   2.248
 8998TIP3    H126958   1.658   0.643   2.271
 8998TIP3    H226959   1.792   0.580   2.241
 8999TIP3   OH226960   0.434   2.594   4.473
 8999TIP3    H126961   0.521   2.554   4.475
 8999TIP3    H226962   0.376   2.529   4.512
 9000TIP3   OH226963   0.873   2.319   2.494
 9000TIP3    H126964   0.836   2.394   2.540
 9000TIP3    H226965   0.831   2.320   2.408
 9001TIP3   OH226966   0.588   3.429   2.998
 9001TIP3    H126967   0.606   3.487   3.071
 9001TIP3    H226968   0.655   3.361   3.004
 9002TIP3   OH226969   2.348   3.993   3.924
 9002TIP3    H126970   2.394   3.935   3.985
 9002TIP3    H226971   2.260   3.999   3.959
 9003TIP3   OH226972   5.691   2.029   2.442
 9003TIP3    H126973   5.634   1.977   2.385
 9003TIP3    H226974   5.746   2.079   2.381
 9004TIP3   OH226975   3.911   0.772   1.474
 9004TIP3    H126976   3.859   0.695   1.497
 9004TIP3    H226977   4.002   0.743   1.484
 9005TIP3   OH226978   0.807   1.238   4.788
 9005TIP3    H126979   0.755   1.228   4.867
 9005TIP3    H226980   0.779   1.322   4.751
 9006TIP3   OH226981   1.575   4.749   0.099
 9006TIP3    H126982   1.628   4.681   0.057
 9006TIP3    H226983   1.576   4.727   0.192
 9007TIP3   OH226984   7.045   5.820   2.466
 9007TIP3    H126985   7.092   5.756   2.412
 9007TIP3    H226986   6.982   5.859   2.407
 9008TIP3   OH226987   1.428   0.091   3.064
 9008TIP3    H126988   1.416   0.068   2.972
 9008TIP3    H226989   1.343   0.126   3.091
 9009TIP3   OH226990   5.171   5.801   5.581
 9009TIP3    H126991   5.254   5.846   5.567
 9009TIP3    H226992   5.108   5.872   5.593
 9010TIP3   OH226993   6.182   4.836   2.788
 9010TIP3    H126994   6.107   4.894   2.772
 9010TIP3    H226995   6.172   4.809   2.879
 9011TIP3   OH226996   2.062   4.085   2.552
 9011TIP3    H126997   2.034   4.049   2.468
 9011TIP3    H226998   2.058   4.180   2.540
 9012TIP3   OH226999   5.269   2.329   0.046
 9012TIP3    H127000   5.257   2.235   0.031
 9012TIP3    H227001   5.195   2.370   0.001
 9013TIP3   OH227002   5.096   5.188   2.255
 9013TIP3    H127003   5.016   5.137   2.243
 9013TIP3    H227004   5.072   5.277   2.231
 9014TIP3   OH227005   3.622   4.507   2.822
 9014TIP3    H127006   3.542   4.535   2.868
 9014TIP3    H227007   3.605   4.416   2.799
 9015TIP3   OH227008   6.485   1.698   1.552
 9015TIP3    H127009   6.534   1.651   1.485
 9015TIP3    H227010   6.491   1.790   1.526
 9016TIP3   OH227011   5.811   2.218   1.284
 9016TIP3    H127012   5.904   2.193   1.282
 9016TIP3    H227013   5.778   2.195   1.197
 9017TIP3   OH227014   5.776   1.048   4.755
 9017TIP3    H127015   5.754   0.955   4.759
 9017TIP3    H227016   5.773   1.069   4.661
 9018TIP3   OH227017   6.903   6.734   0.054
 9018TIP3    H127018   6.963   6.746   0.128
 9018TIP3    H227019   6.954   6.759  -0.023
 9019TIP3   OH227020   5.668   0.971   1.194
 9019TIP3    H127021   5.699   0.925   1.116
 9019TIP3    H227022   5.738   1.031   1.216
 9020TIP3   OH227023   3.608   6.576   5.931
 9020TIP3    H127024   3.639   6.666   5.945
 9020TIP3    H227025   3.629   6.557   5.839
 9021TIP3   OH227026   3.915   2.879   1.841
 9021TIP3    H127027   3.880   2.907   1.757
 9021TIP3    H227028   3.944   2.789   1.827
 9022TIP3   OH227029   6.177   1.772   5.804
 9022TIP3    H127030   6.115   1.844   5.814
 9022TIP3    H227031   6.155   1.732   5.720
 9023TIP3   OH227032   6.916   6.461   0.600
 9023TIP3    H127033   6.944   6.373   0.576
 9023TIP3    H227034   6.990   6.498   0.648
 9024TIP3   OH227035   6.028   1.135   0.771
 9024TIP3    H127036   5.994   1.161   0.685
 9024TIP3    H227037   5.997   1.045   0.783
 9025TIP3   OH227038   1.813   3.272   5.696
 9025TIP3    H127039   1.812   3.321   5.779
 9025TIP3    H227040   1.751   3.201   5.710
 9026TIP3   OH227041   4.971   3.238   5.388
 9026TIP3    H127042   4.974   3.238   5.484
 9026TIP3    H227043   4.882   3.266   5.367
 9027TIP3   OH227044   4.335   6.580   4.814
 9027TIP3    H127045   4.350   6.490   4.840
 9027TIP3    H227046   4.385   6.591   4.733
 9028TIP3   OH227047   0.808   1.603   1.286
 9028TIP3    H127048   0.773   1.612   1.375
 9028TIP3    H227049   0.892   1.559   1.298
 9029TIP3   OH227050   0.056   0.976   5.361
 9029TIP3    H127051   0.134   0.969   5.307
 9029TIP3    H227052  -0.017   0.957   5.302
 9030TIP3   OH227053   6.667   4.012   3.971
 9030TIP3    H127054   6.597   3.970   3.922
 9030TIP3    H227055   6.737   4.024   3.907
 9031TIP3   OH227056   5.153   1.119   1.226
 9031TIP3    H127057   5.153   1.037   1.178
 9031TIP3    H227058   5.244   1.131   1.254
 9032TIP3   OH227059   3.788   5.699   2.843
 9032TIP3    H127060   3.716   5.736   2.792
 9032TIP3    H227061   3.853   5.769   2.848
 9033TIP3   OH227062   1.493   5.338   4.024
 9033TIP3    H127063   1.541   5.354   3.942
 9033TIP3    H227064   1.507   5.244   4.041
 9034TIP3   OH227065   2.747   3.398   5.332
 9034TIP3    H127066   2.820   3.372   5.388
 9034TIP3    H227067   2.758   3.493   5.322
 9035TIP3   OH227068   0.877   3.483   3.916
 9035TIP3    H127069   0.955   3.512   3.868
 9035TIP3    H227070   0.898   3.501   4.008
 9036TIP3   OH227071   1.800   1.035   4.845
 9036TIP3    H127072   1.731   1.083   4.800
 9036TIP3    H227073   1.823   0.964   4.785
 9037TIP3   OH227074   1.500   5.954   0.901
 9037TIP3    H127075   1.487   5.965   0.807
 9037TIP3    H227076   1.578   5.899   0.909
 9038TIP3   OH227077   3.852   2.199   4.248
 9038TIP3    H127078   3.943   2.177   4.229
 9038TIP3    H227079   3.802   2.162   4.175
 9039TIP3   OH227080   1.367   0.281   4.868
 9039TIP3    H127081   1.416   0.231   4.803
 9039TIP3    H227082   1.430   0.300   4.937
 9040TIP3   OH227083   2.546   0.799   3.064
 9040TIP3    H127084   2.472   0.846   3.026
 9040TIP3    H227085   2.610   0.795   2.993
 9041TIP3   OH227086   0.661   1.456   2.144
 9041TIP3    H127087   0.675   1.446   2.050
 9041TIP3    H227088   0.716   1.389   2.184
 9042TIP3   OH227089   5.786   0.827   5.246
 9042TIP3    H127090   5.696   0.809   5.272
 9042TIP3    H227091   5.795   0.922   5.252
 9043TIP3   OH227092   4.819   4.447   0.350
 9043TIP3    H127093   4.830   4.511   0.421
 9043TIP3    H227094   4.817   4.362   0.394
 9044TIP3   OH227095   4.880   3.274   0.794
 9044TIP3    H127096   4.952   3.289   0.733
 9044TIP3    H227097   4.817   3.344   0.774
 9045TIP3   OH227098   4.592   3.413   4.988
 9045TIP3    H127099   4.639   3.479   4.937
 9045TIP3    H227100   4.500   3.440   4.982
 9046TIP3   OH227101   5.677   6.771   3.239
 9046TIP3    H127102   5.772   6.782   3.229
 9046TIP3    H227103   5.639   6.818   3.165
 9047TIP3   OH227104   2.397   1.717   4.748
 9047TIP3    H127105   2.460   1.658   4.706
 9047TIP3    H227106   2.332   1.658   4.787
 9048TIP3   OH227107  -0.041   4.829   3.694
 9048TIP3    H127108   0.026   4.840   3.626
 9048TIP3    H227109  -0.012   4.753   3.744
 9049TIP3   OH227110   6.064   6.076   0.633
 9049TIP3    H127111   6.128   6.146   0.643
 9049TIP3    H227112   5.980   6.121   0.623
 9050TIP3   OH227113   0.530   5.331   3.055
 9050TIP3    H127114   0.563   5.334   3.145
 9050TIP3    H227115   0.460   5.266   3.057
 9051TIP3   OH227116   4.821   0.800   2.612
 9051TIP3    H127117   4.781   0.734   2.668
 9051TIP3    H227118   4.786   0.783   2.524
 9052TIP3   OH227119   5.333   0.892   0.594
 9052TIP3    H127120   5.303   0.956   0.659
 9052TIP3    H227121   5.424   0.918   0.575
 9053TIP3   OH227122   4.298   5.366   2.195
 9053TIP3    H127123   4.379   5.317   2.180
 9053TIP3    H227124   4.314   5.416   2.275
 9054TIP3   OH227125   5.666   2.337   3.920
 9054TIP3    H127126   5.626   2.279   3.855
 9054TIP3    H227127   5.760   2.325   3.908
 9055TIP3   OH227128   6.019   3.750   4.820
 9055TIP3    H127129   6.047   3.689   4.888
 9055TIP3    H227130   5.978   3.694   4.753
 9056TIP3   OH227131   5.646   6.707   5.585
 9056TIP3    H127132   5.657   6.799   5.610
 9056TIP3    H227133   5.692   6.700   5.501
 9057TIP3   OH227134   2.287   1.110   5.430
 9057TIP3    H127135   2.278   1.061   5.348
 9057TIP3    H227136   2.198   1.120   5.462
 9058TIP3   OH227137   6.183   4.843   2.027
 9058TIP3    H127138   6.172   4.931   2.064
 9058TIP3    H227139   6.103   4.797   2.052
 9059TIP3   OH227140   4.187   4.083   3.925
 9059TIP3    H127141   4.129   4.094   3.850
 9059TIP3    H227142   4.137   4.117   3.999
 9060TIP3   OH227143   0.571   0.284   1.927
 9060TIP3    H127144   0.555   0.374   1.900
 9060TIP3    H227145   0.666   0.273   1.918
 9061TIP3   OH227146   3.849   6.373   4.771
 9061TIP3    H127147   3.935   6.411   4.753
 9061TIP3    H227148   3.864   6.279   4.778
 9062TIP3   OH227149   2.932   0.446   5.217
 9062TIP3    H127150   2.949   0.359   5.181
 9062TIP3    H227151   2.857   0.479   5.166
 9063TIP3   OH227152   0.502   3.889   0.802
 9063TIP3    H127153   0.423   3.940   0.783
 9063TIP3    H227154   0.520   3.841   0.721
 9064TIP3   OH227155   5.109   4.169   0.346
 9064TIP3    H127156   5.023   4.163   0.389
 9064TIP3    H227157   5.135   4.260   0.355
 9065TIP3   OH227158   1.110   4.135   2.331
 9065TIP3    H127159   1.148   4.202   2.388
 9065TIP3    H227160   1.126   4.053   2.377
 9066TIP3   OH227161   0.550   6.381   0.443
 9066TIP3    H127162   0.521   6.442   0.511
 9066TIP3    H227163   0.584   6.306   0.492
 9067TIP3   OH227164   5.058   0.701   5.604
 9067TIP3    H127165   5.029   0.738   5.687
 9067TIP3    H227166   4.979   0.696   5.550
 9068TIP3   OH227167   0.336   5.649   0.678
 9068TIP3    H127168   0.293   5.630   0.761
 9068TIP3    H227169   0.396   5.721   0.697
 9069TIP3   OH227170   2.118   1.463   1.827
 9069TIP3    H127171   2.210   1.489   1.820
 9069TIP3    H227172   2.119   1.368   1.818
 9070TIP3   OH227173   4.277   5.012   3.031
 9070TIP3    H127174   4.190   5.046   3.009
 9070TIP3    H227175   4.263   4.960   3.110
 9071TIP3   OH227176   3.516   3.501   0.421
 9071TIP3    H127177   3.437   3.540   0.385
 9071TIP3    H227178   3.588   3.550   0.380
 9072TIP3   OH227179   4.740   2.316   1.187
 9072TIP3    H127180   4.764   2.273   1.105
 9072TIP3    H227181   4.650   2.285   1.205
 9073TIP3   OH227182   5.128   0.227   1.175
 9073TIP3    H127183   5.057   0.191   1.122
 9073TIP3    H227184   5.206   0.220   1.120
 9074TIP3   OH227185   2.369   4.334   5.573
 9074TIP3    H127186   2.403   4.268   5.512
 9074TIP3    H227187   2.284   4.360   5.535
 9075TIP3   OH227188   4.161   4.944   2.052
 9075TIP3    H127189   4.145   4.946   2.147
 9075TIP3    H227190   4.160   5.036   2.026
 9076TIP3   OH227191   0.122   3.766   3.853
 9076TIP3    H127192   0.184   3.822   3.808
 9076TIP3    H227193   0.145   3.773   3.945
 9077TIP3   OH227194   5.521   0.163   3.004
 9077TIP3    H127195   5.443   0.118   2.972
 9077TIP3    H227196   5.489   0.218   3.076
 9078TIP3   OH227197   4.187   2.280   2.020
 9078TIP3    H127198   4.276   2.316   2.023
 9078TIP3    H227199   4.136   2.337   2.077
 9079TIP3   OH227200   5.823   5.316   5.259
 9079TIP3    H127201   5.816   5.286   5.169
 9079TIP3    H227202   5.767   5.394   5.263
 9080TIP3   OH227203   5.140   0.500   3.637
 9080TIP3    H127204   5.104   0.565   3.577
 9080TIP3    H227205   5.183   0.436   3.579
 9081TIP3   OH227206   7.143   6.559   0.706
 9081TIP3    H127207   7.163   6.650   0.684
 9081TIP3    H227208   7.227   6.521   0.729
 9082TIP3   OH227209   5.834   2.694   3.373
 9082TIP3    H127210   5.892   2.736   3.437
 9082TIP3    H227211   5.774   2.763   3.347
 9083TIP3   OH227212   4.813   2.278   5.285
 9083TIP3    H127213   4.736   2.314   5.328
 9083TIP3    H227214   4.837   2.201   5.338
 9084TIP3   OH227215   2.519   0.998   1.991
 9084TIP3    H127216   2.436   0.959   1.962
 9084TIP3    H227217   2.506   1.092   1.979
 9085TIP3   OH227218   4.171   0.010   3.224
 9085TIP3    H127219   4.219   0.059   3.157
 9085TIP3    H227220   4.089  -0.016   3.180
 9086TIP3   OH227221   6.658   3.082   4.227
 9086TIP3    H127222   6.602   3.153   4.259
 9086TIP3    H227223   6.599   3.024   4.180
 9087TIP3   OH227224   6.849   5.847   0.817
 9087TIP3    H127225   6.865   5.887   0.902
 9087TIP3    H227226   6.779   5.783   0.833
 9088TIP3   OH227227   1.926   2.180   3.496
 9088TIP3    H127228   1.865   2.202   3.565
 9088TIP3    H227229   2.011   2.210   3.528
 9089TIP3   OH227230   1.330   2.304   4.643
 9089TIP3    H127231   1.415   2.273   4.612
 9089TIP3    H227232   1.340   2.399   4.650
 9090TIP3   OH227233   1.115   6.798   0.828
 9090TIP3    H127234   1.042   6.770   0.884
 9090TIP3    H227235   1.179   6.727   0.835
 9091TIP3   OH227236   0.475   4.211   3.210
 9091TIP3    H127237   0.416   4.149   3.253
 9091TIP3    H227238   0.562   4.188   3.243
 9092TIP3   OH227239   3.807   6.233   0.239
 9092TIP3    H127240   3.823   6.161   0.178
 9092TIP3    H227241   3.792   6.189   0.323
 9093TIP3   OH227242   6.579   4.536   0.400
 9093TIP3    H127243   6.584   4.611   0.341
 9093TIP3    H227244   6.539   4.467   0.347
 9094TIP3   OH227245   4.730   5.575   1.192
 9094TIP3    H127246   4.818   5.547   1.167
 9094TIP3    H227247   4.714   5.654   1.140
 9095TIP3   OH227248   4.850   2.615   5.679
 9095TIP3    H127249   4.932   2.658   5.653
 9095TIP3    H227250   4.873   2.522   5.686
 9096TIP3   OH227251   2.302   6.427   4.124
 9096TIP3    H127252   2.396   6.414   4.137
 9096TIP3    H227253   2.296   6.515   4.086
 9097TIP3   OH227254   1.434   1.322   4.238
 9097TIP3    H127255   1.473   1.239   4.209
 9097TIP3    H227256   1.353   1.296   4.281
 9098TIP3   OH227257   3.379   2.772   4.845
 9098TIP3    H127258   3.286   2.750   4.839
 9098TIP3    H227259   3.398   2.767   4.939
 9099TIP3   OH227260   1.013   6.161   3.756
 9099TIP3    H127261   1.078   6.162   3.685
 9099TIP3    H227262   1.065   6.176   3.836
 9100TIP3   OH227263   4.585   5.658   2.658
 9100TIP3    H127264   4.639   5.726   2.617
 9100TIP3    H227265   4.639   5.625   2.730
 9101TIP3   OH227266   0.868   1.124   4.441
 9101TIP3    H127267   0.841   1.039   4.474
 9101TIP3    H227268   0.920   1.162   4.512
 9102TIP3   OH227269   1.419   4.743   3.981
 9102TIP3    H127270   1.415   4.725   4.075
 9102TIP3    H227271   1.505   4.783   3.967
 9103TIP3   OH227272   2.631   4.079   5.224
 9103TIP3    H127273   2.706   4.139   5.226
 9103TIP3    H227274   2.560   4.127   5.266
 9104TIP3   OH227275   5.993   6.233   0.899
 9104TIP3    H127276   5.949   6.249   0.982
 9104TIP3    H227277   6.013   6.139   0.900
 9105TIP3   OH227278   2.312   1.694   0.024
 9105TIP3    H127279   2.406   1.688   0.037
 9105TIP3    H227280   2.283   1.603   0.017
 9106TIP3   OH227281   1.319   0.759   2.638
 9106TIP3    H127282   1.288   0.847   2.657
 9106TIP3    H227283   1.385   0.771   2.569
 9107TIP3   OH227284   3.178   3.709   2.915
 9107TIP3    H127285   3.189   3.777   2.848
 9107TIP3    H227286   3.138   3.755   2.989
 9108TIP3   OH227287   0.176   1.873   4.084
 9108TIP3    H127288   0.268   1.901   4.081
 9108TIP3    H227289   0.156   1.848   3.994
 9109TIP3   OH227290   3.802   5.273   5.424
 9109TIP3    H127291   3.828   5.214   5.354
 9109TIP3    H227292   3.821   5.226   5.504
 9110TIP3   OH227293   1.403   0.098   5.123
 9110TIP3    H127294   1.405   0.193   5.134
 9110TIP3    H227295   1.310   0.075   5.131
 9111TIP3   OH227296   4.530   3.032   2.524
 9111TIP3    H127297   4.545   2.996   2.611
 9111TIP3    H227298   4.534   3.127   2.536
 9112TIP3   OH227299   6.559   4.390   5.702
 9112TIP3    H127300   6.609   4.312   5.680
 9112TIP3    H227301   6.490   4.359   5.761
 9113TIP3   OH227302   4.074   2.120   5.226
 9113TIP3    H127303   4.113   2.162   5.303
 9113TIP3    H227304   4.037   2.192   5.176
 9114TIP3   OH227305   1.044   1.887   1.836
 9114TIP3    H127306   1.126   1.928   1.809
 9114TIP3    H227307   0.995   1.957   1.879
 9115TIP3   OH227308   6.148   4.834   0.645
 9115TIP3    H127309   6.160   4.899   0.575
 9115TIP3    H227310   6.237   4.810   0.671
 9116TIP3   OH227311   1.553   4.813   4.235
 9116TIP3    H127312   1.572   4.761   4.313
 9116TIP3    H227313   1.578   4.902   4.259
 9117TIP3   OH227314   3.524   3.054   1.490
 9117TIP3    H127315   3.546   3.112   1.563
 9117TIP3    H227316   3.479   3.110   1.427
 9118TIP3   OH227317   0.182   3.007   4.181
 9118TIP3    H127318   0.094   2.973   4.192
 9118TIP3    H227319   0.170   3.101   4.170
 9119TIP3   OH227320   3.282   1.621   4.549
 9119TIP3    H127321   3.283   1.547   4.610
 9119TIP3    H227322   3.235   1.691   4.596
 9120TIP3   OH227323   3.727   4.456   4.872
 9120TIP3    H127324   3.806   4.481   4.823
 9120TIP3    H227325   3.747   4.476   4.963
 9121TIP3   OH227326   3.231   4.417   3.942
 9121TIP3    H127327   3.245   4.420   4.037
 9121TIP3    H227328   3.250   4.326   3.919
 9122TIP3   OH227329   6.428   5.657   3.579
 9122TIP3    H127330   6.394   5.678   3.492
 9122TIP3    H227331   6.369   5.590   3.613
 9123TIP3   OH227332   6.965   4.898   5.243
 9123TIP3    H127333   6.980   4.910   5.337
 9123TIP3    H227334   6.980   4.985   5.206
 9124TIP3   OH227335   2.584   6.077   2.686
 9124TIP3    H127336   2.577   6.170   2.705
 9124TIP3    H227337   2.556   6.034   2.767
 9125TIP3   OH227338   6.923   5.419   1.946
 9125TIP3    H127339   6.965   5.493   1.903
 9125TIP3    H227340   6.983   5.346   1.934
 9126TIP3   OH227341   6.322   3.298   0.347
 9126TIP3    H127342   6.270   3.358   0.400
 9126TIP3    H227343   6.291   3.312   0.257
 9127TIP3   OH227344   6.310   6.082   3.731
 9127TIP3    H127345   6.336   6.014   3.793
 9127TIP3    H227346   6.217   6.065   3.715
 9128TIP3   OH227347   2.257   0.957   1.888
 9128TIP3    H127348   2.206   1.037   1.898
 9128TIP3    H227349   2.193   0.886   1.892
 9129TIP3   OH227350   6.786   2.743   1.247
 9129TIP3    H127351   6.791   2.740   1.152
 9129TIP3    H227352   6.692   2.745   1.266
 9130TIP3   OH227353   6.997   5.329   3.846
 9130TIP3    H127354   6.996   5.384   3.767
 9130TIP3    H227355   7.027   5.243   3.815
 9131TIP3   OH227356   7.082   4.120   0.319
 9131TIP3    H127357   7.061   4.048   0.379
 9131TIP3    H227358   7.166   4.096   0.281
 9132TIP3   OH227359   2.196   0.131   2.522
 9132TIP3    H127360   2.204   0.044   2.483
 9132TIP3    H227361   2.169   0.115   2.612
 9133TIP3   OH227362   0.740   1.849   5.819
 9133TIP3    H127363   0.683   1.834   5.743
 9133TIP3    H227364   0.809   1.907   5.786
 9134TIP3   OH227365   4.986   2.860   5.879
 9134TIP3    H127366   4.934   2.797   5.929
 9134TIP3    H227367   5.024   2.918   5.945
 9135TIP3   OH227368   2.632   1.520   4.706
 9135TIP3    H127369   2.633   1.594   4.768
 9135TIP3    H227370   2.710   1.532   4.653
 9136TIP3   OH227371   5.211   0.486   3.988
 9136TIP3    H127372   5.279   0.438   3.940
 9136TIP3    H227373   5.154   0.418   4.023
 9137TIP3   OH227374   0.495   4.850   4.525
 9137TIP3    H127375   0.478   4.802   4.444
 9137TIP3    H227376   0.510   4.941   4.497
 9138TIP3   OH227377   5.836   2.571   3.042
 9138TIP3    H127378   5.799   2.542   2.958
 9138TIP3    H227379   5.786   2.650   3.064
 9139TIP3   OH227380   5.606   4.132   0.588
 9139TIP3    H127381   5.584   4.215   0.545
 9139TIP3    H227382   5.649   4.080   0.520
 9140TIP3   OH227383   7.154   5.445   5.148
 9140TIP3    H127384   7.150   5.427   5.242
 9140TIP3    H227385   7.127   5.363   5.106
 9141TIP3   OH227386   4.399   0.325   0.033
 9141TIP3    H127387   4.464   0.315   0.102
 9141TIP3    H227388   4.397   0.418   0.014
 9142TIP3   OH227389   2.104   3.850   0.800
 9142TIP3    H127390   2.084   3.806   0.717
 9142TIP3    H227391   2.066   3.794   0.867
 9143TIP3   OH227392   0.073   5.073   5.176
 9143TIP3    H127393   0.037   4.984   5.183
 9143TIP3    H227394   0.129   5.070   5.099
 9144TIP3   OH227395   6.289   3.203   2.971
 9144TIP3    H127396   6.255   3.114   2.963
 9144TIP3    H227397   6.361   3.195   3.034
 9145TIP3   OH227398   0.394   6.575   2.318
 9145TIP3    H127399   0.451   6.626   2.375
 9145TIP3    H227400   0.360   6.505   2.374
 9146TIP3   OH227401   2.051   3.450   3.126
 9146TIP3    H127402   2.009   3.379   3.077
 9146TIP3    H227403   2.133   3.412   3.157
 9147TIP3   OH227404   0.392   2.660   1.156
 9147TIP3    H127405   0.360   2.581   1.114
 9147TIP3    H227406   0.435   2.709   1.085
 9148TIP3   OH227407   6.555   5.049   1.858
 9148TIP3    H127408   6.536   4.966   1.901
 9148TIP3    H227409   6.510   5.044   1.774
 9149TIP3   OH227410   2.165   5.478   5.127
 9149TIP3    H127411   2.212   5.394   5.133
 9149TIP3    H227412   2.227   5.542   5.162
 9150TIP3   OH227413   0.680   4.899   1.048
 9150TIP3    H127414   0.689   4.994   1.044
 9150TIP3    H227415   0.667   4.880   1.141
 9151TIP3   OH227416   2.805   0.529   5.507
 9151TIP3    H127417   2.782   0.453   5.454
 9151TIP3    H227418   2.892   0.555   5.477
 9152TIP3   OH227419   4.008   5.800   2.140
 9152TIP3    H127420   3.997   5.887   2.177
 9152TIP3    H227421   4.087   5.766   2.181
 9153TIP3   OH227422   1.544   2.948   5.332
 9153TIP3    H127423   1.515   3.005   5.260
 9153TIP3    H227424   1.581   2.871   5.288
 9154TIP3   OH227425   0.281   5.666   5.190
 9154TIP3    H127426   0.291   5.576   5.159
 9154TIP3    H227427   0.186   5.678   5.200
 9155TIP3   OH227428   4.233   2.814   3.492
 9155TIP3    H127429   4.176   2.890   3.482
 9155TIP3    H227430   4.177   2.739   3.471
 9156TIP3   OH227431   6.170   3.022   1.370
 9156TIP3    H127432   6.207   2.956   1.428
 9156TIP3    H227433   6.076   3.019   1.386
 9157TIP3   OH227434   5.312   2.117   2.535
 9157TIP3    H127435   5.236   2.117   2.594
 9157TIP3    H227436   5.297   2.041   2.479
 9158TIP3   OH227437   6.707   6.560   1.963
 9158TIP3    H127438   6.687   6.650   1.938
 9158TIP3    H227439   6.622   6.521   1.982
 9159TIP3   OH227440   0.921   1.056   0.252
 9159TIP3    H127441   0.843   1.022   0.208
 9159TIP3    H227442   0.994   1.027   0.197
 9160TIP3   OH227443   5.702   2.105   3.516
 9160TIP3    H127444   5.765   2.043   3.552
 9160TIP3    H227445   5.672   2.064   3.434
 9161TIP3   OH227446   5.811   5.509   2.662
 9161TIP3    H127447   5.723   5.477   2.643
 9161TIP3    H227448   5.811   5.599   2.629
 9162TIP3   OH227449   0.869   1.074   3.685
 9162TIP3    H127450   0.934   1.006   3.702
 9162TIP3    H227451   0.914   1.156   3.708
 9163TIP3   OH227452   6.888   6.606   3.403
 9163TIP3    H127453   6.813   6.638   3.353
 9163TIP3    H227454   6.882   6.652   3.487
 9164TIP3   OH227455   1.568   3.331   3.121
 9164TIP3    H127456   1.614   3.247   3.127
 9164TIP3    H227457   1.637   3.395   3.106
 9165TIP3   OH227458   7.186   3.846   5.375
 9165TIP3    H127459   7.141   3.893   5.445
 9165TIP3    H227460   7.116   3.806   5.324
 9166TIP3   OH227461   0.966   6.621   3.612
 9166TIP3    H127462   1.018   6.572   3.548
 9166TIP3    H227463   0.970   6.712   3.581
 9167TIP3   OH227464   0.523   1.239   3.370
 9167TIP3    H127465   0.502   1.165   3.312
 9167TIP3    H227466   0.574   1.299   3.315
 9168TIP3   OH227467   4.210   4.264   4.545
 9168TIP3    H127468   4.180   4.175   4.530
 9168TIP3    H227469   4.222   4.300   4.457
 9169TIP3   OH227470   1.343   4.853   4.502
 9169TIP3    H127471   1.312   4.768   4.533
 9169TIP3    H227472   1.332   4.850   4.407
 9170TIP3   OH227473   0.346   1.338   0.742
 9170TIP3    H127474   0.392   1.255   0.740
 9170TIP3    H227475   0.324   1.355   0.650
 9171TIP3   OH227476   5.124   3.533   1.633
 9171TIP3    H127477   5.054   3.532   1.567
 9171TIP3    H227478   5.163   3.619   1.624
 9172TIP3   OH227479   1.290   1.937   4.642
 9172TIP3    H127480   1.378   1.974   4.638
 9172TIP3    H227481   1.234   2.003   4.600
 9173TIP3   OH227482   0.380   1.421   4.139
 9173TIP3    H127483   0.408   1.333   4.165
 9173TIP3    H227484   0.393   1.474   4.217
 9174TIP3   OH227485   0.547   5.957   3.340
 9174TIP3    H127486   0.474   5.897   3.326
 9174TIP3    H227487   0.624   5.908   3.310
 9175TIP3   OH227488   6.183   3.625   3.553
 9175TIP3    H127489   6.270   3.591   3.532
 9175TIP3    H227490   6.170   3.604   3.645
 9176TIP3   OH227491   2.055   0.425   1.325
 9176TIP3    H127492   2.099   0.384   1.400
 9176TIP3    H227493   2.029   0.352   1.269
 9177TIP3   OH227494   6.753   0.594   2.737
 9177TIP3    H127495   6.669   0.548   2.730
 9177TIP3    H227496   6.731   0.681   2.769
 9178TIP3   OH227497   5.126   4.451   2.220
 9178TIP3    H127498   5.182   4.377   2.244
 9178TIP3    H227499   5.154   4.522   2.278
 9179TIP3   OH227500   3.148   0.457   3.585
 9179TIP3    H127501   3.129   0.368   3.557
 9179TIP3    H227502   3.156   0.450   3.680
 9180TIP3   OH227503   1.793   0.680   0.094
 9180TIP3    H127504   1.871   0.670   0.147
 9180TIP3    H227505   1.725   0.631   0.141
 9181TIP3   OH227506   6.197   6.379   2.184
 9181TIP3    H127507   6.163   6.466   2.204
 9181TIP3    H227508   6.156   6.356   2.100
 9182TIP3   OH227509   3.712   0.063   4.991
 9182TIP3    H127510   3.736  -0.030   4.987
 9182TIP3    H227511   3.722   0.094   4.901
 9183TIP3   OH227512   1.015   4.279   4.356
 9183TIP3    H127513   1.024   4.338   4.430
 9183TIP3    H227514   0.985   4.334   4.283
 9184TIP3   OH227515   2.575   6.354   2.735
 9184TIP3    H127516   2.554   6.396   2.652
 9184TIP3    H227517   2.600   6.426   2.793
 9185TIP3   OH227518   6.640   3.575   3.447
 9185TIP3    H127519   6.682   3.507   3.499
 9185TIP3    H227520   6.646   3.545   3.357
 9186TIP3   OH227521   4.217   6.277   4.259
 9186TIP3    H127522   4.216   6.311   4.169
 9186TIP3    H227523   4.201   6.183   4.250
 9187TIP3   OH227524   5.147   2.081   1.776
 9187TIP3    H127525   5.157   2.140   1.702
 9187TIP3    H227526   5.213   2.110   1.839
 9188TIP3   OH227527   4.229   3.956   5.743
 9188TIP3    H127528   4.209   4.025   5.807
 9188TIP3    H227529   4.216   3.998   5.658
 9189TIP3   OH227530   0.516   2.240   1.377
 9189TIP3    H127531   0.447   2.302   1.350
 9189TIP3    H227532   0.473   2.155   1.375
 9190TIP3   OH227533   5.815   5.506   3.448
 9190TIP3    H127534   5.755   5.445   3.490
 9190TIP3    H227535   5.781   5.516   3.359
 9191TIP3   OH227536   5.641   0.736   3.794
 9191TIP3    H127537   5.568   0.708   3.851
 9191TIP3    H227538   5.608   0.816   3.753
 9192TIP3   OH227539   5.160   1.697   0.153
 9192TIP3    H127540   5.188   1.666   0.067
 9192TIP3    H227541   5.236   1.745   0.187
 9193TIP3   OH227542   1.233   4.245   0.851
 9193TIP3    H127543   1.146   4.249   0.891
 9193TIP3    H227544   1.292   4.282   0.917
 9194TIP3   OH227545   6.920   5.354   2.823
 9194TIP3    H127546   7.014   5.361   2.839
 9194TIP3    H227547   6.899   5.432   2.771
 9195TIP3   OH227548   1.583   1.181   4.738
 9195TIP3    H127549   1.516   1.206   4.802
 9195TIP3    H227550   1.537   1.123   4.676
 9196TIP3   OH227551   0.823   6.249   3.442
 9196TIP3    H127552   0.809   6.337   3.405
 9196TIP3    H227553   0.735   6.220   3.467
 9197TIP3   OH227554   5.917   4.052   2.334
 9197TIP3    H127555   5.831   4.015   2.351
 9197TIP3    H227556   5.910   4.093   2.248
 9198TIP3   OH227557   6.470   1.931   0.804
 9198TIP3    H127558   6.560   1.949   0.833
 9198TIP3    H227559   6.439   1.862   0.862
 9199TIP3   OH227560   0.167   1.310   3.211
 9199TIP3    H127561   0.248   1.333   3.164
 9199TIP3    H227562   0.102   1.297   3.141
 9200TIP3   OH227563   1.804   4.746   5.530
 9200TIP3    H127564   1.746   4.701   5.592
 9200TIP3    H227565   1.882   4.691   5.526
 9201TIP3   OH227566   5.047   4.326   1.253
 9201TIP3    H127567   5.004   4.408   1.228
 9201TIP3    H227568   4.993   4.291   1.324
 9202TIP3   OH227569   6.274   2.067   2.087
 9202TIP3    H127570   6.251   2.013   2.162
 9202TIP3    H227571   6.361   2.102   2.108
 9203TIP3   OH227572   6.748   4.977   1.138
 9203TIP3    H127573   6.758   5.060   1.092
 9203TIP3    H227574   6.823   4.973   1.197
 9204TIP3   OH227575   6.820   4.305   3.073
 9204TIP3    H127576   6.847   4.265   2.991
 9204TIP3    H227577   6.885   4.374   3.088
 9205TIP3   OH227578   2.566   0.207   2.647
 9205TIP3    H127579   2.657   0.209   2.677
 9205TIP3    H227580   2.549   0.296   2.616
 9206TIP3   OH227581   5.383   5.390   1.180
 9206TIP3    H127582   5.421   5.328   1.242
 9206TIP3    H227583   5.298   5.353   1.158
 9207TIP3   OH227584   2.282   1.122   3.103
 9207TIP3    H127585   2.187   1.114   3.115
 9207TIP3    H227586   2.319   1.077   3.180
 9208TIP3   OH227587   1.131   2.787   2.061
 9208TIP3    H127588   1.226   2.776   2.066
 9208TIP3    H227589   1.111   2.858   2.122
 9209TIP3   OH227590   0.229   3.562   4.567
 9209TIP3    H127591   0.318   3.594   4.578
 9209TIP3    H227592   0.174   3.639   4.582
 9210TIP3   OH227593   5.391   3.997   2.859
 9210TIP3    H127594   5.403   4.086   2.891
 9210TIP3    H227595   5.460   3.946   2.901
 9211TIP3   OH227596   2.728   1.439   0.073
 9211TIP3    H127597   2.698   1.529   0.085
 9211TIP3    H227598   2.807   1.433   0.127
 9212TIP3   OH227599   6.035   3.815   5.594
 9212TIP3    H127600   6.032   3.755   5.519
 9212TIP3    H227601   6.103   3.778   5.651
 9213TIP3   OH227602   5.604   0.501   2.820
 9213TIP3    H127603   5.562   0.571   2.869
 9213TIP3    H227604   5.686   0.484   2.867
 9214TIP3   OH227605   1.516   1.188   1.830
 9214TIP3    H127606   1.503   1.276   1.865
 9214TIP3    H227607   1.478   1.191   1.742
 9215TIP3   OH227608   0.248   1.861   2.819
 9215TIP3    H127609   0.238   1.918   2.895
 9215TIP3    H227610   0.342   1.860   2.802
 9216TIP3   OH227611   1.214   6.003   4.086
 9216TIP3    H127612   1.191   6.094   4.067
 9216TIP3    H227613   1.251   5.970   4.004
 9217TIP3   OH227614   6.025   3.314   1.695
 9217TIP3    H127615   5.980   3.300   1.611
 9217TIP3    H227616   5.954   3.313   1.759
 9218TIP3   OH227617   4.587   4.635   5.151
 9218TIP3    H127618   4.570   4.641   5.057
 9218TIP3    H227619   4.500   4.637   5.191
 9219TIP3   OH227620   6.456   6.272   1.236
 9219TIP3    H127621   6.420   6.209   1.172
 9219TIP3    H227622   6.523   6.319   1.187
 9220TIP3   OH227623   1.327   3.742   3.776
 9220TIP3    H127624   1.368   3.744   3.689
 9220TIP3    H227625   1.400   3.749   3.837
 9221TIP3   OH227626   2.522   4.155   5.714
 9221TIP3    H127627   2.487   4.110   5.791
 9221TIP3    H227628   2.472   4.236   5.708
 9222TIP3   OH227629   6.505   2.650   1.936
 9222TIP3    H127630   6.428   2.635   1.991
 9222TIP3    H227631   6.530   2.563   1.906
 9223TIP3   OH227632   5.393   0.400   2.679
 9223TIP3    H127633   5.456   0.434   2.743
 9223TIP3    H227634   5.420   0.439   2.596
 9224TIP3   OH227635   6.309   2.324   1.958
 9224TIP3    H127636   6.261   2.383   2.016
 9224TIP3    H227637   6.291   2.237   1.991
 9225TIP3   OH227638   1.782   1.732   1.029
 9225TIP3    H127639   1.827   1.728   1.113
 9225TIP3    H227640   1.836   1.679   0.970
 9226TIP3   OH227641   4.606   3.303   1.945
 9226TIP3    H127642   4.604   3.397   1.927
 9226TIP3    H227643   4.697   3.278   1.933
 9227TIP3   OH227644   3.335   4.807   2.897
 9227TIP3    H127645   3.348   4.828   2.805
 9227TIP3    H227646   3.292   4.884   2.934
 9228TIP3   OH227647   1.509   5.711   1.537
 9228TIP3    H127648   1.522   5.709   1.442
 9228TIP3    H227649   1.465   5.628   1.556
 9229TIP3   OH227650   2.589   6.221   5.166
 9229TIP3    H127651   2.543   6.144   5.200
 9229TIP3    H227652   2.554   6.294   5.217
 9230TIP3   OH227653   6.626   6.550   4.429
 9230TIP3    H127654   6.694   6.536   4.495
 9230TIP3    H227655   6.658   6.623   4.376
 9231TIP3   OH227656   6.642   3.810   1.816
 9231TIP3    H127657   6.557   3.772   1.793
 9231TIP3    H227658   6.704   3.739   1.805
 9232TIP3   OH227659   2.536   6.427   2.468
 9232TIP3    H127660   2.585   6.484   2.409
 9232TIP3    H227661   2.460   6.400   2.417
 9233TIP3   OH227662   3.470   1.362   3.557
 9233TIP3    H127663   3.558   1.368   3.593
 9233TIP3    H227664   3.460   1.271   3.531
 9234TIP3   OH227665   1.527   0.147   0.118
 9234TIP3    H127666   1.497   0.195   0.041
 9234TIP3    H227667   1.622   0.141   0.107
 9235TIP3   OH227668   3.843   2.337   1.150
 9235TIP3    H127669   3.796   2.259   1.120
 9235TIP3    H227670   3.901   2.305   1.219
 9236TIP3   OH227671   1.343   6.347   5.275
 9236TIP3    H127672   1.300   6.267   5.244
 9236TIP3    H227673   1.435   6.333   5.255
 9237TIP3   OH227674   0.166   1.654   4.260
 9237TIP3    H127675   0.163   1.738   4.215
 9237TIP3    H227676   0.074   1.635   4.281
 9238TIP3   OH227677   2.406   3.429   5.422
 9238TIP3    H127678   2.350   3.371   5.474
 9238TIP3    H227679   2.427   3.377   5.344
 9239TIP3   OH227680   2.927   2.779   1.810
 9239TIP3    H127681   2.884   2.860   1.836
 9239TIP3    H227682   3.013   2.806   1.778
 9240TIP3   OH227683   6.754   6.332   1.634
 9240TIP3    H127684   6.772   6.380   1.553
 9240TIP3    H227685   6.724   6.246   1.605
 9241TIP3   OH227686   2.081   2.747   4.461
 9241TIP3    H127687   2.154   2.686   4.452
 9241TIP3    H227688   2.120   2.825   4.500
 9242TIP3   OH227689   3.049   4.236   4.349
 9242TIP3    H127690   3.094   4.241   4.434
 9242TIP3    H227691   3.066   4.321   4.308
 9243TIP3   OH227692   3.675   4.664   4.043
 9243TIP3    H127693   3.694   4.579   4.082
 9243TIP3    H227694   3.615   4.706   4.104
 9244TIP3   OH227695   2.250   3.145   5.133
 9244TIP3    H127696   2.311   3.119   5.064
 9244TIP3    H227697   2.255   3.074   5.197
 9245TIP3   OH227698   4.940   1.336   4.271
 9245TIP3    H127699   5.000   1.274   4.230
 9245TIP3    H227700   4.857   1.324   4.224
 9246TIP3   OH227701   5.889   6.067   2.342
 9246TIP3    H127702   5.922   5.990   2.295
 9246TIP3    H227703   5.964   6.098   2.392
 9247TIP3   OH227704   5.869   1.645   2.582
 9247TIP3    H127705   5.846   1.641   2.490
 9247TIP3    H227706   5.860   1.737   2.606
 9248TIP3   OH227707   4.991   2.594   4.255
 9248TIP3    H127708   5.057   2.527   4.239
 9248TIP3    H227709   5.041   2.674   4.274
 9249TIP3   OH227710   3.523   3.094   3.115
 9249TIP3    H127711   3.456   3.162   3.113
 9249TIP3    H227712   3.479   3.018   3.153
 9250TIP3   OH227713   3.287   4.152   4.168
 9250TIP3    H127714   3.216   4.095   4.200
 9250TIP3    H227715   3.272   4.157   4.074
 9251TIP3   OH227716   6.284   6.320   3.860
 9251TIP3    H127717   6.292   6.235   3.818
 9251TIP3    H227718   6.359   6.325   3.919
 9252TIP3   OH227719   1.735   4.109   3.416
 9252TIP3    H127720   1.683   4.070   3.346
 9252TIP3    H227721   1.822   4.119   3.378
 9253TIP3   OH227722   0.775   3.274   2.903
 9253TIP3    H127723   0.787   3.225   2.821
 9253TIP3    H227724   0.864   3.284   2.937
 9254TIP3   OH227725   3.740   2.722   0.023
 9254TIP3    H127726   3.694   2.693   0.102
 9254TIP3    H227727   3.785   2.801   0.050
 9255TIP3   OH227728   0.222   1.493   3.915
 9255TIP3    H127729   0.295   1.470   3.973
 9255TIP3    H227730   0.155   1.428   3.934
 9256TIP3   OH227731   7.012   6.162   0.332
 9256TIP3    H127732   7.002   6.248   0.292
 9256TIP3    H227733   7.049   6.180   0.419
 9257TIP3   OH227734   0.801   2.519   2.209
 9257TIP3    H127735   0.717   2.563   2.222
 9257TIP3    H227736   0.788   2.465   2.130
 9258TIP3   OH227737   3.087   5.498   0.306
 9258TIP3    H127738   3.036   5.509   0.226
 9258TIP3    H227739   3.155   5.566   0.301
 9259TIP3   OH227740   4.028   0.185   1.391
 9259TIP3    H127741   3.994   0.135   1.317
 9259TIP3    H227742   4.014   0.276   1.367
 9260TIP3   OH227743   6.030   3.178   2.012
 9260TIP3    H127744   5.997   3.244   2.073
 9260TIP3    H227745   6.079   3.228   1.946
 9261TIP3   OH227746   3.762   1.664   0.035
 9261TIP3    H127747   3.764   1.678   0.129
 9261TIP3    H227748   3.771   1.751  -0.003
 9262TIP3   OH227749   2.937   6.751   3.495
 9262TIP3    H127750   3.028   6.731   3.472
 9262TIP3    H227751   2.924   6.707   3.579
 9263TIP3   OH227752   0.274   3.620   5.668
 9263TIP3    H127753   0.354   3.571   5.686
 9263TIP3    H227754   0.301   3.712   5.671
 9264TIP3   OH227755   6.933   3.788   2.572
 9264TIP3    H127756   7.019   3.817   2.540
 9264TIP3    H227757   6.953   3.720   2.635
 9265TIP3   OH227758   3.591   0.790   1.263
 9265TIP3    H127759   3.592   0.707   1.310
 9265TIP3    H227760   3.605   0.766   1.172
 9266TIP3   OH227761   1.780   5.826   2.981
 9266TIP3    H127762   1.845   5.869   3.036
 9266TIP3    H227763   1.794   5.733   2.996
 9267TIP3   OH227764   6.683   6.541   4.116
 9267TIP3    H127765   6.603   6.494   4.092
 9267TIP3    H227766   6.654   6.629   4.138
 9268TIP3   OH227767   0.300   4.389   3.314
 9268TIP3    H127768   0.336   4.405   3.401
 9268TIP3    H227769   0.368   4.340   3.268
 9269TIP3   OH227770   6.930   1.258   1.773
 9269TIP3    H127771   6.935   1.350   1.798
 9269TIP3    H227772   6.980   1.252   1.692
 9270TIP3   OH227773   1.507   5.210   3.166
 9270TIP3    H127774   1.517   5.201   3.261
 9270TIP3    H227775   1.570   5.278   3.142
 9271TIP3   OH227776   4.268   1.552   2.065
 9271TIP3    H127777   4.339   1.603   2.103
 9271TIP3    H227778   4.188   1.595   2.096
 9272TIP3   OH227779   5.248   0.200   3.555
 9272TIP3    H127780   5.292   0.119   3.529
 9272TIP3    H227781   5.257   0.202   3.651
 9273TIP3   OH227782   5.729   4.280   5.762
 9273TIP3    H127783   5.673   4.223   5.814
 9273TIP3    H227784   5.748   4.230   5.683
 9274TIP3   OH227785   4.070   1.764   1.591
 9274TIP3    H127786   4.064   1.702   1.664
 9274TIP3    H227787   4.116   1.715   1.522
 9275TIP3   OH227788   1.508   0.358   1.464
 9275TIP3    H127789   1.461   0.309   1.531
 9275TIP3    H227790   1.600   0.336   1.477
 9276TIP3   OH227791   5.442   2.319   1.077
 9276TIP3    H127792   5.401   2.356   1.156
 9276TIP3    H227793   5.430   2.225   1.087
 9277TIP3   OH227794   2.681   1.269   1.792
 9277TIP3    H127795   2.606   1.270   1.852
 9277TIP3    H227796   2.755   1.240   1.846
 9278TIP3   OH227797   0.624   4.262   4.086
 9278TIP3    H127798   0.571   4.183   4.078
 9278TIP3    H227799   0.707   4.240   4.045
 9279TIP3   OH227800   4.843   4.097   5.415
 9279TIP3    H127801   4.928   4.107   5.372
 9279TIP3    H227802   4.782   4.146   5.360
 9280TIP3   OH227803   6.382   1.581   1.158
 9280TIP3    H127804   6.295   1.558   1.190
 9280TIP3    H227805   6.440   1.565   1.233
 9281TIP3   OH227806   4.134   3.013   2.813
 9281TIP3    H127807   4.115   3.092   2.762
 9281TIP3    H227808   4.057   2.958   2.802
 9282TIP3   OH227809   6.281   6.221   3.434
 9282TIP3    H127810   6.284   6.307   3.476
 9282TIP3    H227811   6.335   6.165   3.490
 9283TIP3   OH227812   6.103   0.103   1.150
 9283TIP3    H127813   6.113   0.009   1.136
 9283TIP3    H227814   6.128   0.116   1.242
 9284TIP3   OH227815   5.832   5.236   0.049
 9284TIP3    H127816   5.904   5.284   0.007
 9284TIP3    H227817   5.766   5.228  -0.020
 9285TIP3   OH227818   2.104   3.917   0.062
 9285TIP3    H127819   2.196   3.932   0.084
 9285TIP3    H227820   2.055   3.971   0.125
 9286TIP3   OH227821   0.071   0.356   0.959
 9286TIP3    H127822   0.136   0.380   0.893
 9286TIP3    H227823   0.120   0.348   1.040
 9287TIP3   OH227824   0.564   2.444   0.874
 9287TIP3    H127825   0.502   2.516   0.874
 9287TIP3    H227826   0.585   2.430   0.966
 9288TIP3   OH227827   0.045   4.287   5.474
 9288TIP3    H127828   0.130   4.267   5.435
 9288TIP3    H227829  -0.018   4.236   5.422
 9289TIP3   OH227830   0.077   1.274   4.936
 9289TIP3    H127831   0.019   1.292   5.011
 9289TIP3    H227832   0.078   1.179   4.929
 9290TIP3   OH227833   1.255   4.796   2.242
 9290TIP3    H127834   1.272   4.882   2.202
 9290TIP3    H227835   1.338   4.773   2.284
 9291TIP3   OH227836   4.434   2.238   5.769
 9291TIP3    H127837   4.380   2.310   5.800
 9291TIP3    H227838   4.518   2.249   5.813
 9292TIP3   OH227839   1.305   0.217   0.324
 9292TIP3    H127840   1.250   0.295   0.312
 9292TIP3    H227841   1.360   0.214   0.246
 9293TIP3   OH227842   3.728   1.169   4.262
 9293TIP3    H127843   3.634   1.184   4.274
 9293TIP3    H227844   3.766   1.256   4.252
 9294TIP3   OH227845   2.472   3.013   0.337
 9294TIP3    H127846   2.423   2.970   0.267
 9294TIP3    H227847   2.562   2.984   0.324
 9295TIP3   OH227848   1.853   5.953   5.788
 9295TIP3    H127849   1.901   5.887   5.738
 9295TIP3    H227850   1.839   6.025   5.726
 9296TIP3   OH227851   0.646   1.063   2.920
 9296TIP3    H127852   0.573   1.001   2.913
 9296TIP3    H227853   0.607   1.142   2.957
 9297TIP3   OH227854   3.898   0.310   4.267
 9297TIP3    H127855   3.907   0.243   4.199
 9297TIP3    H227856   3.805   0.307   4.291
 9298TIP3   OH227857   6.479   3.368   5.407
 9298TIP3    H127858   6.553   3.383   5.466
 9298TIP3    H227859   6.410   3.332   5.463
 9299TIP3   OH227860   6.892   2.916   5.248
 9299TIP3    H127861   6.988   2.908   5.244
 9299TIP3    H227862   6.877   2.992   5.304
 9300TIP3   OH227863   1.299   4.006   2.859
 9300TIP3    H127864   1.334   3.942   2.920
 9300TIP3    H227865   1.375   4.059   2.833
 9301TIP3   OH227866   2.477   4.118   1.561
 9301TIP3    H127867   2.387   4.141   1.582
 9301TIP3    H227868   2.529   4.159   1.630
 9302TIP3   OH227869   0.887   1.951   2.111
 9302TIP3    H127870   0.920   2.025   2.161
 9302TIP3    H227871   0.811   1.920   2.160
 9303TIP3   OH227872   1.531   2.365   4.046
 9303TIP3    H127873   1.616   2.346   4.008
 9303TIP3    H227874   1.545   2.444   4.099
 9304TIP3   OH227875   6.988   6.216   2.107
 9304TIP3    H127876   6.972   6.309   2.124
 9304TIP3    H227877   7.083   6.207   2.107
 9305TIP3   OH227878   6.432   4.824   0.404
 9305TIP3    H127879   6.441   4.774   0.323
 9305TIP3    H227880   6.365   4.890   0.384
 9306TIP3   OH227881   4.336   4.189   5.085
 9306TIP3    H127882   4.386   4.126   5.137
 9306TIP3    H227883   4.336   4.154   4.996
 9307TIP3   OH227884   5.886   4.734   0.527
 9307TIP3    H127885   5.832   4.812   0.516
 9307TIP3    H227886   5.968   4.766   0.564
 9308TIP3   OH227887   4.561   5.101   2.873
 9308TIP3    H127888   4.571   5.063   2.960
 9308TIP3    H227889   4.525   5.189   2.889
 9309TIP3   OH227890   5.081   4.202   0.959
 9309TIP3    H127891   5.056   4.219   1.050
 9309TIP3    H227892   5.144   4.131   0.963
 9310TIP3   OH227893   6.716   0.171   3.025
 9310TIP3    H127894   6.643   0.161   3.085
 9310TIP3    H227895   6.793   0.151   3.078
 9311TIP3   OH227896   6.793   4.293   4.172
 9311TIP3    H127897   6.705   4.256   4.168
 9311TIP3    H227898   6.795   4.341   4.256
 9312TIP3   OH227899   2.456   3.656   4.852
 9312TIP3    H127900   2.516   3.581   4.853
 9312TIP3    H227901   2.466   3.694   4.765
 9313TIP3   OH227902   2.712   6.788   0.750
 9313TIP3    H127903   2.739   6.771   0.841
 9313TIP3    H227904   2.629   6.835   0.759
 9314TIP3   OH227905   4.636   1.903   1.474
 9314TIP3    H127906   4.646   1.994   1.501
 9314TIP3    H227907   4.720   1.862   1.493
 9315TIP3   OH227908   6.454   5.706   0.028
 9315TIP3    H127909   6.369   5.748   0.042
 9315TIP3    H227910   6.435   5.612   0.028
 9316TIP3   OH227911   1.798   2.892   0.611
 9316TIP3    H127912   1.731   2.841   0.657
 9316TIP3    H227913   1.881   2.853   0.638
 9317TIP3   OH227914   7.108   2.193   5.671
 9317TIP3    H127915   7.202   2.213   5.677
 9317TIP3    H227916   7.094   2.123   5.734
 9318TIP3   OH227917   0.911   1.822   3.453
 9318TIP3    H127918   0.853   1.746   3.455
 9318TIP3    H227919   0.999   1.785   3.460
 9319TIP3   OH227920   6.084   1.101   5.147
 9319TIP3    H127921   6.081   1.021   5.200
 9319TIP3    H227922   6.155   1.152   5.185
 9320TIP3   OH227923   3.306   2.991   5.609
 9320TIP3    H127924   3.329   2.994   5.701
 9320TIP3    H227925   3.211   3.006   5.607
 9321TIP3   OH227926   2.975   0.379   4.036
 9321TIP3    H127927   3.040   0.376   4.106
 9321TIP3    H227928   3.026   0.375   3.955
 9322TIP3   OH227929   4.472   1.347   1.755
 9322TIP3    H127930   4.437   1.338   1.844
 9322TIP3    H227931   4.437   1.430   1.724
 9323TIP3   OH227932   2.142   3.364   3.936
 9323TIP3    H127933   2.122   3.387   3.845
 9323TIP3    H227934   2.232   3.332   3.933
 9324TIP3   OH227935   0.500   3.028   3.913
 9324TIP3    H127936   0.446   3.105   3.896
 9324TIP3    H227937   0.514   3.030   4.008
 9325TIP3   OH227938   0.947   1.258   1.710
 9325TIP3    H127939   0.979   1.232   1.623
 9325TIP3    H227940   1.027   1.278   1.759
 9326TIP3   OH227941   6.763   0.462   1.852
 9326TIP3    H127942   6.794   0.551   1.871
 9326TIP3    H227943   6.720   0.433   1.932
 9327TIP3   OH227944   1.137   4.312   0.034
 9327TIP3    H127945   1.219   4.350   0.063
 9327TIP3    H227946   1.080   4.316   0.111
 9328TIP3   OH227947   1.558   4.955   3.046
 9328TIP3    H127948   1.581   4.958   2.953
 9328TIP3    H227949   1.578   5.043   3.078
 9329TIP3   OH227950   3.763   1.299   5.376
 9329TIP3    H127951   3.724   1.212   5.362
 9329TIP3    H227952   3.801   1.321   5.290
 9330TIP3   OH227953   3.267   6.609   4.976
 9330TIP3    H127954   3.234   6.668   5.044
 9330TIP3    H227955   3.312   6.540   5.025
 9331TIP3   OH227956   4.485   6.736   3.237
 9331TIP3    H127957   4.460   6.652   3.198
 9331TIP3    H227958   4.553   6.714   3.301
 9332TIP3   OH227959   5.868   1.747   2.897
 9332TIP3    H127960   5.900   1.802   2.826
 9332TIP3    H227961   5.790   1.792   2.930
 9333TIP3   OH227962   3.497   5.876   2.067
 9333TIP3    H127963   3.482   5.968   2.046
 9333TIP3    H227964   3.512   5.834   1.982
 9334TIP3   OH227965   1.529   5.067   4.698
 9334TIP3    H127966   1.585   5.117   4.638
 9334TIP3    H227967   1.545   5.106   4.784
 9335TIP3   OH227968   0.001   4.983   0.873
 9335TIP3    H127969   0.084   4.981   0.920
 9335TIP3    H227970  -0.017   4.891   0.853
 9336TIP3   OH227971   3.957   0.444   5.266
 9336TIP3    H127972   3.979   0.418   5.177
 9336TIP3    H227973   4.037   0.431   5.316
 9337TIP3   OH227974   2.320   0.672   4.940
 9337TIP3    H127975   2.284   0.616   5.009
 9337TIP3    H227976   2.245   0.693   4.885
 9338TIP3   OH227977   0.742   1.084   1.705
 9338TIP3    H127978   0.754   1.067   1.799
 9338TIP3    H227979   0.820   1.134   1.680
 9339TIP3   OH227980   0.539   3.428   1.490
 9339TIP3    H127981   0.574   3.408   1.576
 9339TIP3    H227982   0.519   3.522   1.493
 9340TIP3   OH227983   2.784   1.046   1.626
 9340TIP3    H127984   2.794   1.119   1.565
 9340TIP3    H227985   2.731   0.982   1.579
 9341TIP3   OH227986   2.526   2.773   1.571
 9341TIP3    H127987   2.503   2.680   1.565
 9341TIP3    H227988   2.567   2.792   1.487
 9342TIP3   OH227989   3.171   1.784   4.728
 9342TIP3    H127990   3.120   1.860   4.757
 9342TIP3    H227991   3.194   1.739   4.809
 9343TIP3   OH227992   2.181   2.621   1.893
 9343TIP3    H127993   2.171   2.635   1.987
 9343TIP3    H227994   2.219   2.702   1.861
 9344TIP3   OH227995   2.117   0.890   1.119
 9344TIP3    H127996   2.181   0.874   1.050
 9344TIP3    H227997   2.101   0.804   1.158
 9345TIP3   OH227998   0.174   4.624   3.178
 9345TIP3    H127999   0.226   4.689   3.225
 9345TIP3    H228000   0.221   4.542   3.192
 9346TIP3   OH228001   3.788   1.269   2.816
 9346TIP3    H128002   3.865   1.324   2.802
 9346TIP3    H228003   3.714   1.330   2.811
 9347TIP3   OH228004   0.206   3.605   2.183
 9347TIP3    H128005   0.301   3.599   2.189
 9347TIP3    H228006   0.174   3.560   2.261
 9348TIP3   OH228007   7.085   1.459   4.063
 9348TIP3    H128008   7.167   1.454   4.113
 9348TIP3    H228009   7.026   1.400   4.109
 9349TIP3   OH228010   0.060   1.949   0.985
 9349TIP3    H128011   0.124   1.882   1.010
 9349TIP3    H228012   0.050   1.938   0.891
 9350TIP3   OH228013   0.103   6.487   2.142
 9350TIP3    H128014   0.040   6.445   2.084
 9350TIP3    H228015   0.085   6.450   2.228
 9351TIP3   OH228016   2.422   6.560   5.049
 9351TIP3    H128017   2.335   6.526   5.027
 9351TIP3    H228018   2.432   6.539   5.142
 9352TIP3   OH228019   5.294   1.388   0.599
 9352TIP3    H128020   5.382   1.426   0.592
 9352TIP3    H228021   5.299   1.307   0.548
 9353TIP3   OH228022   6.977   2.652   4.625
 9353TIP3    H128023   7.016   2.739   4.628
 9353TIP3    H228024   6.970   2.632   4.532
 9354TIP3   OH228025   6.175   0.368   4.602
 9354TIP3    H128026   6.135   0.388   4.687
 9354TIP3    H228027   6.110   0.397   4.538
 9355TIP3   OH228028   0.556   5.618   3.004
 9355TIP3    H128029   0.599   5.535   3.024
 9355TIP3    H228030   0.515   5.604   2.918
 9356TIP3   OH228031   1.540   1.068   4.227
 9356TIP3    H128032   1.516   0.976   4.239
 9356TIP3    H228033   1.614   1.066   4.167
 9357TIP3   OH228034   3.451   2.071   1.332
 9357TIP3    H128035   3.533   2.107   1.365
 9357TIP3    H228036   3.475   1.984   1.298
 9358TIP3   OH228037   1.446   2.646   2.396
 9358TIP3    H128038   1.524   2.605   2.432
 9358TIP3    H228039   1.408   2.579   2.338
 9359TIP3   OH228040   5.958   0.466   4.482
 9359TIP3    H128041   5.899   0.457   4.407
 9359TIP3    H228042   5.956   0.559   4.503
 9360TIP3   OH228043   2.192   1.823   1.460
 9360TIP3    H128044   2.219   1.737   1.492
 9360TIP3    H228045   2.257   1.884   1.495
 9361TIP3   OH228046   1.837   2.888   1.418
 9361TIP3    H128047   1.830   2.815   1.479
 9361TIP3    H228048   1.896   2.857   1.350
 9362TIP3   OH228049   4.569   4.598   5.854
 9362TIP3    H128050   4.577   4.579   5.760
 9362TIP3    H228051   4.583   4.513   5.897
 9363TIP3   OH228052   3.598   3.722   1.591
 9363TIP3    H128053   3.623   3.759   1.676
 9363TIP3    H228054   3.669   3.662   1.569
 9364TIP3   OH228055   7.176   4.997   5.675
 9364TIP3    H128056   7.110   5.040   5.731
 9364TIP3    H228057   7.189   5.058   5.603
 9365TIP3   OH228058   1.389   3.407   1.488
 9365TIP3    H128059   1.299   3.377   1.502
 9365TIP3    H228060   1.441   3.360   1.554
 9366TIP3   OH228061   1.288   3.770   4.272
 9366TIP3    H128062   1.344   3.716   4.329
 9366TIP3    H228063   1.251   3.836   4.330
 9367TIP3   OH228064   1.213   5.475   4.856
 9367TIP3    H128065   1.260   5.528   4.920
 9367TIP3    H228066   1.135   5.526   4.836
 9368TIP3   OH228067   4.533   4.381   1.728
 9368TIP3    H128068   4.538   4.471   1.697
 9368TIP3    H228069   4.440   4.357   1.718
 9369TIP3   OH228070   2.149   4.264   3.781
 9369TIP3    H128071   2.098   4.334   3.742
 9369TIP3    H228072   2.240   4.287   3.763
 9370TIP3   OH228073   6.360   5.492   2.591
 9370TIP3    H128074   6.399   5.509   2.504
 9370TIP3    H228075   6.275   5.535   2.587
 9371TIP3   OH228076   0.476   6.386   4.272
 9371TIP3    H128077   0.443   6.382   4.182
 9371TIP3    H228078   0.516   6.473   4.279
 9372TIP3   OH228079   5.059   2.394   4.492
 9372TIP3    H128080   4.990   2.360   4.435
 9372TIP3    H228081   5.016   2.464   4.542
 9373TIP3   OH228082   0.236   0.436   0.742
 9373TIP3    H128083   0.278   0.411   0.660
 9373TIP3    H228084   0.300   0.490   0.788
 9374TIP3   OH228085   3.531   4.279   0.330
 9374TIP3    H128086   3.481   4.360   0.328
 9374TIP3    H228087   3.561   4.270   0.420
 9375TIP3   OH228088   3.072   4.863   4.713
 9375TIP3    H128089   3.128   4.940   4.703
 9375TIP3    H228090   3.061   4.829   4.625
 9376TIP3   OH228091   0.559   0.316   0.456
 9376TIP3    H128092   0.550   0.222   0.467
 9376TIP3    H228093   0.479   0.342   0.409
 9377TIP3   OH228094   5.151   4.104   1.533
 9377TIP3    H128095   5.231   4.123   1.484
 9377TIP3    H228096   5.158   4.157   1.612
 9378TIP3   OH228097   2.140   6.238   0.116
 9378TIP3    H128098   2.127   6.161   0.171
 9378TIP3    H228099   2.160   6.203   0.029
 9379TIP3   OH228100   2.437   5.611   0.203
 9379TIP3    H128101   2.359   5.558   0.184
 9379TIP3    H228102   2.403   5.692   0.241
 9380TIP3   OH228103   5.627   3.481   2.267
 9380TIP3    H128104   5.579   3.427   2.330
 9380TIP3    H228105   5.559   3.530   2.220
 9381TIP3   OH228106   6.555   4.925   3.224
 9381TIP3    H128107   6.557   5.006   3.173
 9381TIP3    H228108   6.617   4.940   3.295
 9382TIP3   OH228109   5.017   6.223   1.356
 9382TIP3    H128110   5.063   6.188   1.279
 9382TIP3    H228111   4.980   6.305   1.326
 9383TIP3   OH228112   2.383   4.216   0.689
 9383TIP3    H128113   2.296   4.222   0.728
 9383TIP3    H228114   2.367   4.196   0.597
 9384TIP3   OH228115   6.473   5.178   1.070
 9384TIP3    H128116   6.505   5.152   0.984
 9384TIP3    H228117   6.396   5.124   1.085
 9385TIP3   OH228118   5.551   5.736   1.607
 9385TIP3    H128119   5.633   5.782   1.587
 9385TIP3    H228120   5.554   5.657   1.553
 9386TIP3   OH228121   6.073   5.160   3.436
 9386TIP3    H128122   5.992   5.172   3.486
 9386TIP3    H228123   6.143   5.181   3.498
 9387TIP3   OH228124   2.711   2.495   1.219
 9387TIP3    H128125   2.803   2.469   1.219
 9387TIP3    H228126   2.691   2.510   1.126
 9388TIP3   OH228127   4.854   2.333   2.970
 9388TIP3    H128128   4.767   2.299   2.951
 9388TIP3    H228129   4.849   2.363   3.061
 9389TIP3   OH228130   1.924   1.350  -0.068
 9389TIP3    H128131   2.018   1.345  -0.051
 9389TIP3    H228132   1.893   1.421  -0.011
 9390TIP3   OH228133   0.792   3.337   4.891
 9390TIP3    H128134   0.746   3.261   4.854
 9390TIP3    H228135   0.762   3.341   4.982
 9391TIP3   OH228136   0.514   1.068   3.677
 9391TIP3    H128137   0.450   1.005   3.644
 9391TIP3    H228138   0.520   1.050   3.770
 9392TIP3   OH228139   0.648   6.724   2.340
 9392TIP3    H128140   0.721   6.662   2.344
 9392TIP3    H228141   0.618   6.733   2.430
 9393TIP3   OH228142   3.325   6.054   1.538
 9393TIP3    H128143   3.420   6.060   1.545
 9393TIP3    H228144   3.298   6.012   1.620
 9394TIP3   OH228145   4.122   5.381   1.728
 9394TIP3    H128146   4.161   5.427   1.653
 9394TIP3    H228147   4.029   5.372   1.705
 9395TIP3   OH228148   1.537   3.874   2.572
 9395TIP3    H128149   1.490   3.799   2.609
 9395TIP3    H228150   1.597   3.901   2.641
 9396TIP3   OH228151   0.605   1.317   2.983
 9396TIP3    H128152   0.561   1.357   2.909
 9396TIP3    H228153   0.560   1.352   3.060
 9397TIP3   OH228154   0.508   4.794   2.670
 9397TIP3    H128155   0.585   4.841   2.702
 9397TIP3    H228156   0.506   4.713   2.720
 9398TIP3   OH228157   4.025   6.495   4.351
 9398TIP3    H128158   4.075   6.415   4.344
 9398TIP3    H228159   3.953   6.474   4.410
 9399TIP3   OH228160   3.536   4.798   3.127
 9399TIP3    H128161   3.479   4.811   3.051
 9399TIP3    H228162   3.582   4.881   3.137
 9400TIP3   OH228163   5.265   6.503   4.378
 9400TIP3    H128164   5.198   6.504   4.310
 9400TIP3    H228165   5.348   6.496   4.331
 9401TIP3   OH228166   3.051   6.072   5.738
 9401TIP3    H128167   3.109   6.043   5.808
 9401TIP3    H228168   3.066   6.167   5.732
 9402TIP3   OH228169   1.191   1.740   1.191
 9402TIP3    H128170   1.179   1.687   1.270
 9402TIP3    H228171   1.285   1.734   1.172
 9403TIP3   OH228172   2.248   0.733   0.207
 9403TIP3    H128173   2.340   0.755   0.193
 9403TIP3    H228174   2.206   0.750   0.122
 9404TIP3   OH228175   7.056   5.626   3.394
 9404TIP3    H128176   7.043   5.551   3.336
 9404TIP3    H228177   7.120   5.681   3.349
 9405TIP3   OH228178   1.027   1.717   4.657
 9405TIP3    H128179   1.079   1.742   4.733
 9405TIP3    H228180   1.025   1.796   4.602
 9406TIP3   OH228181   6.596   0.046   4.240
 9406TIP3    H128182   6.663   0.099   4.197
 9406TIP3    H228183   6.514   0.071   4.197
 9407TIP3   OH228184   5.448   5.733   0.248
 9407TIP3    H128185   5.540   5.742   0.226
 9407TIP3    H228186   5.403   5.791   0.187
 9408TIP3   OH228187   2.735   4.736   5.038
 9408TIP3    H128188   2.818   4.784   5.035
 9408TIP3    H228189   2.697   4.757   5.123
 9409TIP3   OH228190   5.369   3.064   3.754
 9409TIP3    H128191   5.448   3.012   3.766
 9409TIP3    H228192   5.299   3.013   3.795
 9410TIP3   OH228193   0.082   6.358   2.398
 9410TIP3    H128194   0.145   6.381   2.467
 9410TIP3    H228195   0.010   6.316   2.444
 9411TIP3   OH228196   4.241   6.125   2.770
 9411TIP3    H128197   4.288   6.050   2.807
 9411TIP3    H228198   4.191   6.089   2.697
 9412TIP3   OH228199   5.290   0.775   3.647
 9412TIP3    H128200   5.346   0.697   3.646
 9412TIP3    H228201   5.233   0.762   3.723
 9413TIP3   OH228202   3.583   5.493   2.274
 9413TIP3    H128203   3.644   5.531   2.211
 9413TIP3    H228204   3.617   5.520   2.360
 9414TIP3   OH228205   4.218   4.065   0.929
 9414TIP3    H128206   4.158   4.054   1.003
 9414TIP3    H228207   4.175   4.019   0.857
 9415TIP3   OH228208   3.033   4.044   4.140
 9415TIP3    H128209   2.964   3.981   4.120
 9415TIP3    H228210   2.992   4.109   4.197
 9416TIP3   OH228211   5.091   6.324   4.035
 9416TIP3    H128212   5.155   6.310   4.105
 9416TIP3    H228213   5.132   6.389   3.978
 9417TIP3   OH228214   3.192   2.484   3.631
 9417TIP3    H128215   3.212   2.543   3.558
 9417TIP3    H228216   3.184   2.541   3.707
 9418TIP3   OH228217   0.734   6.046   2.746
 9418TIP3    H128218   0.729   6.052   2.841
 9418TIP3    H228219   0.689   5.964   2.725
 9419TIP3   OH228220   6.879   3.208   4.145
 9419TIP3    H128221   6.877   3.272   4.216
 9419TIP3    H228222   6.795   3.163   4.152
 9420TIP3   OH228223   7.201   2.938   1.312
 9420TIP3    H128224   7.178   3.023   1.274
 9420TIP3    H228225   7.144   2.930   1.389
 9421TIP3   OH228226   1.777   3.484   1.306
 9421TIP3    H128227   1.723   3.410   1.335
 9421TIP3    H228228   1.859   3.473   1.353
 9422TIP3   OH228229   6.308   1.776   3.106
 9422TIP3    H128230   6.214   1.796   3.107
 9422TIP3    H228231   6.349   1.850   3.150
 9423TIP3   OH228232   0.040   4.933   2.832
 9423TIP3    H128233   0.077   4.956   2.747
 9423TIP3    H228234  -0.029   4.870   2.812
 9424TIP3   OH228235   4.844   2.577   4.670
 9424TIP3    H128236   4.776   2.515   4.644
 9424TIP3    H228237   4.844   2.643   4.601
 9425TIP3   OH228238   4.322   4.148   0.179
 9425TIP3    H128239   4.386   4.218   0.164
 9425TIP3    H228240   4.249   4.170   0.120
 9426TIP3   OH228241   0.638   2.326   4.212
 9426TIP3    H128242   0.553   2.294   4.243
 9426TIP3    H228243   0.616   2.404   4.160
 9427TIP3   OH228244   6.177   3.548   2.238
 9427TIP3    H128245   6.149   3.623   2.291
 9427TIP3    H228246   6.272   3.553   2.238
 9428TIP3   OH228247   2.833   6.542   1.855
 9428TIP3    H128248   2.785   6.579   1.781
 9428TIP3    H228249   2.924   6.570   1.840
 9429TIP3   OH228250   6.390   3.326   2.350
 9429TIP3    H128251   6.400   3.316   2.445
 9429TIP3    H228252   6.472   3.368   2.322
 9430TIP3   OH228253   4.648   0.253   4.075
 9430TIP3    H128254   4.608   0.206   4.149
 9430TIP3    H228255   4.661   0.342   4.107
 9431TIP3   OH228256   6.520   0.083   0.652
 9431TIP3    H128257   6.606   0.109   0.620
 9431TIP3    H228258   6.531   0.075   0.747
 9432TIP3   OH228259   6.593   3.610   0.572
 9432TIP3    H128260   6.611   3.608   0.666
 9432TIP3    H228261   6.547   3.693   0.558
 9433TIP3   OH228262   6.298   0.692   1.512
 9433TIP3    H128263   6.297   0.670   1.606
 9433TIP3    H228264   6.302   0.788   1.510
 9434TIP3   OH228265   6.595   5.908   5.273
 9434TIP3    H128266   6.690   5.912   5.268
 9434TIP3    H228267   6.575   5.816   5.290
 9435TIP3   OH228268   1.953   3.346   4.381
 9435TIP3    H128269   1.956   3.281   4.450
 9435TIP3    H228270   1.906   3.303   4.309
 9436TIP3   OH228271   2.988   2.961   3.387
 9436TIP3    H128272   3.065   3.011   3.361
 9436TIP3    H228273   3.000   2.875   3.347
 9437TIP3   OH228274   2.624   3.275   0.984
 9437TIP3    H128275   2.646   3.306   1.072
 9437TIP3    H228276   2.631   3.353   0.929
 9438TIP3   OH228277   2.148   6.212   4.259
 9438TIP3    H128278   2.126   6.144   4.196
 9438TIP3    H228279   2.173   6.287   4.205
 9439TIP3   OH228280   1.656   2.767   0.343
 9439TIP3    H128281   1.726   2.829   0.362
 9439TIP3    H228282   1.608   2.807   0.270
 9440TIP3   OH228283   1.625   5.864   2.527
 9440TIP3    H128284   1.694   5.931   2.521
 9440TIP3    H228285   1.581   5.882   2.609
 9441TIP3   OH228286   1.125   0.423   5.656
 9441TIP3    H128287   1.200   0.483   5.654
 9441TIP3    H228288   1.156   0.345   5.610
 9442TIP3   OH228289   4.114   2.050   5.701
 9442TIP3    H128290   4.183   1.988   5.725
 9442TIP3    H228291   4.057   2.052   5.777
 9443TIP3   OH228292   3.814   4.363   1.279
 9443TIP3    H128293   3.789   4.418   1.352
 9443TIP3    H228294   3.773   4.278   1.298
 9444TIP3   OH228295   6.494   2.140   0.619
 9444TIP3    H128296   6.565   2.107   0.564
 9444TIP3    H228297   6.490   2.079   0.693
 9445TIP3   OH228298   6.416   0.224   1.349
 9445TIP3    H128299   6.436   0.316   1.366
 9445TIP3    H228300   6.407   0.185   1.436
 9446TIP3   OH228301   5.673   1.108   3.392
 9446TIP3    H128302   5.718   1.163   3.456
 9446TIP3    H228303   5.586   1.148   3.383
 9447TIP3   OH228304   3.363   5.866   3.244
 9447TIP3    H128305   3.289   5.835   3.296
 9447TIP3    H228306   3.440   5.828   3.286
 9448TIP3   OH228307   6.806   2.934   2.682
 9448TIP3    H128308   6.793   2.962   2.592
 9448TIP3    H228309   6.885   2.981   2.711
 9449TIP3   OH228310   2.463   0.815   5.132
 9449TIP3    H128311   2.542   0.835   5.081
 9449TIP3    H228312   2.413   0.756   5.075
 9450TIP3   OH228313   4.772   5.844   5.137
 9450TIP3    H128314   4.677   5.850   5.132
 9450TIP3    H228315   4.792   5.752   5.117
 9451TIP3   OH228316   3.734   6.450   2.989
 9451TIP3    H128317   3.664   6.505   3.024
 9451TIP3    H228318   3.796   6.512   2.951
 9452TIP3   OH228319   2.544   3.288   0.058
 9452TIP3    H128320   2.516   3.344  -0.015
 9452TIP3    H228321   2.503   3.328   0.135
 9453TIP3   OH228322   3.146   1.603   3.354
 9453TIP3    H128323   3.221   1.556   3.318
 9453TIP3    H228324   3.100   1.539   3.408
 9454TIP3   OH228325   4.148   6.707   4.485
 9454TIP3    H128326   4.115   6.618   4.481
 9454TIP3    H228327   4.189   6.721   4.399
 9455TIP3   OH228328   0.308   1.919   5.544
 9455TIP3    H128329   0.299   1.940   5.451
 9455TIP3    H228330   0.353   1.994   5.582
 9456TIP3   OH228331   5.291   5.250   0.398
 9456TIP3    H128332   5.333   5.335   0.412
 9456TIP3    H228333   5.240   5.235   0.477
 9457TIP3   OH228334   1.749   1.031   3.202
 9457TIP3    H128335   1.724   0.971   3.272
 9457TIP3    H228336   1.712   1.115   3.228
 9458TIP3   OH228337   4.104   2.668   0.023
 9458TIP3    H128338   4.046   2.707   0.089
 9458TIP3    H228339   4.062   2.586  -0.001
 9459TIP3   OH228340   3.548   2.895   4.642
 9459TIP3    H128341   3.571   2.812   4.600
 9459TIP3    H228342   3.504   2.870   4.723
 9460TIP3   OH228343   2.665   5.369   3.653
 9460TIP3    H128344   2.696   5.399   3.739
 9460TIP3    H228345   2.605   5.438   3.624
 9461TIP3   OH228346   2.547   1.268   4.764
 9461TIP3    H128347   2.567   1.341   4.705
 9461TIP3    H228348   2.615   1.272   4.831
 9462TIP3   OH228349   5.075   0.439   0.869
 9462TIP3    H128350   4.997   0.390   0.842
 9462TIP3    H228351   5.084   0.509   0.804
 9463TIP3   OH228352   0.999   1.542   3.298
 9463TIP3    H128353   0.970   1.521   3.387
 9463TIP3    H228354   0.919   1.572   3.254
 9464TIP3   OH228355   2.183   0.053   1.839
 9464TIP3    H128356   2.255  -0.001   1.872
 9464TIP3    H228357   2.217   0.142   1.840
 9465TIP3   OH228358   5.875   1.902   2.654
 9465TIP3    H128359   5.797   1.937   2.613
 9465TIP3    H228360   5.940   1.972   2.648
 9466TIP3   OH228361   2.420   5.329   0.899
 9466TIP3    H128362   2.372   5.261   0.947
 9466TIP3    H228363   2.366   5.347   0.822
 9467TIP3   OH228364   6.392   1.697   4.835
 9467TIP3    H128365   6.433   1.622   4.879
 9467TIP3    H228366   6.314   1.716   4.887
 9468TIP3   OH228367   5.722   1.428   2.699
 9468TIP3    H128368   5.639   1.465   2.671
 9468TIP3    H228369   5.787   1.496   2.679
 9469TIP3   OH228370   2.858   1.729   1.642
 9469TIP3    H128371   2.865   1.686   1.728
 9469TIP3    H228372   2.932   1.790   1.641
 9470TIP3   OH228373   4.832   5.359   0.959
 9470TIP3    H128374   4.803   5.284   0.907
 9470TIP3    H228375   4.773   5.430   0.933
 9471TIP3   OH228376   1.231   1.803   3.494
 9471TIP3    H128377   1.308   1.851   3.523
 9471TIP3    H228378   1.193   1.858   3.425
 9472TIP3   OH228379   1.556   4.464   1.666
 9472TIP3    H128380   1.515   4.515   1.595
 9472TIP3    H228381   1.485   4.409   1.699
 9473TIP3   OH228382   5.748   3.518   4.258
 9473TIP3    H128383   5.756   3.480   4.345
 9473TIP3    H228384   5.654   3.524   4.243
 9474TIP3   OH228385   0.820   4.732   0.834
 9474TIP3    H128386   0.801   4.721   0.927
 9474TIP3    H228387   0.766   4.665   0.791
 9475TIP3   OH228388   6.483   6.352   3.276
 9475TIP3    H128389   6.493   6.301   3.357
 9475TIP3    H228390   6.511   6.292   3.207
 9476TIP3   OH228391   3.181   5.867   0.594
 9476TIP3    H128392   3.233   5.947   0.587
 9476TIP3    H228393   3.191   5.840   0.685
 9477TIP3   OH228394   3.540   3.041   3.759
 9477TIP3    H128395   3.589   2.970   3.799
 9477TIP3    H228396   3.526   3.104   3.831
 9478TIP3   OH228397   1.691   2.625   3.285
 9478TIP3    H128398   1.685   2.569   3.209
 9478TIP3    H228399   1.732   2.571   3.352
 9479TIP3   OH228400   5.495   3.720   5.182
 9479TIP3    H128401   5.576   3.758   5.149
 9479TIP3    H228402   5.426   3.779   5.150
 9480TIP3   OH228403   6.535   6.542   2.643
 9480TIP3    H128404   6.487   6.492   2.709
 9480TIP3    H228405   6.532   6.633   2.674
 9481TIP3   OH228406   6.035   6.769   1.766
 9481TIP3    H128407   5.980   6.696   1.795
 9481TIP3    H228408   6.124   6.742   1.786
 9482TIP3   OH228409   2.339   6.331   4.464
 9482TIP3    H128410   2.336   6.295   4.375
 9482TIP3    H228411   2.299   6.417   4.457
 9483TIP3   OH228412   5.853   5.308   4.782
 9483TIP3    H128413   5.760   5.294   4.765
 9483TIP3    H228414   5.892   5.313   4.695
 9484TIP3   OH228415   3.515   1.597   1.263
 9484TIP3    H128416   3.503   1.624   1.355
 9484TIP3    H228417   3.527   1.503   1.267
 9485TIP3   OH228418   2.786   3.289   4.120
 9485TIP3    H128419   2.774   3.254   4.208
 9485TIP3    H228420   2.740   3.373   4.121
 9486TIP3   OH228421   3.058   4.365   1.799
 9486TIP3    H128422   3.088   4.429   1.734
 9486TIP3    H228423   2.977   4.330   1.762
 9487TIP3   OH228424   5.930   1.534   1.995
 9487TIP3    H128425   5.862   1.601   1.989
 9487TIP3    H228426   5.885   1.456   2.026
 9488TIP3   OH228427   4.676   0.930   1.563
 9488TIP3    H128428   4.742   0.957   1.499
 9488TIP3    H228429   4.675   1.000   1.628
 9489TIP3   OH228430   6.345   0.721   0.594
 9489TIP3    H128431   6.292   0.801   0.588
 9489TIP3    H228432   6.283   0.651   0.574
 9490TIP3   OH228433   5.520   5.146   1.609
 9490TIP3    H128434   5.429   5.115   1.612
 9490TIP3    H228435   5.560   5.110   1.688
 9491TIP3   OH228436   5.909   6.694   3.342
 9491TIP3    H128437   5.974   6.625   3.326
 9491TIP3    H228438   5.870   6.670   3.426
 9492TIP3   OH228439   5.513   3.640   1.538
 9492TIP3    H128440   5.500   3.555   1.498
 9492TIP3    H228441   5.551   3.694   1.469
 9493TIP3   OH228442   3.650   2.315   4.879
 9493TIP3    H128443   3.584   2.355   4.935
 9493TIP3    H228444   3.709   2.270   4.940
 9494TIP3   OH228445   3.265   0.807   1.361
 9494TIP3    H128446   3.264   0.884   1.303
 9494TIP3    H228447   3.325   0.746   1.320
 9495TIP3   OH228448   3.976   6.757   5.804
 9495TIP3    H128449   4.050   6.818   5.800
 9495TIP3    H228450   3.981   6.719   5.892
 9496TIP3   OH228451   4.228   0.469   2.560
 9496TIP3    H128452   4.289   0.515   2.618
 9496TIP3    H228453   4.142   0.501   2.586
 9497TIP3   OH228454   6.980   1.572   1.072
 9497TIP3    H128455   7.051   1.624   1.034
 9497TIP3    H228456   7.024   1.500   1.116
 9498TIP3   OH228457   4.031   6.081   0.627
 9498TIP3    H128458   4.041   6.078   0.532
 9498TIP3    H228459   4.108   6.034   0.660
 9499TIP3   OH228460   6.429   2.296   2.437
 9499TIP3    H128461   6.497   2.250   2.487
 9499TIP3    H228462   6.419   2.380   2.481
 9500TIP3   OH228463   3.598   6.391   4.922
 9500TIP3    H128464   3.599   6.478   4.963
 9500TIP3    H228465   3.676   6.389   4.867
 9501TIP3   OH228466   5.723   5.923   3.319
 9501TIP3    H128467   5.682   5.898   3.236
 9501TIP3    H228468   5.810   5.956   3.295
 9502TIP3   OH228469   0.708   2.733   0.279
 9502TIP3    H128470   0.729   2.772   0.364
 9502TIP3    H228471   0.613   2.744   0.271
 9503TIP3   OH228472   5.437   0.247   5.439
 9503TIP3    H128473   5.465   0.325   5.486
 9503TIP3    H228474   5.424   0.277   5.349
 9504TIP3   OH228475   4.662   5.902   0.392
 9504TIP3    H128476   4.579   5.879   0.350
 9504TIP3    H228477   4.725   5.839   0.357
 9505TIP3   OH228478   3.135   2.570   1.598
 9505TIP3    H128479   3.184   2.541   1.675
 9505TIP3    H228480   3.137   2.496   1.538
 9506TIP3   OH228481   2.760   4.711   3.410
 9506TIP3    H128482   2.839   4.719   3.357
 9506TIP3    H228483   2.706   4.648   3.363
 9507TIP3   OH228484   3.167   5.409   4.846
 9507TIP3    H128485   3.089   5.451   4.882
 9507TIP3    H228486   3.136   5.325   4.812
 9508TIP3   OH228487   5.002   3.703   1.994
 9508TIP3    H128488   5.068   3.765   1.964
 9508TIP3    H228489   5.025   3.687   2.086
 9509TIP3   OH228490   0.880   3.387   0.018
 9509TIP3    H128491   0.788   3.385  -0.008
 9509TIP3    H228492   0.897   3.300   0.055
 9510TIP3   OH228493   1.099   0.926   0.090
 9510TIP3    H128494   1.094   0.846   0.037
 9510TIP3    H228495   1.168   0.978   0.048
 9511TIP3   OH228496   1.978   5.968   3.081
 9511TIP3    H128497   2.030   6.037   3.123
 9511TIP3    H228498   2.017   5.886   3.113
 9512TIP3   OH228499   3.604   4.253   1.767
 9512TIP3    H128500   3.658   4.309   1.711
 9512TIP3    H228501   3.572   4.185   1.709
 9513TIP3   OH228502   7.113   6.262   5.710
 9513TIP3    H128503   7.047   6.255   5.778
 9513TIP3    H228504   7.110   6.178   5.664
 9514TIP3   OH228505   5.050   6.593   5.267
 9514TIP3    H128506   5.027   6.513   5.315
 9514TIP3    H228507   5.144   6.603   5.282
 9515TIP3   OH228508   3.381   1.363   2.383
 9515TIP3    H128509   3.410   1.440   2.432
 9515TIP3    H228510   3.333   1.310   2.447
 9516TIP3   OH228511   5.321   5.424   3.133
 9516TIP3    H128512   5.272   5.415   3.051
 9516TIP3    H228513   5.263   5.388   3.200
 9517TIP3   OH228514   5.636   3.067   0.753
 9517TIP3    H128515   5.724   3.095   0.779
 9517TIP3    H228516   5.583   3.147   0.758
 9518TIP3   OH228517   6.071   2.481   3.929
 9518TIP3    H128518   6.085   2.388   3.909
 9518TIP3    H228519   6.089   2.526   3.846
 9519TIP3   OH228520   6.763   4.257   5.144
 9519TIP3    H128521   6.796   4.299   5.064
 9519TIP3    H228522   6.681   4.216   5.117
 9520TIP3   OH228523   6.360   0.996   0.386
 9520TIP3    H128524   6.285   0.940   0.368
 9520TIP3    H228525   6.404   1.007   0.301
 9521TIP3   OH228526   4.252   1.822   5.825
 9521TIP3    H128527   4.187   1.833   5.894
 9521TIP3    H228528   4.234   1.735   5.789
 9522TIP3   OH228529   2.776   2.323   1.940
 9522TIP3    H128530   2.821   2.405   1.959
 9522TIP3    H228531   2.731   2.339   1.857
 9523TIP3   OH228532   3.033   0.949   3.068
 9523TIP3    H128533   2.973   0.875   3.074
 9523TIP3    H228534   3.029   0.991   3.154
 9524TIP3   OH228535   0.294   1.455   1.219
 9524TIP3    H128536   0.365   1.463   1.156
 9524TIP3    H228537   0.320   1.384   1.278
 9525TIP3   OH228538   2.198   5.966   1.990
 9525TIP3    H128539   2.256   5.894   1.967
 9525TIP3    H228540   2.254   6.029   2.035
 9526TIP3   OH228541   1.391   2.500   2.806
 9526TIP3    H128542   1.466   2.440   2.798
 9526TIP3    H228543   1.431   2.586   2.817
 9527TIP3   OH228544   7.052   4.734   2.775
 9527TIP3    H128545   7.116   4.688   2.829
 9527TIP3    H228546   6.993   4.665   2.745
 9528TIP3   OH228547   0.733   0.873   4.010
 9528TIP3    H128548   0.694   0.951   4.050
 9528TIP3    H228549   0.719   0.804   4.075
 9529TIP3   OH228550   3.717   6.662   1.045
 9529TIP3    H128551   3.794   6.604   1.046
 9529TIP3    H228552   3.691   6.664   0.953
 9530TIP3   OH228553   4.288   3.651   4.355
 9530TIP3    H128554   4.249   3.676   4.439
 9530TIP3    H228555   4.266   3.723   4.296
 9531TIP3   OH228556   6.560   3.849   3.776
 9531TIP3    H128557   6.474   3.819   3.804
 9531TIP3    H228558   6.563   3.830   3.682
 9532TIP3   OH228559   0.634   6.003   5.800
 9532TIP3    H128560   0.542   6.024   5.786
 9532TIP3    H228561   0.666   6.072   5.857
 9533TIP3   OH228562   2.948   5.625   4.965
 9533TIP3    H128563   2.869   5.579   4.939
 9533TIP3    H228564   2.958   5.695   4.900
 9534TIP3   OH228565   1.272   0.455   2.650
 9534TIP3    H128566   1.192   0.428   2.695
 9534TIP3    H228567   1.285   0.546   2.678
 9535TIP3   OH228568   2.797   4.258   1.006
 9535TIP3    H128569   2.717   4.290   0.964
 9535TIP3    H228570   2.868   4.299   0.956
 9536TIP3   OH228571   4.496   2.316   4.408
 9536TIP3    H128572   4.518   2.303   4.501
 9536TIP3    H228573   4.483   2.410   4.400
 9537TIP3   OH228574   1.741   1.909   2.315
 9537TIP3    H128575   1.703   1.880   2.398
 9537TIP3    H228576   1.741   1.832   2.259
 9538TIP3   OH228577   6.060   5.244   1.109
 9538TIP3    H128578   6.114   5.198   1.173
 9538TIP3    H228579   6.083   5.204   1.025
 9539TIP3   OH228580   0.512   3.549   4.194
 9539TIP3    H128581   0.544   3.636   4.217
 9539TIP3    H228582   0.527   3.496   4.272
 9540TIP3   OH228583   6.333   0.823   5.067
 9540TIP3    H128584   6.367   0.876   4.995
 9540TIP3    H228585   6.408   0.810   5.125
 9541TIP3   OH228586   4.708   4.932   2.546
 9541TIP3    H128587   4.688   4.911   2.637
 9541TIP3    H228588   4.639   4.992   2.519
 9542TIP3   OH228589   2.139   2.709   5.300
 9542TIP3    H128590   2.191   2.654   5.359
 9542TIP3    H228591   2.126   2.655   5.222
 9543TIP3   OH228592   6.855   5.955   1.684
 9543TIP3    H128593   6.802   6.021   1.638
 9543TIP3    H228594   6.841   5.975   1.777
 9544TIP3   OH228595   5.420   4.705   1.514
 9544TIP3    H128596   5.467   4.624   1.495
 9544TIP3    H228597   5.352   4.679   1.577
 9545TIP3   OH228598   3.621   1.483   0.774
 9545TIP3    H128599   3.622   1.571   0.812
 9545TIP3    H228600   3.670   1.429   0.836
 9546TIP3   OH228601   2.900   5.856   0.325
 9546TIP3    H128602   2.990   5.887   0.314
 9546TIP3    H228603   2.873   5.829   0.237
 9547TIP3   OH228604   2.571   2.774   3.935
 9547TIP3    H128605   2.579   2.767   3.839
 9547TIP3    H228606   2.543   2.687   3.963
 9548TIP3   OH228607   4.785   3.870   3.338
 9548TIP3    H128608   4.848   3.842   3.272
 9548TIP3    H228609   4.828   3.851   3.422
 9549TIP3   OH228610   1.319   3.528   0.796
 9549TIP3    H128611   1.281   3.449   0.759
 9549TIP3    H228612   1.244   3.586   0.810
 9550TIP3   OH228613   2.736   3.102   0.063
 9550TIP3    H128614   2.666   3.167   0.060
 9550TIP3    H228615   2.698   3.023   0.023
 9551TIP3   OH228616   0.542   0.572   1.907
 9551TIP3    H128617   0.531   0.667   1.903
 9551TIP3    H228618   0.486   0.545   1.980
 9552TIP3   OH228619   4.761   0.383   3.664
 9552TIP3    H128620   4.827   0.390   3.594
 9552TIP3    H228621   4.812   0.390   3.745
 9553TIP3   OH228622   4.883   6.490   4.664
 9553TIP3    H128623   4.828   6.485   4.586
 9553TIP3    H228624   4.865   6.577   4.701
 9554TIP3   OH228625   5.891   5.590   0.379
 9554TIP3    H128626   5.934   5.597   0.464
 9554TIP3    H228627   5.936   5.519   0.334
 9555TIP3   OH228628   5.746   0.378   3.135
 9555TIP3    H128629   5.745   0.420   3.221
 9555TIP3    H228630   5.654   0.360   3.116
 9556TIP3   OH228631   1.707   5.276   5.487
 9556TIP3    H128632   1.785   5.236   5.448
 9556TIP3    H228633   1.675   5.210   5.549
 9557TIP3   OH228634   1.873   6.720   3.467
 9557TIP3    H128635   1.850   6.759   3.383
 9557TIP3    H228636   1.891   6.628   3.447
 9558TIP3   OH228637   3.884   0.290   0.965
 9558TIP3    H128638   3.792   0.283   0.990
 9558TIP3    H228639   3.882   0.290   0.869
 9559TIP3   OH228640   5.100   6.057   0.762
 9559TIP3    H128641   5.195   6.061   0.757
 9559TIP3    H228642   5.071   6.144   0.733
 9560TIP3   OH228643   5.891   5.672   2.065
 9560TIP3    H128644   5.952   5.599   2.071
 9560TIP3    H228645   5.886   5.706   2.155
 9561TIP3   OH228646   6.281   1.742   4.394
 9561TIP3    H128647   6.227   1.768   4.469
 9561TIP3    H228648   6.307   1.825   4.354
 9562TIP3   OH228649   1.608   0.284   0.763
 9562TIP3    H128650   1.665   0.348   0.805
 9562TIP3    H228651   1.566   0.332   0.691
 9563TIP3   OH228652   4.519   4.923   1.546
 9563TIP3    H128653   4.468   4.941   1.467
 9563TIP3    H228654   4.485   4.839   1.578
 9564TIP3   OH228655   5.335   0.529   4.763
 9564TIP3    H128656   5.260   0.480   4.729
 9564TIP3    H228657   5.332   0.612   4.716
 9565TIP3   OH228658   0.446   6.479   3.398
 9565TIP3    H128659   0.384   6.411   3.425
 9565TIP3    H228660   0.428   6.553   3.457
 9566TIP3   OH228661   0.821   3.580   5.201
 9566TIP3    H128662   0.760   3.635   5.251
 9566TIP3    H228663   0.810   3.609   5.111
 9567TIP3   OH228664   6.160   3.382   0.873
 9567TIP3    H128665   6.115   3.426   0.801
 9567TIP3    H228666   6.156   3.444   0.946
 9568TIP3   OH228667   5.197   1.944   3.073
 9568TIP3    H128668   5.229   1.857   3.047
 9568TIP3    H228669   5.103   1.941   3.054
 9569TIP3   OH228670   0.533   1.381   3.901
 9569TIP3    H128671   0.546   1.473   3.926
 9569TIP3    H228672   0.479   1.345   3.970
 9570TIP3   OH228673   0.332   5.209   4.060
 9570TIP3    H128674   0.300   5.246   3.978
 9570TIP3    H228675   0.393   5.275   4.093
 9571TIP3   OH228676   6.766   4.719   1.679
 9571TIP3    H128677   6.810   4.793   1.721
 9571TIP3    H228678   6.673   4.739   1.688
 9572TIP3   OH228679   6.400   3.544   0.787
 9572TIP3    H128680   6.310   3.566   0.810
 9572TIP3    H228681   6.393   3.458   0.744
 9573TIP3   OH228682   7.007   0.314   3.982
 9573TIP3    H128683   7.041   0.342   3.897
 9573TIP3    H228684   6.954   0.236   3.962
 9574TIP3   OH228685   5.673   4.734   2.083
 9574TIP3    H128686   5.646   4.769   2.167
 9574TIP3    H228687   5.608   4.667   2.061
 9575TIP3   OH228688   4.486   3.284   2.202
 9575TIP3    H128689   4.562   3.330   2.238
 9575TIP3    H228690   4.518   3.244   2.121
 9576TIP3   OH228691   3.565   0.557   5.887
 9576TIP3    H128692   3.573   0.570   5.982
 9576TIP3    H228693   3.599   0.469   5.872
 9577TIP3   OH228694   3.288   2.054   3.206
 9577TIP3    H128695   3.377   2.080   3.186
 9577TIP3    H228696   3.295   1.962   3.232
 9578TIP3   OH228697   5.746   1.884   0.024
 9578TIP3    H128698   5.683   1.956   0.023
 9578TIP3    H228699   5.828   1.924  -0.005
 9579TIP3   OH228700   5.065   5.606   0.422
 9579TIP3    H128701   5.032   5.607   0.512
 9579TIP3    H228702   4.987   5.595   0.368
 9580TIP3   OH228703   3.400   3.789   5.032
 9580TIP3    H128704   3.476   3.817   5.084
 9580TIP3    H228705   3.404   3.694   5.032
 9581TIP3   OH228706   2.647   6.601   2.291
 9581TIP3    H128707   2.733   6.621   2.252
 9581TIP3    H228708   2.632   6.672   2.353
 9582TIP3   OH228709   4.251   2.516   4.666
 9582TIP3    H128710   4.265   2.425   4.642
 9582TIP3    H228711   4.171   2.542   4.619
 9583TIP3   OH228712   4.153   1.448   5.305
 9583TIP3    H128713   4.114   1.445   5.218
 9583TIP3    H228714   4.099   1.510   5.354
 9584TIP3   OH228715   0.768   0.964   5.478
 9584TIP3    H128716   0.818   1.013   5.543
 9584TIP3    H228717   0.688   0.938   5.523
 9585TIP3   OH228718   5.374   6.420   2.597
 9585TIP3    H128719   5.469   6.425   2.607
 9585TIP3    H228720   5.356   6.326   2.589
 9586TIP3   OH228721   6.097   6.326   5.517
 9586TIP3    H128722   6.031   6.383   5.480
 9586TIP3    H228723   6.068   6.310   5.607
 9587TIP3   OH228724   1.642   2.563   0.518
 9587TIP3    H128725   1.662   2.600   0.604
 9587TIP3    H228726   1.610   2.636   0.466
 9588TIP3   OH228727   3.341   1.305   0.482
 9588TIP3    H128728   3.426   1.277   0.517
 9588TIP3    H228729   3.362   1.341   0.396
 9589TIP3   OH228730   1.117   1.847   0.710
 9589TIP3    H128731   1.169   1.881   0.783
 9589TIP3    H228732   1.029   1.838   0.746
 9590TIP3   OH228733   3.161   4.679   2.441
 9590TIP3    H128734   3.102   4.651   2.371
 9590TIP3    H228735   3.109   4.739   2.494
 9591TIP3   OH228736   0.407   1.144   4.236
 9591TIP3    H128737   0.322   1.125   4.196
 9591TIP3    H228738   0.408   1.092   4.316
 9592TIP3   OH228739   4.084   6.544   2.612
 9592TIP3    H128740   4.065   6.466   2.559
 9592TIP3    H228741   4.110   6.611   2.549
 9593TIP3   OH228742   4.848   0.043   5.686
 9593TIP3    H128743   4.833  -0.045   5.719
 9593TIP3    H228744   4.842   0.099   5.763
 9594TIP3   OH228745   7.079   0.578   1.236
 9594TIP3    H128746   7.131   0.534   1.303
 9594TIP3    H228747   7.059   0.509   1.172
 9595TIP3   OH228748   6.645   0.808   5.529
 9595TIP3    H128749   6.659   0.771   5.616
 9595TIP3    H228750   6.733   0.809   5.490
 9596TIP3   OH228751   5.659   2.699   1.421
 9596TIP3    H128752   5.749   2.731   1.420
 9596TIP3    H228753   5.666   2.607   1.394
 9597TIP3   OH228754   1.556   2.287   1.215
 9597TIP3    H128755   1.613   2.307   1.289
 9597TIP3    H228756   1.610   2.305   1.138
 9598TIP3   OH228757   6.868   4.124   0.862
 9598TIP3    H128758   6.850   4.218   0.860
 9598TIP3    H228759   6.958   4.116   0.831
 9599TIP3   OH228760   0.249   2.576   0.109
 9599TIP3    H128761   0.329   2.531   0.082
 9599TIP3    H228762   0.274   2.668   0.116
 9600TIP3   OH228763   2.319   6.208   4.971
 9600TIP3    H128764   2.253   6.221   5.040
 9600TIP3    H228765   2.402   6.231   5.012
 9601TIP3   OH228766   0.046   3.678   2.459
 9601TIP3    H128767   0.018   3.593   2.425
 9601TIP3    H228768   0.040   3.737   2.384
 9602TIP3   OH228769   5.726   3.383   1.664
 9602TIP3    H128770   5.638   3.397   1.630
 9602TIP3    H228771   5.745   3.291   1.646
 9603TIP3   OH228772   2.635   6.550   2.964
 9603TIP3    H128773   2.628   6.498   3.044
 9603TIP3    H228774   2.638   6.641   2.994
 9604TIP3   OH228775   3.959   2.152   4.534
 9604TIP3    H128776   3.911   2.171   4.454
 9604TIP3    H228777   3.954   2.056   4.543
 9605TIP3   OH228778   4.343   0.978   5.281
 9605TIP3    H128779   4.282   0.923   5.232
 9605TIP3    H228780   4.318   1.068   5.259
 9606TIP3   OH228781   6.943   5.003   4.543
 9606TIP3    H128782   6.900   4.923   4.570
 9606TIP3    H228783   6.900   5.072   4.593
 9607TIP3   OH228784   6.416   1.337   0.193
 9607TIP3    H128785   6.338   1.311   0.144
 9607TIP3    H228786   6.472   1.379   0.128
 9608TIP3   OH228787   2.093   4.396   5.569
 9608TIP3    H128788   2.040   4.381   5.647
 9608TIP3    H228789   2.029   4.413   5.500
 9609TIP3   OH228790   4.206   4.160   5.402
 9609TIP3    H128791   4.116   4.132   5.421
 9609TIP3    H228792   4.197   4.252   5.376
 9610TIP3   OH228793   6.112   3.823   3.830
 9610TIP3    H128794   6.081   3.741   3.792
 9610TIP3    H228795   6.199   3.802   3.864
 9611TIP3   OH228796   5.423   2.006   4.227
 9611TIP3    H128797   5.429   1.947   4.303
 9611TIP3    H228798   5.368   1.959   4.165
 9612TIP3   OH228799   4.866   4.646   2.349
 9612TIP3    H128800   4.813   4.726   2.346
 9612TIP3    H228801   4.892   4.632   2.258
 9613TIP3   OH228802   5.533   5.401   0.548
 9613TIP3    H128803   5.607   5.380   0.492
 9613TIP3    H228804   5.475   5.453   0.492
 9614TIP3   OH228805   1.682   3.911   2.802
 9614TIP3    H128806   1.667   4.004   2.820
 9614TIP3    H228807   1.715   3.875   2.884
 9615TIP3   OH228808   2.791   1.143   1.200
 9615TIP3    H128809   2.723   1.083   1.232
 9615TIP3    H228810   2.748   1.195   1.133
 9616TIP3   OH228811   5.222   2.441   2.149
 9616TIP3    H128812   5.165   2.477   2.081
 9616TIP3    H228813   5.283   2.384   2.103
 9617TIP3   OH228814   3.502   0.418   0.583
 9617TIP3    H128815   3.470   0.328   0.578
 9617TIP3    H228816   3.498   0.450   0.493
 9618TIP3   OH228817   5.625   2.427   5.628
 9618TIP3    H128818   5.703   2.392   5.672
 9618TIP3    H228819   5.592   2.354   5.576
 9619TIP3   OH228820   4.837   1.547   2.271
 9619TIP3    H128821   4.786   1.628   2.266
 9619TIP3    H228822   4.899   1.553   2.199
 9620TIP3   OH228823   4.452   5.475   5.068
 9620TIP3    H128824   4.479   5.384   5.055
 9620TIP3    H228825   4.462   5.489   5.162
 9621TIP3   OH228826   4.189   6.007   3.941
 9621TIP3    H128827   4.180   5.931   3.884
 9621TIP3    H228828   4.284   6.021   3.948
 9622TIP3   OH228829   0.455   4.355   2.961
 9622TIP3    H128830   0.476   4.322   3.048
 9622TIP3    H228831   0.461   4.278   2.904
 9623TIP3   OH228832   0.260   1.288   3.477
 9623TIP3    H128833   0.352   1.261   3.478
 9623TIP3    H228834   0.243   1.314   3.387
 9624TIP3   OH228835   5.353   3.036   4.714
 9624TIP3    H128836   5.422   2.975   4.738
 9624TIP3    H228837   5.322   3.005   4.629
 9625TIP3   OH228838   5.722   4.910   3.351
 9625TIP3    H128839   5.770   4.869   3.279
 9625TIP3    H228840   5.726   4.846   3.422
 9626TIP3   OH228841   5.086   5.173   3.902
 9626TIP3    H128842   5.101   5.087   3.864
 9626TIP3    H228843   5.106   5.234   3.831
 9627TIP3   OH228844   3.302   1.154   1.990
 9627TIP3    H128845   3.250   1.195   2.060
 9627TIP3    H228846   3.387   1.138   2.030
 9628TIP3   OH228847   1.834   4.814   3.735
 9628TIP3    H128848   1.877   4.894   3.766
 9628TIP3    H228849   1.900   4.746   3.743
 9629TIP3   OH228850   3.587   3.604   0.007
 9629TIP3    H128851   3.631   3.606   0.092
 9629TIP3    H228852   3.502   3.646   0.024
 9630TIP3   OH228853   0.203   4.571   1.438
 9630TIP3    H128854   0.117   4.532   1.423
 9630TIP3    H228855   0.193   4.662   1.410
 9631TIP3   OH228856   5.848   2.586   1.118
 9631TIP3    H128857   5.903   2.559   1.044
 9631TIP3    H228858   5.827   2.678   1.100
 9632TIP3   OH228859   3.699   6.031   2.875
 9632TIP3    H128860   3.790   6.052   2.853
 9632TIP3    H228861   3.681   5.950   2.826
 9633TIP3   OH228862   0.050   5.430   3.407
 9633TIP3    H128863   0.045   5.516   3.447
 9633TIP3    H228864   0.142   5.421   3.381
 9634TIP3   OH228865   3.450   1.156   0.216
 9634TIP3    H128866   3.541   1.184   0.219
 9634TIP3    H228867   3.401   1.234   0.189
 9635TIP3   OH228868   4.489   1.021   5.846
 9635TIP3    H128869   4.558   1.065   5.896
 9635TIP3    H228870   4.532   0.994   5.765
 9636TIP3   OH228871   1.488   0.961   5.299
 9636TIP3    H128872   1.401   0.976   5.336
 9636TIP3    H228873   1.485   0.870   5.267
 9637TIP3   OH228874   0.535   6.642   4.161
 9637TIP3    H128875   0.558   6.607   4.075
 9637TIP3    H228876   0.448   6.680   4.149
 9638TIP3   OH228877   7.140   5.380   5.421
 9638TIP3    H128878   7.144   5.461   5.472
 9638TIP3    H228879   7.081   5.323   5.470
 9639TIP3   OH228880   4.498   2.887   3.580
 9639TIP3    H128881   4.405   2.899   3.561
 9639TIP3    H228882   4.513   2.793   3.572
 9640TIP3   OH228883   0.609   3.933   5.412
 9640TIP3    H128884   0.666   3.893   5.478
 9640TIP3    H228885   0.590   3.862   5.351
 9641TIP3   OH228886   1.691   1.272   3.838
 9641TIP3    H128887   1.757   1.310   3.781
 9641TIP3    H228888   1.633   1.345   3.860
 9642TIP3   OH228889   1.355   2.983   1.792
 9642TIP3    H128890   1.412   2.941   1.727
 9642TIP3    H228891   1.368   2.931   1.872
 9643TIP3   OH228892   3.385   5.501   3.400
 9643TIP3    H128893   3.376   5.422   3.453
 9643TIP3    H228894   3.439   5.474   3.326
 9644TIP3   OH228895   4.068   1.433   1.712
 9644TIP3    H128896   4.013   1.409   1.786
 9644TIP3    H228897   4.061   1.358   1.652
 9645TIP3   OH228898   5.422   1.532   2.049
 9645TIP3    H128899   5.396   1.567   2.134
 9645TIP3    H228900   5.341   1.501   2.009
 9646TIP3   OH228901   3.355   2.733   5.123
 9646TIP3    H128902   3.264   2.736   5.092
 9646TIP3    H228903   3.354   2.666   5.191
 9647TIP3   OH228904   6.614   5.756   4.291
 9647TIP3    H128905   6.648   5.718   4.210
 9647TIP3    H228906   6.646   5.846   4.291
 9648TIP3   OH228907   2.719   2.797   5.223
 9648TIP3    H128908   2.785   2.820   5.158
 9648TIP3    H228909   2.652   2.866   5.215
 9649TIP3   OH228910   0.567   5.324   1.367
 9649TIP3    H128911   0.633   5.383   1.330
 9649TIP3    H228912   0.496   5.324   1.304
 9650TIP3   OH228913   4.750   5.215   2.703
 9650TIP3    H128914   4.704   5.213   2.619
 9650TIP3    H228915   4.691   5.169   2.764
 9651TIP3   OH228916   2.869   1.924   5.590
 9651TIP3    H128917   2.931   1.889   5.654
 9651TIP3    H228918   2.874   1.863   5.516
 9652TIP3   OH228919   5.737   5.296   0.366
 9652TIP3    H128920   5.761   5.204   0.354
 9652TIP3    H228921   5.818   5.344   0.349
 9653TIP3   OH228922   0.827   6.597   2.028
 9653TIP3    H128923   0.843   6.502   2.025
 9653TIP3    H228924   0.855   6.628   1.942
 9654TIP3   OH228925   1.788   1.428   0.173
 9654TIP3    H128926   1.750   1.341   0.159
 9654TIP3    H228927   1.813   1.428   0.265
 9655TIP3   OH228928   5.765   1.725   4.781
 9655TIP3    H128929   5.784   1.819   4.784
 9655TIP3    H228930   5.670   1.720   4.772
 9656TIP3   OH228931   0.594   3.275   1.722
 9656TIP3    H128932   0.645   3.327   1.784
 9656TIP3    H228933   0.652   3.203   1.698
 9657TIP3   OH228934   2.432   4.704   0.193
 9657TIP3    H128935   2.408   4.770   0.128
 9657TIP3    H228936   2.386   4.731   0.272
 9658TIP3   OH228937   0.085   5.388   2.451
 9658TIP3    H128938   0.120   5.300   2.445
 9658TIP3    H228939   0.017   5.392   2.384
 9659TIP3   OH228940   4.783   0.837   3.637
 9659TIP3    H128941   4.690   0.837   3.618
 9659TIP3    H228942   4.805   0.929   3.651
 9660TIP3   OH228943   5.352   1.840   0.303
 9660TIP3    H128944   5.402   1.816   0.226
 9660TIP3    H228945   5.407   1.905   0.348
 9661TIP3   OH228946   5.809   4.121   3.927
 9661TIP3    H128947   5.841   4.200   3.884
 9661TIP3    H228948   5.767   4.152   4.007
 9662TIP3   OH228949   3.056   2.294   3.046
 9662TIP3    H128950   3.100   2.324   3.126
 9662TIP3    H228951   3.106   2.335   2.975
 9663TIP3   OH228952   4.234   5.891   3.460
 9663TIP3    H128953   4.175   5.913   3.388
 9663TIP3    H228954   4.203   5.807   3.492
 9664TIP3   OH228955   5.642   3.032   3.745
 9664TIP3    H128956   5.701   3.107   3.738
 9664TIP3    H228957   5.649   3.005   3.837
 9665TIP3   OH228958   3.611   5.099   3.075
 9665TIP3    H128959   3.677   5.168   3.078
 9665TIP3    H228960   3.563   5.116   2.994
 9666TIP3   OH228961   5.930   0.458   0.258
 9666TIP3    H128962   6.025   0.457   0.268
 9666TIP3    H228963   5.915   0.426   0.169
 9667TIP3   OH228964   3.130   4.972   0.510
 9667TIP3    H128965   3.103   5.009   0.425
 9667TIP3    H228966   3.198   5.032   0.541
 9668TIP3   OH228967   5.839   5.316   2.361
 9668TIP3    H128968   5.819   5.315   2.267
 9668TIP3    H228969   5.754   5.305   2.404
 9669TIP3   OH228970   6.266   4.806   3.687
 9669TIP3    H128971   6.298   4.890   3.654
 9669TIP3    H228972   6.264   4.817   3.782
 9670TIP3   OH228973   2.177   6.616   5.574
 9670TIP3    H128974   2.170   6.711   5.579
 9670TIP3    H228975   2.112   6.584   5.637
 9671TIP3   OH228976   2.655   6.622   4.234
 9671TIP3    H128977   2.644   6.700   4.180
 9671TIP3    H228978   2.749   6.612   4.245
 9672TIP3   OH228979   1.366   1.395   1.084
 9672TIP3    H128980   1.438   1.338   1.057
 9672TIP3    H228981   1.307   1.397   1.009
 9673TIP3   OH228982   5.975   1.384   4.673
 9673TIP3    H128983   6.036   1.428   4.613
 9673TIP3    H228984   6.024   1.377   4.755
 9674TIP3   OH228985   3.974   1.282   1.269
 9674TIP3    H128986   4.014   1.282   1.182
 9674TIP3    H228987   4.043   1.314   1.327
 9675TIP3   OH228988   7.034   4.428   4.448
 9675TIP3    H128989   7.029   4.523   4.458
 9675TIP3    H228990   6.943   4.401   4.432
 9676TIP3   OH228991   5.329   4.839   0.082
 9676TIP3    H128992   5.306   4.753   0.116
 9676TIP3    H228993   5.333   4.895   0.159
 9677TIP3   OH228994   1.698   4.576   5.272
 9677TIP3    H128995   1.663   4.500   5.226
 9677TIP3    H228996   1.716   4.640   5.203
 9678TIP3   OH228997   3.214   3.190   3.643
 9678TIP3    H128998   3.176   3.144   3.718
 9678TIP3    H228999   3.264   3.261   3.682
 9679TIP3   OH229000   3.049   3.158   1.308
 9679TIP3    H129001   2.979   3.167   1.244
 9679TIP3    H229002   3.090   3.074   1.288
 9680TIP3   OH229003   2.669   2.363   1.632
 9680TIP3    H129004   2.724   2.439   1.611
 9680TIP3    H229005   2.725   2.288   1.611
 9681TIP3   OH229006   5.806   4.163   2.651
 9681TIP3    H129007   5.817   4.070   2.671
 9681TIP3    H229008   5.889   4.202   2.678
 9682TIP3   OH229009   3.871   5.508   3.453
 9682TIP3    H129010   3.798   5.563   3.483
 9682TIP3    H229011   3.848   5.420   3.482
 9683TIP3   OH229012   0.942   5.955   0.247
 9683TIP3    H129013   1.035   5.972   0.235
 9683TIP3    H229014   0.938   5.886   0.313
 9684TIP3   OH229015   4.015   2.896   1.231
 9684TIP3    H129016   4.067   2.956   1.178
 9684TIP3    H229017   3.924   2.922   1.215
 9685TIP3   OH229018   0.656   3.776   4.243
 9685TIP3    H129019   0.666   3.798   4.150
 9685TIP3    H229020   0.611   3.852   4.280
 9686TIP3   OH229021   4.879   1.271   1.966
 9686TIP3    H129022   4.952   1.319   1.928
 9686TIP3    H229023   4.802   1.326   1.951
 9687TIP3   OH229024   5.829   4.364   2.454
 9687TIP3    H129025   5.879   4.438   2.489
 9687TIP3    H229026   5.797   4.318   2.532
 9688TIP3   OH229027   3.002   4.047   1.839
 9688TIP3    H129028   3.022   4.140   1.847
 9688TIP3    H229029   2.976   4.020   1.927
 9689TIP3   OH229030   1.542   0.601   5.475
 9689TIP3    H129031   1.572   0.662   5.543
 9689TIP3    H229032   1.538   0.654   5.396
 9690TIP3   OH229033   4.044   2.016   0.153
 9690TIP3    H129034   4.072   2.099   0.192
 9690TIP3    H229035   3.953   2.007   0.179
 9691TIP3   OH229036   7.109   1.423   5.509
 9691TIP3    H129037   7.200   1.417   5.539
 9691TIP3    H229038   7.084   1.332   5.490
 9692TIP3   OH229039   2.963   6.507   2.094
 9692TIP3    H129040   2.927   6.573   2.154
 9692TIP3    H229041   2.900   6.504   2.022
 9693TIP3   OH229042   6.326   0.802   2.054
 9693TIP3    H129043   6.406   0.854   2.042
 9693TIP3    H229044   6.287   0.839   2.133
 9694TIP3   OH229045   0.146   3.155   0.726
 9694TIP3    H129046   0.148   3.239   0.681
 9694TIP3    H229047   0.168   3.176   0.817
 9695TIP3   OH229048   1.382   6.540   1.927
 9695TIP3    H129049   1.332   6.507   2.002
 9695TIP3    H229050   1.467   6.496   1.933
 9696TIP3   OH229051   4.899   4.219   1.461
 9696TIP3    H129052   4.989   4.185   1.467
 9696TIP3    H229053   4.859   4.196   1.544
 9697TIP3   OH229054   7.020   0.979   2.960
 9697TIP3    H129055   7.059   1.021   3.037
 9697TIP3    H229056   7.089   0.921   2.926
 9698TIP3   OH229057   2.708   6.522   3.649
 9698TIP3    H129058   2.774   6.568   3.701
 9698TIP3    H229059   2.665   6.463   3.712
 9699TIP3   OH229060   6.342   1.198   4.107
 9699TIP3    H129061   6.309   1.137   4.173
 9699TIP3    H229062   6.283   1.274   4.113
 9700TIP3   OH229063   4.546   0.162   1.824
 9700TIP3    H129064   4.582   0.074   1.811
 9700TIP3    H229065   4.452   0.147   1.839
 9701TIP3   OH229066   1.071   5.991   1.917
 9701TIP3    H129067   1.030   5.950   1.994
 9701TIP3    H229068   0.998   6.016   1.861
 9702TIP3   OH229069   0.790   5.103   0.254
 9702TIP3    H129070   0.801   5.102   0.349
 9702TIP3    H229071   0.826   5.187   0.226
 9703TIP3   OH229072   2.075   1.477   0.286
 9703TIP3    H129073   2.122   1.462   0.204
 9703TIP3    H229074   2.105   1.563   0.316
 9704TIP3   OH229075   3.874   4.363   3.872
 9704TIP3    H129076   3.884   4.268   3.864
 9704TIP3    H229077   3.790   4.376   3.915
 9705TIP3   OH229078   1.637   5.443   3.801
 9705TIP3    H129079   1.638   5.483   3.714
 9705TIP3    H229080   1.697   5.497   3.853
 9706TIP3   OH229081   1.387   6.619   5.160
 9706TIP3    H129082   1.395   6.700   5.209
 9706TIP3    H229083   1.468   6.571   5.180
 9707TIP3   OH229084   1.735   2.527   1.271
 9707TIP3    H129085   1.792   2.539   1.195
 9707TIP3    H229086   1.784   2.469   1.329
 9708TIP3   OH229087   2.832   0.130   1.057
 9708TIP3    H129088   2.793   0.086   1.133
 9708TIP3    H229089   2.867   0.212   1.093
 9709TIP3   OH229090   0.909   2.815  -0.008
 9709TIP3    H129091   0.879   2.730  -0.040
 9709TIP3    H229092   0.934   2.799   0.083
 9710TIP3   OH229093   6.857   2.427   0.894
 9710TIP3    H129094   6.900   2.356   0.846
 9710TIP3    H229095   6.814   2.384   0.967
 9711TIP3   OH229096   6.201   3.987   2.439
 9711TIP3    H129097   6.209   4.005   2.533
 9711TIP3    H229098   6.140   4.053   2.407
 9712TIP3   OH229099   6.872   4.735   4.183
 9712TIP3    H129100   6.858   4.682   4.104
 9712TIP3    H229101   6.881   4.824   4.150
 9713TIP3   OH229102   4.829   0.189   3.875
 9713TIP3    H129103   4.772   0.149   3.809
 9713TIP3    H229104   4.776   0.190   3.954
 9714TIP3   OH229105   4.971   2.000   1.090
 9714TIP3    H129106   5.034   2.045   1.146
 9714TIP3    H229107   4.946   1.922   1.139
 9715TIP3   OH229108   1.193   4.371   2.477
 9715TIP3    H129109   1.183   4.466   2.466
 9715TIP3    H229110   1.226   4.361   2.567
 9716TIP3   OH229111   1.104   5.084   1.876
 9716TIP3    H129112   1.035   5.018   1.883
 9716TIP3    H229113   1.059   5.167   1.894
 9717TIP3   OH229114   4.110   6.613   5.590
 9717TIP3    H129115   4.083   6.626   5.499
 9717TIP3    H229116   4.048   6.666   5.641
 9718TIP3   OH229117   3.775   4.116   5.849
 9718TIP3    H129118   3.760   4.210   5.850
 9718TIP3    H229119   3.687   4.077   5.848
 9719TIP3   OH229120   3.821   1.896   2.228
 9719TIP3    H129121   3.772   1.823   2.265
 9719TIP3    H229122   3.765   1.929   2.157
 9720TIP3   OH229123   5.357   5.535   0.381
 9720TIP3    H129124   5.262   5.549   0.378
 9720TIP3    H229125   5.393   5.607   0.329
 9721TIP3   OH229126   0.205   5.885   2.982
 9721TIP3    H129127   0.197   5.977   3.007
 9721TIP3    H229128   0.258   5.845   3.051
 9722TIP3   OH229129   2.860   2.531   0.883
 9722TIP3    H129130   2.923   2.599   0.862
 9722TIP3    H229131   2.829   2.498   0.799
 9723TIP3   OH229132   0.813   5.301   4.675
 9723TIP3    H129133   0.828   5.349   4.593
 9723TIP3    H229134   0.732   5.254   4.661
 9724TIP3   OH229135   3.356   3.558   2.729
 9724TIP3    H129136   3.339   3.616   2.804
 9724TIP3    H229137   3.275   3.507   2.720
 9725TIP3   OH229138   5.410   1.624   1.103
 9725TIP3    H129139   5.324   1.630   1.061
 9725TIP3    H229140   5.416   1.702   1.157
 9726TIP3   OH229141   7.132   0.183   1.377
 9726TIP3    H129142   7.092   0.192   1.291
 9726TIP3    H229143   7.149   0.273   1.405
 9727TIP3   OH229144   5.978   3.526   0.703
 9727TIP3    H129145   5.884   3.541   0.694
 9727TIP3    H229146   6.018   3.612   0.693
 9728TIP3   OH229147   2.339   5.079   2.197
 9728TIP3    H129148   2.262   5.128   2.167
 9728TIP3    H229149   2.412   5.114   2.146
 9729TIP3   OH229150   3.207   3.085   2.593
 9729TIP3    H129151   3.157   3.122   2.666
 9729TIP3    H229152   3.208   3.155   2.527
 9730TIP3   OH229153   1.121   0.410   4.388
 9730TIP3    H129154   1.077   0.455   4.316
 9730TIP3    H229155   1.115   0.471   4.462
 9731TIP3   OH229156   2.299   0.413   2.591
 9731TIP3    H129157   2.219   0.414   2.643
 9731TIP3    H229158   2.287   0.339   2.531
 9732TIP3   OH229159   3.193   0.224   3.455
 9732TIP3    H129160   3.105   0.218   3.418
 9732TIP3    H229161   3.248   0.248   3.380
 9733TIP3   OH229162   0.569   3.531   1.150
 9733TIP3    H129163   0.604   3.619   1.134
 9733TIP3    H229164   0.484   3.546   1.192
 9734TIP3   OH229165   2.078   0.731   1.861
 9734TIP3    H129166   2.062   0.685   1.779
 9734TIP3    H229167   1.996   0.720   1.911
 9735TIP3   OH229168   5.447   6.055   3.090
 9735TIP3    H129169   5.484   6.127   3.038
 9735TIP3    H229170   5.470   6.078   3.181
 9736TIP3   OH229171   2.637   6.602   0.318
 9736TIP3    H129172   2.628   6.644   0.232
 9736TIP3    H229173   2.666   6.513   0.298
 9737TIP3   OH229174   6.138   3.228   1.170
 9737TIP3    H129175   6.169   3.153   1.221
 9737TIP3    H229176   6.091   3.188   1.096
 9738TIP3   OH229177   6.361   2.793   0.999
 9738TIP3    H129178   6.445   2.747   0.992
 9738TIP3    H229179   6.295   2.723   0.993
 9739TIP3   OH229180   1.839   1.460   3.378
 9739TIP3    H129181   1.917   1.408   3.397
 9739TIP3    H229182   1.769   1.396   3.370
 9740TIP3   OH229183   5.730   6.005   2.567
 9740TIP3    H129184   5.788   6.030   2.639
 9740TIP3    H229185   5.769   6.045   2.489
 9741TIP3   OH229186   2.229   5.450   0.144
 9741TIP3    H129187   2.202   5.389   0.213
 9741TIP3    H229188   2.211   5.402   0.063
 9742TIP3   OH229189   3.392   5.085   5.425
 9742TIP3    H129190   3.343   5.041   5.495
 9742TIP3    H229191   3.433   5.160   5.467
 9743TIP3   OH229192   3.251   3.052   4.833
 9743TIP3    H129193   3.229   2.961   4.811
 9743TIP3    H229194   3.173   3.102   4.808
 9744TIP3   OH229195   4.464   5.129   5.281
 9744TIP3    H129196   4.376   5.105   5.310
 9744TIP3    H229197   4.513   5.047   5.281
 9745TIP3   OH229198   0.173   2.393   3.630
 9745TIP3    H129199   0.220   2.362   3.553
 9745TIP3    H229200   0.198   2.332   3.700
 9746TIP3   OH229201   1.719   4.745   5.059
 9746TIP3    H129202   1.639   4.784   5.022
 9746TIP3    H229203   1.761   4.702   4.985
 9747TIP3   OH229204  -0.041   0.864   2.779
 9747TIP3    H129205  -0.025   0.838   2.689
 9747TIP3    H229206   0.047   0.875   2.817
 9748TIP3   OH229207   6.356   4.711   4.603
 9748TIP3    H129208   6.392   4.740   4.519
 9748TIP3    H229209   6.331   4.792   4.648
 9749TIP3   OH229210   5.138   6.050   4.944
 9749TIP3    H129211   5.145   6.144   4.962
 9749TIP3    H229212   5.076   6.019   5.010
   7.21580   6.80313   5.89167   0.00000   0.00000  -2.40527   0.00000  -2.40527  -3.40156
