Title t= 283.00000 step= 141500
44434
    1GLY      N    1   4.622   3.885   5.330
    1GLY    HT1    2   4.644   3.902   5.230
    1GLY    HT2    3   4.661   3.790   5.345
    1GLY    HT3    4   4.671   3.945   5.400
    1GLY     CA    5   4.469   3.875   5.341
    1GLY    HA1    6   4.422   3.969   5.316
    1GLY    HA2    7   4.449   3.859   5.446
    1GLY      C    8   4.410   3.763   5.262
    1GLY      O    9   4.481   3.676   5.208
    2PRO      N   10   4.279   3.763   5.246
    2PRO     CD   11   4.187   3.860   5.307
    2PRO    HD1   12   4.180   3.945   5.236
    2PRO    HD2   13   4.206   3.894   5.411
    2PRO     CA   14   4.205   3.657   5.178
    2PRO     HA   15   4.213   3.561   5.227
    2PRO     CB   16   4.066   3.715   5.174
    2PRO    HB1   17   3.990   3.634   5.176
    2PRO    HB2   18   4.047   3.768   5.079
    2PRO     CG   19   4.048   3.797   5.297
    2PRO    HG1   20   3.970   3.876   5.310
    2PRO    HG2   21   4.032   3.737   5.389
    2PRO      C   22   4.251   3.619   5.039
    2PRO      O   23   4.302   3.698   4.961
    3GLY      N   24   4.228   3.487   5.011
    3GLY     HN   25   4.188   3.432   5.084
    3GLY     CA   26   4.254   3.426   4.877
    3GLY    HA1   27   4.196   3.476   4.801
    3GLY    HA2   28   4.230   3.321   4.882
    3GLY      C   29   4.396   3.431   4.837
    3GLY      O   30   4.477   3.476   4.919
    4ASP      N   31   4.424   3.380   4.719
    4ASP     HN   32   4.358   3.334   4.660
    4ASP     CA   33   4.552   3.377   4.655
    4ASP     HA   34   4.607   3.321   4.730
    4ASP     CB   35   4.555   3.289   4.526
    4ASP    HB1   36   4.650   3.310   4.471
    4ASP    HB2   37   4.466   3.301   4.460
    4ASP     CG   38   4.565   3.134   4.551
    4ASP    OD1   39   4.562   3.102   4.673
    4ASP    OD2   40   4.580   3.053   4.460
    4ASP      C   41   4.613   3.517   4.629
    4ASP      O   42   4.541   3.613   4.609
    5PRO      N   43   4.740   3.535   4.644
    5PRO     CD   44   4.837   3.429   4.667
    5PRO    HD1   45   4.839   3.362   4.579
    5PRO    HD2   46   4.811   3.363   4.752
    5PRO     CA   47   4.816   3.657   4.594
    5PRO     HA   48   4.794   3.740   4.658
    5PRO     CB   49   4.965   3.605   4.576
    5PRO    HB1   50   5.033   3.688   4.608
    5PRO    HB2   51   4.989   3.553   4.481
    5PRO     CG   52   4.975   3.501   4.683
    5PRO    HG1   53   5.058   3.433   4.653
    5PRO    HG2   54   4.989   3.544   4.784
    5PRO      C   55   4.773   3.710   4.456
    5PRO      O   56   4.736   3.633   4.365
    6GLY      N   57   4.792   3.841   4.435
    6GLY     HN   58   4.833   3.902   4.502
    6GLY     CA   59   4.742   3.905   4.314
    6GLY    HA1   60   4.755   4.011   4.331
    6GLY    HA2   61   4.639   3.876   4.303
    6GLY      C   62   4.830   3.869   4.194
    6GLY      O   63   4.916   3.776   4.191
    7SER      N   64   4.820   3.945   4.087
    7SER     HN   65   4.747   4.013   4.079
    7SER     CA   66   4.905   3.935   3.963
    7SER     HA   67   4.931   3.830   3.953
    7SER     CB   68   4.834   3.967   3.830
    7SER    HB1   69   4.900   3.942   3.744
    7SER    HB2   70   4.810   4.075   3.820
    7SER     OG   71   4.717   3.879   3.827
    7SER    HG1   72   4.666   3.910   3.902
    7SER      C   73   5.031   4.020   3.969
    7SER      O   74   5.045   4.100   4.068
    8GLY      N   75   5.117   4.019   3.869
    8GLY     HN   76   5.122   3.935   3.817
    8GLY     CA   77   5.228   4.115   3.853
    8GLY    HA1   78   5.299   4.085   3.777
    8GLY    HA2   79   5.272   4.144   3.947
    8GLY      C   80   5.179   4.246   3.805
    8GLY      O   81   5.057   4.265   3.791
    9ASN      N   82   5.270   4.336   3.758
    9ASN     HN   83   5.368   4.321   3.773
    9ASN     CA   84   5.226   4.460   3.695
    9ASN     HA   85   5.124   4.462   3.662
    9ASN     CB   86   5.240   4.574   3.797
    9ASN    HB1   87   5.347   4.589   3.822
    9ASN    HB2   88   5.196   4.545   3.895
    9ASN     CG   89   5.182   4.705   3.759
    9ASN    OD1   90   5.073   4.695   3.711
    9ASN    ND2   91   5.250   4.820   3.781
    9ASN   HD21   92   5.206   4.903   3.747
    9ASN   HD22   93   5.348   4.831   3.802
    9ASN      C   94   5.312   4.478   3.570
    9ASN      O   95   5.434   4.469   3.578
   10PRO      N   96   5.256   4.506   3.454
   10PRO     CD   97   5.112   4.490   3.419
   10PRO    HD1   98   5.053   4.569   3.470
   10PRO    HD2   99   5.085   4.386   3.448
   10PRO     CA  100   5.321   4.590   3.350
   10PRO     HA  101   5.393   4.520   3.311
   10PRO     CB  102   5.205   4.630   3.257
   10PRO    HB1  103   5.246   4.632   3.153
   10PRO    HB2  104   5.164   4.729   3.286
   10PRO     CG  105   5.108   4.517   3.270
   10PRO    HG1  106   5.014   4.563   3.235
   10PRO    HG2  107   5.138   4.426   3.214
   10PRO      C  108   5.409   4.704   3.390
   10PRO      O  109   5.379   4.775   3.485
   11GLY      N  110   5.528   4.718   3.322
   11GLY     HN  111   5.553   4.647   3.256
   11GLY     CA  112   5.634   4.809   3.350
   11GLY    HA1  113   5.698   4.784   3.266
   11GLY    HA2  114   5.681   4.797   3.447
   11GLY      C  115   5.593   4.949   3.319
   11GLY      O  116   5.474   4.984   3.310
   12SER      N  117   5.695   5.036   3.299
   12SER     HN  118   5.785   4.993   3.296
   12SER     CA  119   5.687   5.172   3.244
   12SER     HA  120   5.625   5.225   3.315
   12SER     CB  121   5.834   5.242   3.244
   12SER    HB1  122   5.832   5.346   3.204
   12SER    HB2  123   5.905   5.195   3.173
   12SER     OG  124   5.899   5.229   3.373
   12SER    HG1  125   5.864   5.295   3.433
   12SER      C  126   5.623   5.189   3.111
   12SER      O  127   5.628   5.094   3.031
   13GLY      N  128   5.546   5.296   3.097
   13GLY     HN  129   5.534   5.354   3.177
   13GLY     CA  130   5.491   5.353   2.975
   13GLY    HA1  131   5.467   5.454   3.005
   13GLY    HA2  132   5.403   5.295   2.953
   13GLY      C  133   5.582   5.361   2.863
   13GLY      O  134   5.705   5.360   2.884
   14ASP      N  135   5.530   5.362   2.736
   14ASP     HN  136   5.431   5.371   2.729
   14ASP     CA  137   5.600   5.351   2.609
   14ASP     HA  138   5.656   5.259   2.616
   14ASP     CB  139   5.506   5.344   2.488
   14ASP    HB1  140   5.569   5.338   2.396
   14ASP    HB2  141   5.441   5.433   2.480
   14ASP     CG  142   5.410   5.224   2.488
   14ASP    OD1  143   5.353   5.190   2.380
   14ASP    OD2  144   5.395   5.157   2.586
   14ASP      C  145   5.699   5.471   2.588
   14ASP      O  146   5.674   5.584   2.622
   15PRO      N  147   5.819   5.450   2.536
   15PRO     CD  148   5.883   5.319   2.514
   15PRO    HD1  149   5.820   5.250   2.452
   15PRO    HD2  150   5.903   5.278   2.615
   15PRO     CA  151   5.912   5.557   2.515
   15PRO     HA  152   5.911   5.628   2.597
   15PRO     CB  153   6.050   5.488   2.515
   15PRO    HB1  154   6.076   5.463   2.620
   15PRO    HB2  155   6.142   5.532   2.470
   15PRO     CG  156   6.022   5.347   2.461
   15PRO    HG1  157   6.005   5.346   2.351
   15PRO    HG2  158   6.092   5.268   2.494
   15PRO      C  159   5.885   5.625   2.378
   15PRO    OT1  160   5.828   5.559   2.284
   15PRO    OT2  161   5.911   5.745   2.349
   16LIT    LIT  162   4.547   2.993   4.291
   17LIT    LIT  163   5.782   3.336   2.836
   18LIT    LIT  164   5.523   0.615   1.559
   19LIT    LIT  165   3.192   4.990   4.500
   20LIT    LIT  166   5.497   4.605   4.754
   21LIT    LIT  167   0.759   3.097   6.726
   22LIT    LIT  168   7.908   1.604   5.692
   23LIT    LIT  169   5.854   2.002   0.618
   24LIT    LIT  170   5.742   6.663   4.358
   25LIT    LIT  171   8.014   0.998   4.541
   26LIT    LIT  172   2.699   3.703   3.705
   27LIT    LIT  173   6.790   7.639   3.573
   28LIT    LIT  174   6.682   2.980   2.053
   29LIT    LIT  175   0.456   2.151   2.746
   30LIT    LIT  176   0.572   0.221   5.654
   31LIT    LIT  177   1.257   0.188   1.435
   32LIT    LIT  178   0.743   2.201   5.428
   33LIT    LIT  179   5.074   1.085   0.271
   34LIT    LIT  180   7.612   6.817   0.578
   35LIT    LIT  181   7.231   7.311   6.589
   36LIT    LIT  182   3.927   6.748   2.153
   37LIT    LIT  183   1.564   4.807   2.247
   38LIT    LIT  184   5.205   5.067   5.749
   39LIT    LIT  185   8.210   7.658   4.358
   40LIT    LIT  186   6.237   5.195   4.110
   41LIT    LIT  187   5.721   5.685   2.211
   42LIT    LIT  188   2.245   0.581   6.686
   43LIT    LIT  189   7.556   7.302   3.054
   44LIT    LIT  190   6.483   6.743   2.618
   45LIT    LIT  191   0.994   2.279   2.230
   46LIT    LIT  192   4.631   3.194   0.542
   47LIT    LIT  193   3.577   1.752   1.126
   48LIT    LIT  194   6.725   5.894   4.832
   49LIT    LIT  195   5.263   5.058   2.490
   50LIT    LIT  196   6.039   1.843   2.112
   51LIT    LIT  197   7.219   7.383   0.762
   52LIT    LIT  198   6.884   2.345   5.290
   53LIT    LIT  199   3.158   4.865   2.763
   54LIT    LIT  200   7.835   6.602   3.775
   55LIT    LIT  201   2.422   1.147   5.859
   56LIT    LIT  202   6.146   3.183   6.408
   57LIT    LIT  203   6.866   0.579   2.851
   58LIT    LIT  204   6.938   5.319   1.086
   59LIT    LIT  205   3.550   4.520   1.780
   60CLA    CLA  206   7.673   7.777   4.140
   61CLA    CLA  207   5.309   4.900   5.047
   62CLA    CLA  208   5.290   4.812   1.279
   63CLA    CLA  209   8.032   3.297   1.045
   64CLA    CLA  210   6.087   5.643   4.218
   65CLA    CLA  211   3.808   0.135   1.238
   66CLA    CLA  212   2.944   1.187   5.933
   67CLA    CLA  213   2.685   6.318   0.992
   68CLA    CLA  214   5.819   2.415   4.781
   69CLA    CLA  215   0.679   2.305   4.970
   70CLA    CLA  216   5.597   5.648   0.759
   71CLA    CLA  217   2.050   1.412   5.361
   72CLA    CLA  218   0.210   3.133   2.378
   73CLA    CLA  219   3.076   4.021   3.441
   74CLA    CLA  220   4.293   4.882   1.290
   75CLA    CLA  221   5.221   2.144   3.810
   76CLA    CLA  222   3.810   4.764   4.369
   77CLA    CLA  223   1.554   2.493   5.745
   78CLA    CLA  224   0.961   2.576   0.000
   79CLA    CLA  225   6.522   7.079   0.961
   80CLA    CLA  226   4.428   0.784   0.556
   81CLA    CLA  227   6.741   0.375   2.869
   82CLA    CLA  228   6.535   0.924   4.332
   83CLA    CLA  229   0.364   3.522   5.179
   84CLA    CLA  230   5.085   2.178   6.224
   85CLA    CLA  231   8.204   4.272   6.381
   86CLA    CLA  232   6.391   3.156   2.651
   87CLA    CLA  233   8.147   5.792   1.967
   88CLA    CLA  234   0.628   6.001   3.329
   89CLA    CLA  235   5.858   5.239   6.710
   90CLA    CLA  236   8.147   7.175   1.838
   91CLA    CLA  237   3.957   7.534   1.283
   92CLA    CLA  238   1.179   2.184   0.276
   93CLA    CLA  239   3.752   0.606   3.758
   94CLA    CLA  240   1.449   0.584   0.268
   95CLA    CLA  241   6.804   5.502   1.074
   96CLA    CLA  242   7.918   0.889   4.726
   97CLA    CLA  243   5.871   4.454   3.379
   98CLA    CLA  244   1.635   4.441   6.361
   99CLA    CLA  245   7.293   7.771   6.486
  100CLA    CLA  246   2.325   5.037   1.442
  101CLA    CLA  247   6.924   1.434   0.707
  102TIP3   OH2  248   4.261   1.721   3.248
  102TIP3    H1  249   4.198   1.678   3.306
  102TIP3    H2  250   4.207   1.779   3.193
  103TIP3   OH2  251   4.606   7.179   5.481
  103TIP3    H1  252   4.539   7.125   5.522
  103TIP3    H2  253   4.632   7.131   5.403
  104TIP3   OH2  254   1.941   0.984   4.374
  104TIP3    H1  255   1.957   1.032   4.455
  104TIP3    H2  256   1.846   0.980   4.367
  105TIP3   OH2  257   3.861   6.893   2.056
  105TIP3    H1  258   3.806   6.929   1.986
  105TIP3    H2  259   3.861   6.961   2.123
  106TIP3   OH2  260   4.870   0.994   0.581
  106TIP3    H1  261   4.843   0.939   0.655
  106TIP3    H2  262   4.801   1.059   0.574
  107TIP3   OH2  263   5.127   2.370   1.317
  107TIP3    H1  264   5.167   2.380   1.231
  107TIP3    H2  265   5.134   2.457   1.357
  108TIP3   OH2  266   4.077   7.335   6.166
  108TIP3    H1  267   4.008   7.270   6.182
  108TIP3    H2  268   4.156   7.296   6.202
  109TIP3   OH2  269   4.675   1.172   2.167
  109TIP3    H1  270   4.601   1.148   2.222
  109TIP3    H2  271   4.681   1.267   2.175
  110TIP3   OH2  272   2.640   6.945   6.237
  110TIP3    H1  273   2.706   6.932   6.305
  110TIP3    H2  274   2.662   6.881   6.169
  111TIP3   OH2  275   7.521   4.206   5.356
  111TIP3    H1  276   7.578   4.247   5.292
  111TIP3    H2  277   7.551   4.238   5.441
  112TIP3   OH2  278   3.812   4.764   4.926
  112TIP3    H1  279   3.824   4.728   5.014
  112TIP3    H2  280   3.829   4.857   4.936
  113TIP3   OH2  281   1.127   7.421   6.484
  113TIP3    H1  282   1.039   7.392   6.505
  113TIP3    H2  283   1.135   7.407   6.389
  114TIP3   OH2  284   4.923   7.934   1.323
  114TIP3    H1  285   4.996   7.940   1.263
  114TIP3    H2  286   4.957   7.888   1.400
  115TIP3   OH2  287   7.960   1.467   2.153
  115TIP3    H1  288   8.035   1.518   2.183
  115TIP3    H2  289   7.993   1.420   2.076
  116TIP3   OH2  290   3.065   1.177   3.413
  116TIP3    H1  291   3.125   1.246   3.440
  116TIP3    H2  292   2.991   1.223   3.373
  117TIP3   OH2  293   2.350   5.722   4.711
  117TIP3    H1  294   2.319   5.760   4.793
  117TIP3    H2  295   2.306   5.772   4.642
  118TIP3   OH2  296   3.934   0.495   6.152
  118TIP3    H1  297   3.885   0.575   6.171
  118TIP3    H2  298   4.025   0.524   6.144
  119TIP3   OH2  299   1.451   4.343   1.783
  119TIP3    H1  300   1.511   4.414   1.805
  119TIP3    H2  301   1.497   4.263   1.806
  120TIP3   OH2  302   7.880   4.942   3.921
  120TIP3    H1  303   7.846   4.917   4.007
  120TIP3    H2  304   7.908   5.032   3.932
  121TIP3   OH2  305   0.400   2.821   2.105
  121TIP3    H1  306   0.390   2.853   2.015
  121TIP3    H2  307   0.479   2.865   2.137
  122TIP3   OH2  308   0.441   5.054   0.709
  122TIP3    H1  309   0.434   5.093   0.796
  122TIP3    H2  310   0.350   5.039   0.683
  123TIP3   OH2  311   5.398   5.888   2.660
  123TIP3    H1  312   5.335   5.823   2.629
  123TIP3    H2  313   5.457   5.839   2.717
  124TIP3   OH2  314   4.258   6.638   2.724
  124TIP3    H1  315   4.337   6.633   2.777
  124TIP3    H2  316   4.216   6.720   2.751
  125TIP3   OH2  317   0.801   3.053   3.519
  125TIP3    H1  318   0.815   3.002   3.439
  125TIP3    H2  319   0.889   3.069   3.552
  126TIP3   OH2  320   2.979   5.012   6.623
  126TIP3    H1  321   3.067   5.045   6.637
  126TIP3    H2  322   2.974   4.993   6.530
  127TIP3   OH2  323   6.188   0.155   4.320
  127TIP3    H1  324   6.218   0.183   4.233
  127TIP3    H2  325   6.106   0.110   4.303
  128TIP3   OH2  326   2.892   2.577   6.009
  128TIP3    H1  327   2.938   2.523   5.945
  128TIP3    H2  328   2.954   2.586   6.081
  129TIP3   OH2  329   4.808   2.310   6.317
  129TIP3    H1  330   4.830   2.341   6.405
  129TIP3    H2  331   4.876   2.245   6.298
  130TIP3   OH2  332   7.399   1.417   0.048
  130TIP3    H1  333   7.453   1.495   0.064
  130TIP3    H2  334   7.433   1.351   0.109
  131TIP3   OH2  335   7.907   5.450   0.240
  131TIP3    H1  336   7.930   5.489   0.325
  131TIP3    H2  337   7.908   5.356   0.256
  132TIP3   OH2  338   0.618   5.957   4.307
  132TIP3    H1  339   0.611   5.862   4.317
  132TIP3    H2  340   0.707   5.971   4.274
  133TIP3   OH2  341   6.742   1.996   5.616
  133TIP3    H1  342   6.667   1.972   5.562
  133TIP3    H2  343   6.756   1.919   5.672
  134TIP3   OH2  344   3.085   1.590   6.225
  134TIP3    H1  345   3.152   1.649   6.261
  134TIP3    H2  346   3.034   1.645   6.166
  135TIP3   OH2  347   7.182   2.354   4.839
  135TIP3    H1  348   7.235   2.295   4.785
  135TIP3    H2  349   7.127   2.296   4.891
  136TIP3   OH2  350   5.464   1.926   2.800
  136TIP3    H1  351   5.541   1.966   2.842
  136TIP3    H2  352   5.501   1.858   2.744
  137TIP3   OH2  353   1.640   2.481   5.269
  137TIP3    H1  354   1.603   2.417   5.207
  137TIP3    H2  355   1.691   2.540   5.213
  138TIP3   OH2  356   1.778   6.574   5.499
  138TIP3    H1  357   1.747   6.538   5.582
  138TIP3    H2  358   1.698   6.605   5.456
  139TIP3   OH2  359   1.007   0.749   0.426
  139TIP3    H1  360   1.005   0.657   0.399
  139TIP3    H2  361   1.094   0.761   0.462
  140TIP3   OH2  362   2.073   5.321   5.304
  140TIP3    H1  363   2.151   5.364   5.339
  140TIP3    H2  364   2.000   5.375   5.333
  141TIP3   OH2  365   4.329   6.162   2.986
  141TIP3    H1  366   4.337   6.217   3.064
  141TIP3    H2  367   4.236   6.162   2.967
  142TIP3   OH2  368   2.434   4.034   2.502
  142TIP3    H1  369   2.513   3.999   2.460
  142TIP3    H2  370   2.412   4.112   2.452
  143TIP3   OH2  371   6.113   1.759   2.276
  143TIP3    H1  372   6.047   1.719   2.332
  143TIP3    H2  373   6.192   1.761   2.330
  144TIP3   OH2  374   5.057   6.974   5.835
  144TIP3    H1  375   4.983   6.936   5.882
  144TIP3    H2  376   5.068   7.061   5.873
  145TIP3   OH2  377   0.830   2.916   6.037
  145TIP3    H1  378   0.827   2.821   6.047
  145TIP3    H2  379   0.755   2.947   6.087
  146TIP3   OH2  380   5.196   0.947   2.218
  146TIP3    H1  381   5.285   0.914   2.201
  146TIP3    H2  382   5.209   1.027   2.268
  147TIP3   OH2  383   4.683   0.815   2.862
  147TIP3    H1  384   4.670   0.720   2.856
  147TIP3    H2  385   4.658   0.837   2.952
  148TIP3   OH2  386   0.736   2.306   3.351
  148TIP3    H1  387   0.789   2.291   3.430
  148TIP3    H2  388   0.707   2.218   3.326
  149TIP3   OH2  389   3.955   4.025   1.068
  149TIP3    H1  390   4.036   3.978   1.049
  149TIP3    H2  391   3.922   4.051   0.982
  150TIP3   OH2  392   6.730   2.353   5.163
  150TIP3    H1  393   6.775   2.365   5.079
  150TIP3    H2  394   6.639   2.334   5.140
  151TIP3   OH2  395   1.560   0.671   1.477
  151TIP3    H1  396   1.593   0.587   1.510
  151TIP3    H2  397   1.626   0.734   1.505
  152TIP3   OH2  398   0.415   7.507   0.451
  152TIP3    H1  399   0.339   7.551   0.414
  152TIP3    H2  400   0.431   7.433   0.393
  153TIP3   OH2  401   7.567   2.059   2.186
  153TIP3    H1  402   7.506   2.130   2.164
  153TIP3    H2  403   7.530   2.020   2.265
  154TIP3   OH2  404   6.325   5.072   1.126
  154TIP3    H1  405   6.322   5.129   1.048
  154TIP3    H2  406   6.251   5.101   1.179
  155TIP3   OH2  407   3.693   5.613   3.154
  155TIP3    H1  408   3.715   5.706   3.161
  155TIP3    H2  409   3.773   5.567   3.180
  156TIP3   OH2  410   7.936   3.354   0.527
  156TIP3    H1  411   8.004   3.340   0.462
  156TIP3    H2  412   7.926   3.270   0.571
  157TIP3   OH2  413   3.028   2.020   6.240
  157TIP3    H1  414   3.017   2.087   6.308
  157TIP3    H2  415   2.948   2.025   6.188
  158TIP3   OH2  416   4.006   6.668   4.517
  158TIP3    H1  417   4.030   6.759   4.537
  158TIP3    H2  418   4.048   6.617   4.586
  159TIP3   OH2  419   2.660   4.142   6.647
  159TIP3    H1  420   2.736   4.167   6.595
  159TIP3    H2  421   2.624   4.225   6.679
  160TIP3   OH2  422   2.088   1.946   2.901
  160TIP3    H1  423   2.067   1.877   2.964
  160TIP3    H2  424   2.017   2.010   2.913
  161TIP3   OH2  425   3.191   0.998   6.077
  161TIP3    H1  426   3.279   1.000   6.040
  161TIP3    H2  427   3.135   1.034   6.009
  162TIP3   OH2  428   6.873   6.138   2.959
  162TIP3    H1  429   6.869   6.047   2.929
  162TIP3    H2  430   6.965   6.162   2.952
  163TIP3   OH2  431   0.562   3.774   2.212
  163TIP3    H1  432   0.539   3.841   2.276
  163TIP3    H2  433   0.547   3.815   2.127
  164TIP3   OH2  434   7.837   3.726   5.884
  164TIP3    H1  435   7.843   3.631   5.894
  164TIP3    H2  436   7.752   3.749   5.921
  165TIP3   OH2  437   1.859   1.604   0.473
  165TIP3    H1  438   1.785   1.563   0.518
  165TIP3    H2  439   1.856   1.696   0.500
  166TIP3   OH2  440   3.508   0.446   0.571
  166TIP3    H1  441   3.569   0.390   0.619
  166TIP3    H2  442   3.424   0.432   0.614
  167TIP3   OH2  443   0.449   0.705   0.796
  167TIP3    H1  444   0.500   0.671   0.723
  167TIP3    H2  445   0.499   0.681   0.874
  168TIP3   OH2  446   5.954   2.873   1.327
  168TIP3    H1  447   5.879   2.901   1.378
  168TIP3    H2  448   6.026   2.871   1.390
  169TIP3   OH2  449   6.602   0.270   6.278
  169TIP3    H1  450   6.596   0.349   6.226
  169TIP3    H2  451   6.692   0.239   6.265
  170TIP3   OH2  452   3.847   0.874   0.551
  170TIP3    H1  453   3.875   0.790   0.516
  170TIP3    H2  454   3.924   0.930   0.543
  171TIP3   OH2  455   5.889   0.583   5.265
  171TIP3    H1  456   5.858   0.670   5.289
  171TIP3    H2  457   5.815   0.542   5.221
  172TIP3   OH2  458   7.672   0.098   5.006
  172TIP3    H1  459   7.642   0.014   4.970
  172TIP3    H2  460   7.693   0.151   4.929
  173TIP3   OH2  461   3.527   0.632   1.352
  173TIP3    H1  462   3.455   0.609   1.293
  173TIP3    H2  463   3.596   0.568   1.333
  174TIP3   OH2  464   6.128   0.332   4.081
  174TIP3    H1  465   6.053   0.389   4.094
  174TIP3    H2  466   6.097   0.266   4.019
  175TIP3   OH2  467   5.915   6.724  -0.021
  175TIP3    H1  468   5.913   6.752   0.071
  175TIP3    H2  469   5.883   6.634  -0.019
  176TIP3   OH2  470   4.057   0.257   4.662
  176TIP3    H1  471   3.980   0.312   4.649
  176TIP3    H2  472   4.117   0.312   4.713
  177TIP3   OH2  473   8.183   2.514   2.000
  177TIP3    H1  474   8.092   2.483   2.005
  177TIP3    H2  475   8.174   2.608   1.983
  178TIP3   OH2  476   8.118   5.281   5.095
  178TIP3    H1  477   8.069   5.204   5.125
  178TIP3    H2  478   8.209   5.262   5.118
  179TIP3   OH2  479   5.552   7.215   1.103
  179TIP3    H1  480   5.558   7.308   1.125
  179TIP3    H2  481   5.491   7.212   1.029
  180TIP3   OH2  482   5.795   0.129   5.450
  180TIP3    H1  483   5.842   0.053   5.415
  180TIP3    H2  484   5.845   0.154   5.528
  181TIP3   OH2  485   4.503   1.547   3.348
  181TIP3    H1  486   4.457   1.535   3.265
  181TIP3    H2  487   4.475   1.633   3.379
  182TIP3   OH2  488   4.966   0.085   0.234
  182TIP3    H1  489   4.936  -0.005   0.250
  182TIP3    H2  490   4.894   0.125   0.186
  183TIP3   OH2  491   5.043   2.030   2.816
  183TIP3    H1  492   5.122   2.032   2.762
  183TIP3    H2  493   5.005   2.117   2.805
  184TIP3   OH2  494   2.675   7.310   2.261
  184TIP3    H1  495   2.630   7.334   2.180
  184TIP3    H2  496   2.682   7.393   2.310
  185TIP3   OH2  497   6.460   1.582   0.564
  185TIP3    H1  498   6.521   1.569   0.636
  185TIP3    H2  499   6.465   1.502   0.512
  186TIP3   OH2  500   5.688   1.354   2.218
  186TIP3    H1  501   5.732   1.439   2.218
  186TIP3    H2  502   5.721   1.310   2.296
  187TIP3   OH2  503   2.332   6.147   6.254
  187TIP3    H1  504   2.346   6.218   6.191
  187TIP3    H2  505   2.278   6.186   6.322
  188TIP3   OH2  506   3.222   0.477   3.577
  188TIP3    H1  507   3.314   0.483   3.603
  188TIP3    H2  508   3.176   0.534   3.638
  189TIP3   OH2  509   3.222   0.647   0.035
  189TIP3    H1  510   3.304   0.601   0.054
  189TIP3    H2  511   3.228   0.729   0.085
  190TIP3   OH2  512   0.640   5.898   1.011
  190TIP3    H1  513   0.728   5.931   1.029
  190TIP3    H2  514   0.633   5.818   1.062
  191TIP3   OH2  515   1.213   4.579   0.308
  191TIP3    H1  516   1.203   4.665   0.350
  191TIP3    H2  517   1.145   4.525   0.348
  192TIP3   OH2  518   3.377   0.521   6.052
  192TIP3    H1  519   3.304   0.560   6.004
  192TIP3    H2  520   3.416   0.595   6.099
  193TIP3   OH2  521   1.513   5.779   3.004
  193TIP3    H1  522   1.469   5.863   3.017
  193TIP3    H2  523   1.564   5.791   2.924
  194TIP3   OH2  524   5.077   3.262   2.871
  194TIP3    H1  525   5.032   3.343   2.894
  194TIP3    H2  526   5.010   3.194   2.877
  195TIP3   OH2  527   1.595   2.630   4.187
  195TIP3    H1  528   1.598   2.593   4.276
  195TIP3    H2  529   1.678   2.605   4.148
  196TIP3   OH2  530   7.630   4.525   5.818
  196TIP3    H1  531   7.697   4.481   5.869
  196TIP3    H2  532   7.659   4.516   5.727
  197TIP3   OH2  533   6.111   6.964   0.101
  197TIP3    H1  534   6.023   6.991   0.075
  197TIP3    H2  535   6.155   6.942   0.018
  198TIP3   OH2  536   4.950   7.085   4.934
  198TIP3    H1  537   4.894   7.009   4.915
  198TIP3    H2  538   5.017   7.052   4.994
  199TIP3   OH2  539   7.854   6.121   5.580
  199TIP3    H1  540   7.809   6.100   5.661
  199TIP3    H2  541   7.934   6.166   5.607
  200TIP3   OH2  542   4.099   0.069   6.321
  200TIP3    H1  543   4.131   0.016   6.393
  200TIP3    H2  544   4.168   0.135   6.307
  201TIP3   OH2  545   3.844   6.097   2.768
  201TIP3    H1  546   3.824   6.026   2.707
  201TIP3    H2  547   3.767   6.154   2.763
  202TIP3   OH2  548   6.988   1.910   5.737
  202TIP3    H1  549   6.930   1.985   5.752
  202TIP3    H2  550   7.006   1.876   5.824
  203TIP3   OH2  551   7.325   4.364   2.971
  203TIP3    H1  552   7.330   4.415   3.052
  203TIP3    H2  553   7.413   4.369   2.934
  204TIP3   OH2  554   5.289   0.159   3.744
  204TIP3    H1  555   5.279   0.212   3.824
  204TIP3    H2  556   5.199   0.134   3.721
  205TIP3   OH2  557   2.309   0.097   5.067
  205TIP3    H1  558   2.237   0.052   5.023
  205TIP3    H2  559   2.321   0.049   5.148
  206TIP3   OH2  560   6.422   3.020   5.488
  206TIP3    H1  561   6.390   3.110   5.494
  206TIP3    H2  562   6.359   2.976   5.431
  207TIP3   OH2  563   6.795   1.420   5.487
  207TIP3    H1  564   6.838   1.474   5.554
  207TIP3    H2  565   6.867   1.384   5.435
  208TIP3   OH2  566   3.041   5.847   2.700
  208TIP3    H1  567   3.048   5.768   2.646
  208TIP3    H2  568   3.067   5.918   2.642
  209TIP3   OH2  569   5.008   2.540   3.716
  209TIP3    H1  570   5.022   2.633   3.694
  209TIP3    H2  571   4.978   2.541   3.807
  210TIP3   OH2  572   2.196   6.618   3.695
  210TIP3    H1  573   2.136   6.688   3.668
  210TIP3    H2  574   2.196   6.621   3.791
  211TIP3   OH2  575   1.658   3.209   5.680
  211TIP3    H1  576   1.729   3.273   5.678
  211TIP3    H2  577   1.703   3.125   5.691
  212TIP3   OH2  578   3.413   3.730   0.831
  212TIP3    H1  579   3.438   3.816   0.864
  212TIP3    H2  580   3.324   3.717   0.862
  213TIP3   OH2  581   5.818   4.308   2.822
  213TIP3    H1  582   5.742   4.330   2.876
  213TIP3    H2  583   5.858   4.234   2.867
  214TIP3   OH2  584   7.134   5.767   6.083
  214TIP3    H1  585   7.216   5.788   6.037
  214TIP3    H2  586   7.162   5.739   6.170
  215TIP3   OH2  587   7.647   6.256   4.226
  215TIP3    H1  588   7.623   6.345   4.249
  215TIP3    H2  589   7.564   6.212   4.210
  216TIP3   OH2  590   1.809   0.897   5.423
  216TIP3    H1  591   1.790   0.906   5.516
  216TIP3    H2  592   1.854   0.978   5.400
  217TIP3   OH2  593   6.804   4.814   6.463
  217TIP3    H1  594   6.831   4.906   6.461
  217TIP3    H2  595   6.883   4.766   6.438
  218TIP3   OH2  596   5.342   2.026   3.554
  218TIP3    H1  597   5.271   2.066   3.504
  218TIP3    H2  598   5.326   2.054   3.645
  219TIP3   OH2  599   8.069   5.839   6.042
  219TIP3    H1  600   8.034   5.912   5.991
  219TIP3    H2  601   7.991   5.789   6.068
  220TIP3   OH2  602   4.808   6.947   0.209
  220TIP3    H1  603   4.881   6.994   0.169
  220TIP3    H2  604   4.825   6.952   0.303
  221TIP3   OH2  605   5.028   1.764   3.551
  221TIP3    H1  606   5.055   1.845   3.507
  221TIP3    H2  607   4.938   1.780   3.579
  222TIP3   OH2  608   4.569   2.098   2.901
  222TIP3    H1  609   4.580   2.032   2.969
  222TIP3    H2  610   4.615   2.175   2.934
  223TIP3   OH2  611   4.681   7.407   3.592
  223TIP3    H1  612   4.619   7.460   3.641
  223TIP3    H2  613   4.764   7.454   3.598
  224TIP3   OH2  614   0.013   2.785   1.738
  224TIP3    H1  615   0.035   2.720   1.672
  224TIP3    H2  616  -0.074   2.816   1.713
  225TIP3   OH2  617   0.497   1.285   1.309
  225TIP3    H1  618   0.579   1.237   1.300
  225TIP3    H2  619   0.465   1.297   1.219
  226TIP3   OH2  620   5.003   2.113   4.946
  226TIP3    H1  621   5.091   2.128   4.911
  226TIP3    H2  622   4.979   2.197   4.986
  227TIP3   OH2  623   4.494   7.052   0.791
  227TIP3    H1  624   4.475   7.118   0.857
  227TIP3    H2  625   4.581   7.019   0.813
  228TIP3   OH2  626   0.345   2.898   6.102
  228TIP3    H1  627   0.383   2.810   6.102
  228TIP3    H2  628   0.391   2.943   6.031
  229TIP3   OH2  629   6.900   2.254   4.531
  229TIP3    H1  630   6.877   2.197   4.604
  229TIP3    H2  631   6.943   2.196   4.468
  230TIP3   OH2  632   2.804   5.212   5.277
  230TIP3    H1  633   2.730   5.245   5.226
  230TIP3    H2  634   2.771   5.211   5.367
  231TIP3   OH2  635   8.097   4.369   6.685
  231TIP3    H1  636   8.119   4.358   6.592
  231TIP3    H2  637   8.064   4.459   6.691
  232TIP3   OH2  638   5.608   0.731   5.257
  232TIP3    H1  639   5.567   0.769   5.335
  232TIP3    H2  640   5.600   0.799   5.190
  233TIP3   OH2  641   1.027   4.236   4.189
  233TIP3    H1  642   0.978   4.180   4.248
  233TIP3    H2  643   0.964   4.302   4.159
  234TIP3   OH2  644   1.110   7.481   5.730
  234TIP3    H1  645   1.043   7.416   5.752
  234TIP3    H2  646   1.094   7.554   5.789
  235TIP3   OH2  647   8.048   4.841   1.552
  235TIP3    H1  648   7.982   4.886   1.499
  235TIP3    H2  649   8.109   4.909   1.580
  236TIP3   OH2  650   0.605   4.706   0.452
  236TIP3    H1  651   0.516   4.740   0.465
  236TIP3    H2  652   0.608   4.626   0.504
  237TIP3   OH2  653   3.537   4.280   5.012
  237TIP3    H1  654   3.463   4.301   4.954
  237TIP3    H2  655   3.587   4.362   5.018
  238TIP3   OH2  656   4.512   6.791   1.340
  238TIP3    H1  657   4.550   6.758   1.422
  238TIP3    H2  658   4.526   6.885   1.344
  239TIP3   OH2  659   8.273   3.986   6.340
  239TIP3    H1  660   8.207   3.974   6.272
  239TIP3    H2  661   8.252   4.070   6.380
  240TIP3   OH2  662   1.293   1.048   0.366
  240TIP3    H1  663   1.320   0.957   0.378
  240TIP3    H2  664   1.309   1.066   0.273
  241TIP3   OH2  665   7.044   4.300   2.121
  241TIP3    H1  666   6.991   4.249   2.060
  241TIP3    H2  667   7.017   4.390   2.107
  242TIP3   OH2  668   0.457   3.694   1.206
  242TIP3    H1  669   0.438   3.604   1.232
  242TIP3    H2  670   0.512   3.728   1.276
  243TIP3   OH2  671   7.472   6.118   6.511
  243TIP3    H1  672   7.447   6.075   6.593
  243TIP3    H2  673   7.551   6.071   6.483
  244TIP3   OH2  674   6.630   7.062   3.350
  244TIP3    H1  675   6.627   7.098   3.438
  244TIP3    H2  676   6.565   6.991   3.351
  245TIP3   OH2  677   5.129   5.420   4.349
  245TIP3    H1  678   5.171   5.500   4.318
  245TIP3    H2  679   5.106   5.438   4.441
  246TIP3   OH2  680   2.773   2.949   2.469
  246TIP3    H1  681   2.695   2.912   2.511
  246TIP3    H2  682   2.809   3.009   2.534
  247TIP3   OH2  683   7.237   6.638   5.735
  247TIP3    H1  684   7.330   6.642   5.757
  247TIP3    H2  685   7.194   6.609   5.815
  248TIP3   OH2  686   4.238   2.160   1.191
  248TIP3    H1  687   4.333   2.171   1.193
  248TIP3    H2  688   4.225   2.067   1.170
  249TIP3   OH2  689   1.893   5.731   1.253
  249TIP3    H1  690   1.939   5.755   1.173
  249TIP3    H2  691   1.920   5.641   1.270
  250TIP3   OH2  692   2.042   0.287   5.006
  250TIP3    H1  693   2.115   0.267   5.064
  250TIP3    H2  694   1.965   0.258   5.054
  251TIP3   OH2  695   6.459   1.012   1.214
  251TIP3    H1  696   6.481   1.069   1.287
  251TIP3    H2  697   6.400   0.946   1.253
  252TIP3   OH2  698   2.621   5.464   3.318
  252TIP3    H1  699   2.619   5.481   3.413
  252TIP3    H2  700   2.714   5.460   3.297
  253TIP3   OH2  701   6.840   4.411   0.298
  253TIP3    H1  702   6.907   4.480   0.301
  253TIP3    H2  703   6.757   4.459   0.296
  254TIP3   OH2  704   6.527   4.773   1.631
  254TIP3    H1  705   6.534   4.856   1.678
  254TIP3    H2  706   6.480   4.715   1.691
  255TIP3   OH2  707   1.324   6.005   5.407
  255TIP3    H1  708   1.264   5.938   5.375
  255TIP3    H2  709   1.392   6.011   5.340
  256TIP3   OH2  710   4.117   7.299   1.861
  256TIP3    H1  711   4.098   7.305   1.954
  256TIP3    H2  712   4.039   7.259   1.823
  257TIP3   OH2  713   5.067   4.626   0.616
  257TIP3    H1  714   5.029   4.583   0.693
  257TIP3    H2  715   5.094   4.554   0.559
  258TIP3   OH2  716   2.055   6.462   4.192
  258TIP3    H1  717   2.105   6.383   4.215
  258TIP3    H2  718   2.112   6.535   4.217
  259TIP3   OH2  719   5.825   4.918   1.201
  259TIP3    H1  720   5.733   4.907   1.177
  259TIP3    H2  721   5.861   4.976   1.134
  260TIP3   OH2  722   1.562   2.303   5.072
  260TIP3    H1  723   1.506   2.227   5.084
  260TIP3    H2  724   1.517   2.357   5.007
  261TIP3   OH2  725   6.678   2.266   0.635
  261TIP3    H1  726   6.759   2.260   0.685
  261TIP3    H2  727   6.620   2.202   0.676
  262TIP3   OH2  728   1.775   4.209   6.542
  262TIP3    H1  729   1.806   4.141   6.483
  262TIP3    H2  730   1.733   4.274   6.485
  263TIP3   OH2  731   4.997   2.834   4.385
  263TIP3    H1  732   4.902   2.823   4.379
  263TIP3    H2  733   5.032   2.745   4.391
  264TIP3   OH2  734   6.633   7.696   0.700
  264TIP3    H1  735   6.605   7.704   0.608
  264TIP3    H2  736   6.728   7.706   0.697
  265TIP3   OH2  737   2.141   4.375   2.847
  265TIP3    H1  738   2.154   4.398   2.940
  265TIP3    H2  739   2.230   4.359   2.815
  266TIP3   OH2  740   0.945   1.748   3.609
  266TIP3    H1  741   0.851   1.768   3.615
  266TIP3    H2  742   0.966   1.757   3.516
  267TIP3   OH2  743   2.166   5.959   4.293
  267TIP3    H1  744   2.120   5.988   4.214
  267TIP3    H2  745   2.232   5.898   4.262
  268TIP3   OH2  746   7.837   5.793   4.287
  268TIP3    H1  747   7.832   5.767   4.379
  268TIP3    H2  748   7.844   5.710   4.239
  269TIP3   OH2  749   1.880   7.660   6.164
  269TIP3    H1  750   1.880   7.753   6.139
  269TIP3    H2  751   1.863   7.661   6.258
  270TIP3   OH2  752   7.991   1.897   1.137
  270TIP3    H1  753   8.043   1.830   1.181
  270TIP3    H2  754   8.013   1.978   1.181
  271TIP3   OH2  755   7.054   4.200   5.043
  271TIP3    H1  756   7.135   4.188   4.994
  271TIP3    H2  757   7.005   4.118   5.029
  272TIP3   OH2  758   4.227   0.999   5.268
  272TIP3    H1  759   4.246   1.033   5.180
  272TIP3    H2  760   4.307   1.018   5.318
  273TIP3   OH2  761   7.865   2.224   1.512
  273TIP3    H1  762   7.932   2.211   1.579
  273TIP3    H2  763   7.782   2.212   1.558
  274TIP3   OH2  764   4.192   6.769   3.431
  274TIP3    H1  765   4.104   6.735   3.412
  274TIP3    H2  766   4.225   6.712   3.500
  275TIP3   OH2  767   2.700   1.474   5.702
  275TIP3    H1  768   2.696   1.408   5.634
  275TIP3    H2  769   2.617   1.522   5.694
  276TIP3   OH2  770   7.867   3.933   6.688
  276TIP3    H1  771   7.946   3.982   6.709
  276TIP3    H2  772   7.887   3.891   6.604
  277TIP3   OH2  773   0.842   0.254   3.763
  277TIP3    H1  774   0.811   0.252   3.672
  277TIP3    H2  775   0.826   0.345   3.791
  278TIP3   OH2  776   7.813   4.022   0.073
  278TIP3    H1  777   7.738   4.010   0.130
  278TIP3    H2  778   7.868   3.945   0.089
  279TIP3   OH2  779   5.017   1.771   2.452
  279TIP3    H1  780   5.030   1.721   2.371
  279TIP3    H2  781   4.923   1.790   2.453
  280TIP3   OH2  782   0.715   2.345   4.262
  280TIP3    H1  783   0.800   2.324   4.224
  280TIP3    H2  784   0.734   2.406   4.333
  281TIP3   OH2  785   0.369   4.992   5.621
  281TIP3    H1  786   0.376   4.897   5.624
  281TIP3    H2  787   0.288   5.009   5.573
  282TIP3   OH2  788   3.993   0.193   3.513
  282TIP3    H1  789   3.996   0.140   3.593
  282TIP3    H2  790   3.935   0.266   3.535
  283TIP3   OH2  791   6.191   2.577   1.392
  283TIP3    H1  792   6.239   2.629   1.456
  283TIP3    H2  793   6.257   2.554   1.326
  284TIP3   OH2  794   0.199   3.844   3.822
  284TIP3    H1  795   0.268   3.878   3.765
  284TIP3    H2  796   0.236   3.849   3.910
  285TIP3   OH2  797   2.821   4.213   1.365
  285TIP3    H1  798   2.856   4.125   1.377
  285TIP3    H2  799   2.829   4.255   1.451
  286TIP3   OH2  800   6.056   5.758   6.079
  286TIP3    H1  801   6.124   5.719   6.134
  286TIP3    H2  802   6.050   5.700   6.003
  287TIP3   OH2  803   6.014   0.320   5.261
  287TIP3    H1  804   6.104   0.352   5.267
  287TIP3    H2  805   5.960   0.396   5.283
  288TIP3   OH2  806   5.250   4.379   5.054
  288TIP3    H1  807   5.325   4.322   5.044
  288TIP3    H2  808   5.197   4.365   4.976
  289TIP3   OH2  809   5.139   6.850   0.769
  289TIP3    H1  810   5.087   6.780   0.730
  289TIP3    H2  811   5.113   6.929   0.722
  290TIP3   OH2  812   6.640   6.100   5.295
  290TIP3    H1  813   6.701   6.026   5.301
  290TIP3    H2  814   6.689   6.167   5.247
  291TIP3   OH2  815   7.094   4.468   0.052
  291TIP3    H1  816   7.118   4.376   0.066
  291TIP3    H2  817   7.051   4.494   0.133
  292TIP3   OH2  818   7.370   0.106   4.751
  292TIP3    H1  819   7.400   0.187   4.791
  292TIP3    H2  820   7.313   0.066   4.817
  293TIP3   OH2  821   8.067   5.415   2.099
  293TIP3    H1  822   8.108   5.459   2.173
  293TIP3    H2  823   8.139   5.367   2.057
  294TIP3   OH2  824   6.641   1.425   6.741
  294TIP3    H1  825   6.632   1.490   6.810
  294TIP3    H2  826   6.606   1.344   6.779
  295TIP3   OH2  827   4.888   0.208   5.118
  295TIP3    H1  828   4.838   0.150   5.061
  295TIP3    H2  829   4.822   0.259   5.166
  296TIP3   OH2  830   4.262   1.764   2.846
  296TIP3    H1  831   4.349   1.724   2.835
  296TIP3    H2  832   4.271   1.852   2.811
  297TIP3   OH2  833   0.803   7.446   1.215
  297TIP3    H1  834   0.880   7.450   1.272
  297TIP3    H2  835   0.767   7.358   1.228
  298TIP3   OH2  836   4.178   5.726   5.365
  298TIP3    H1  837   4.195   5.781   5.288
  298TIP3    H2  838   4.254   5.668   5.371
  299TIP3   OH2  839   5.642   2.903   3.074
  299TIP3    H1  840   5.649   2.835   3.007
  299TIP3    H2  841   5.562   2.881   3.122
  300TIP3   OH2  842   2.476   7.835   3.465
  300TIP3    H1  843   2.410   7.878   3.519
  300TIP3    H2  844   2.444   7.745   3.454
  301TIP3   OH2  845   5.663   5.983   4.232
  301TIP3    H1  846   5.627   6.066   4.262
  301TIP3    H2  847   5.689   6.000   4.141
  302TIP3   OH2  848   0.459   0.209   4.494
  302TIP3    H1  849   0.483   0.295   4.528
  302TIP3    H2  850   0.365   0.203   4.510
  303TIP3   OH2  851   6.642   6.899   5.479
  303TIP3    H1  852   6.602   6.817   5.510
  303TIP3    H2  853   6.731   6.896   5.512
  304TIP3   OH2  854   6.459   7.109   6.161
  304TIP3    H1  855   6.372   7.125   6.125
  304TIP3    H2  856   6.517   7.167   6.112
  305TIP3   OH2  857   7.254   5.616   2.935
  305TIP3    H1  858   7.331   5.563   2.914
  305TIP3    H2  859   7.227   5.587   3.022
  306TIP3   OH2  860   0.519   5.547   6.387
  306TIP3    H1  861   0.565   5.564   6.304
  306TIP3    H2  862   0.532   5.454   6.403
  307TIP3   OH2  863   4.496   5.800   5.139
  307TIP3    H1  864   4.449   5.717   5.135
  307TIP3    H2  865   4.551   5.793   5.217
  308TIP3   OH2  866   0.382   6.043   4.198
  308TIP3    H1  867   0.397   6.134   4.173
  308TIP3    H2  868   0.468   6.010   4.221
  309TIP3   OH2  869   2.796   7.564   1.803
  309TIP3    H1  870   2.835   7.582   1.718
  309TIP3    H2  871   2.705   7.544   1.784
  310TIP3   OH2  872   5.287   4.498   1.374
  310TIP3    H1  873   5.327   4.583   1.356
  310TIP3    H2  874   5.193   4.512   1.357
  311TIP3   OH2  875   0.674   3.769   2.570
  311TIP3    H1  876   0.592   3.720   2.571
  311TIP3    H2  877   0.726   3.727   2.502
  312TIP3   OH2  878   0.940   2.230   1.767
  312TIP3    H1  879   0.954   2.311   1.719
  312TIP3    H2  880   0.880   2.179   1.713
  313TIP3   OH2  881   3.613   4.894   0.302
  313TIP3    H1  882   3.549   4.825   0.317
  313TIP3    H2  883   3.698   4.850   0.309
  314TIP3   OH2  884   1.797   0.589   4.917
  314TIP3    H1  885   1.872   0.549   4.874
  314TIP3    H2  886   1.817   0.683   4.917
  315TIP3   OH2  887   6.411   7.630   6.661
  315TIP3    H1  888   6.323   7.593   6.654
  315TIP3    H2  889   6.441   7.605   6.749
  316TIP3   OH2  890   5.499   7.601   0.297
  316TIP3    H1  891   5.590   7.617   0.323
  316TIP3    H2  892   5.446   7.636   0.369
  317TIP3   OH2  893   4.413   3.608   5.905
  317TIP3    H1  894   4.431   3.633   5.815
  317TIP3    H2  895   4.423   3.689   5.955
  318TIP3   OH2  896   7.545   5.164   4.889
  318TIP3    H1  897   7.470   5.221   4.871
  318TIP3    H2  898   7.564   5.122   4.805
  319TIP3   OH2  899   6.559   2.975   6.779
  319TIP3    H1  900   6.586   3.066   6.791
  319TIP3    H2  901   6.557   2.963   6.684
  320TIP3   OH2  902   0.303   7.328   3.672
  320TIP3    H1  903   0.217   7.309   3.634
  320TIP3    H2  904   0.352   7.369   3.600
  321TIP3   OH2  905   7.450   2.378   3.032
  321TIP3    H1  906   7.361   2.401   3.060
  321TIP3    H2  907   7.459   2.285   3.053
  322TIP3   OH2  908   5.678   0.155   4.258
  322TIP3    H1  909   5.598   0.117   4.223
  322TIP3    H2  910   5.652   0.192   4.343
  323TIP3   OH2  911   4.780   4.484   2.066
  323TIP3    H1  912   4.690   4.517   2.069
  323TIP3    H2  913   4.775   4.394   2.099
  324TIP3   OH2  914   6.826   0.799   1.027
  324TIP3    H1  915   6.886   0.745   1.078
  324TIP3    H2  916   6.868   0.808   0.942
  325TIP3   OH2  917   3.325   3.238   0.087
  325TIP3    H1  918   3.252   3.191   0.047
  325TIP3    H2  919   3.396   3.230   0.023
  326TIP3   OH2  920   0.241   0.440   0.765
  326TIP3    H1  921   0.236   0.496   0.688
  326TIP3    H2  922   0.314   0.380   0.747
  327TIP3   OH2  923   1.766   0.135   3.248
  327TIP3    H1  924   1.739   0.222   3.220
  327TIP3    H2  925   1.807   0.149   3.333
  328TIP3   OH2  926   7.392   7.666   1.317
  328TIP3    H1  927   7.321   7.725   1.343
  328TIP3    H2  928   7.472   7.711   1.344
  329TIP3   OH2  929   6.350   4.386   5.429
  329TIP3    H1  930   6.375   4.466   5.474
  329TIP3    H2  931   6.430   4.334   5.425
  330TIP3   OH2  932   5.986   2.986   4.660
  330TIP3    H1  933   5.896   3.003   4.630
  330TIP3    H2  934   6.017   2.915   4.604
  331TIP3   OH2  935   1.517   7.063   6.717
  331TIP3    H1  936   1.610   7.046   6.735
  331TIP3    H2  937   1.513   7.072   6.622
  332TIP3   OH2  938   2.389   6.136   0.717
  332TIP3    H1  939   2.455   6.089   0.767
  332TIP3    H2  940   2.306   6.096   0.743
  333TIP3   OH2  941   5.846   6.538   2.583
  333TIP3    H1  942   5.800   6.598   2.641
  333TIP3    H2  943   5.820   6.451   2.612
  334TIP3   OH2  944   5.101   1.199   2.722
  334TIP3    H1  945   5.146   1.279   2.696
  334TIP3    H2  946   5.010   1.214   2.697
  335TIP3   OH2  947   1.812   5.252   6.220
  335TIP3    H1  948   1.885   5.272   6.279
  335TIP3    H2  949   1.759   5.332   6.221
  336TIP3   OH2  950   6.138   2.232   6.175
  336TIP3    H1  951   6.105   2.199   6.091
  336TIP3    H2  952   6.218   2.279   6.153
  337TIP3   OH2  953   0.454   7.102   0.770
  337TIP3    H1  954   0.481   7.127   0.858
  337TIP3    H2  955   0.358   7.102   0.773
  338TIP3   OH2  956   1.759   6.865   1.841
  338TIP3    H1  957   1.740   6.820   1.758
  338TIP3    H2  958   1.854   6.858   1.851
  339TIP3   OH2  959   6.128   7.726   0.955
  339TIP3    H1  960   6.134   7.705   0.862
  339TIP3    H2  961   6.185   7.662   0.998
  340TIP3   OH2  962   7.014   6.688   1.113
  340TIP3    H1  963   6.935   6.635   1.102
  340TIP3    H2  964   7.015   6.746   1.037
  341TIP3   OH2  965   2.037   7.754   1.121
  341TIP3    H1  966   1.987   7.798   1.189
  341TIP3    H2  967   1.993   7.777   1.039
  342TIP3   OH2  968   1.017   5.555   5.707
  342TIP3    H1  969   1.062   5.625   5.658
  342TIP3    H2  970   0.925   5.566   5.685
  343TIP3   OH2  971   1.178   3.430   0.923
  343TIP3    H1  972   1.116   3.375   0.971
  343TIP3    H2  973   1.123   3.484   0.866
  344TIP3   OH2  974   4.208   0.980   1.677
  344TIP3    H1  975   4.258   0.898   1.670
  344TIP3    H2  976   4.271   1.049   1.658
  345TIP3   OH2  977   0.088   3.165   3.641
  345TIP3    H1  978   0.024   3.095   3.632
  345TIP3    H2  979   0.069   3.205   3.726
  346TIP3   OH2  980   0.872   2.053   5.379
  346TIP3    H1  981   0.907   2.017   5.297
  346TIP3    H2  982   0.945   2.100   5.418
  347TIP3   OH2  983   5.591   3.075   3.764
  347TIP3    H1  984   5.664   3.106   3.710
  347TIP3    H2  985   5.539   3.020   3.705
  348TIP3   OH2  986   5.557   1.156   5.697
  348TIP3    H1  987   5.620   1.228   5.692
  348TIP3    H2  988   5.517   1.154   5.609
  349TIP3   OH2  989   7.380   3.795   2.736
  349TIP3    H1  990   7.429   3.742   2.673
  349TIP3    H2  991   7.305   3.829   2.686
  350TIP3   OH2  992   5.009   4.876   0.703
  350TIP3    H1  993   5.097   4.855   0.734
  350TIP3    H2  994   4.980   4.798   0.657
  351TIP3   OH2  995   8.343   7.199   5.449
  351TIP3    H1  996   8.263   7.210   5.499
  351TIP3    H2  997   8.346   7.106   5.426
  352TIP3   OH2  998   1.401   4.459   5.955
  352TIP3    H1  999   1.323   4.422   5.997
  352TIP3    H2 1000   1.474   4.424   6.004
  353TIP3   OH2 1001   6.212   3.393   0.662
  353TIP3    H1 1002   6.194   3.342   0.583
  353TIP3    H2 1003   6.131   3.442   0.677
  354TIP3   OH2 1004   7.718   5.872   0.189
  354TIP3    H1 1005   7.723   5.968   0.187
  354TIP3    H2 1006   7.758   5.847   0.272
  355TIP3   OH2 1007   5.105   7.745   3.304
  355TIP3    H1 1008   5.201   7.752   3.302
  355TIP3    H2 1009   5.082   7.758   3.396
  356TIP3   OH2 1010   0.987   2.861   2.410
  356TIP3    H1 1011   0.930   2.798   2.366
  356TIP3    H2 1012   0.967   2.945   2.368
  357TIP3   OH2 1013   6.489   5.458   4.166
  357TIP3    H1 1014   6.574   5.432   4.131
  357TIP3    H2 1015   6.440   5.488   4.089
  358TIP3   OH2 1016   3.102   4.291   2.332
  358TIP3    H1 1017   3.156   4.218   2.301
  358TIP3    H2 1018   3.114   4.359   2.266
  359TIP3   OH2 1019   3.059   1.952   4.621
  359TIP3    H1 1020   3.125   1.899   4.576
  359TIP3    H2 1021   3.002   1.888   4.663
  360TIP3   OH2 1022   4.038   1.971   3.847
  360TIP3    H1 1023   4.051   1.886   3.890
  360TIP3    H2 1024   3.975   1.952   3.777
  361TIP3   OH2 1025   1.188   6.803   6.278
  361TIP3    H1 1026   1.167   6.882   6.228
  361TIP3    H2 1027   1.202   6.735   6.212
  362TIP3   OH2 1028   6.346   4.493   4.231
  362TIP3    H1 1029   6.266   4.442   4.219
  362TIP3    H2 1030   6.384   4.499   4.144
  363TIP3   OH2 1031   4.674   3.015   5.561
  363TIP3    H1 1032   4.596   2.991   5.611
  363TIP3    H2 1033   4.642   3.024   5.471
  364TIP3   OH2 1034   5.289   6.570   2.666
  364TIP3    H1 1035   5.317   6.657   2.638
  364TIP3    H2 1036   5.268   6.580   2.759
  365TIP3   OH2 1037   3.006   5.680   0.164
  365TIP3    H1 1038   3.049   5.627   0.232
  365TIP3    H2 1039   2.914   5.656   0.169
  366TIP3   OH2 1040   2.726  -0.041   0.810
  366TIP3    H1 1041   2.778  -0.088   0.745
  366TIP3    H2 1042   2.788   0.019   0.852
  367TIP3   OH2 1043   2.534   6.298   3.479
  367TIP3    H1 1044   2.461   6.250   3.440
  367TIP3    H2 1045   2.495   6.347   3.551
  368TIP3   OH2 1046   2.084   6.218   4.531
  368TIP3    H1 1047   2.129   6.269   4.599
  368TIP3    H2 1048   2.093   6.270   4.452
  369TIP3   OH2 1049   3.252   5.694   1.675
  369TIP3    H1 1050   3.300   5.731   1.748
  369TIP3    H2 1051   3.226   5.770   1.622
  370TIP3   OH2 1052   0.991   3.145   3.045
  370TIP3    H1 1053   1.070   3.178   3.087
  370TIP3    H2 1054   0.929   3.218   3.051
  371TIP3   OH2 1055   4.136   0.223   2.510
  371TIP3    H1 1056   4.111   0.133   2.528
  371TIP3    H2 1057   4.125   0.233   2.415
  372TIP3   OH2 1058   0.567   1.637   1.804
  372TIP3    H1 1059   0.556   1.560   1.748
  372TIP3    H2 1060   0.612   1.604   1.882
  373TIP3   OH2 1061   1.333   2.735   5.762
  373TIP3    H1 1062   1.415   2.687   5.757
  373TIP3    H2 1063   1.359   2.826   5.778
  374TIP3   OH2 1064   3.042   0.683   4.850
  374TIP3    H1 1065   2.977   0.678   4.780
  374TIP3    H2 1066   3.120   0.643   4.812
  375TIP3   OH2 1067   8.025   4.788   2.105
  375TIP3    H1 1068   7.974   4.857   2.147
  375TIP3    H2 1069   8.017   4.806   2.011
  376TIP3   OH2 1070   7.968   5.793   3.678
  376TIP3    H1 1071   7.946   5.718   3.623
  376TIP3    H2 1072   7.883   5.836   3.694
  377TIP3   OH2 1073   7.707   3.357   3.111
  377TIP3    H1 1074   7.678   3.349   3.201
  377TIP3    H2 1075   7.726   3.450   3.100
  378TIP3   OH2 1076   7.475   6.746   2.254
  378TIP3    H1 1077   7.453   6.658   2.285
  378TIP3    H2 1078   7.514   6.732   2.168
  379TIP3   OH2 1079   4.924   2.448   6.063
  379TIP3    H1 1080   4.983   2.376   6.086
  379TIP3    H2 1081   4.839   2.406   6.052
  380TIP3   OH2 1082   6.300   4.665   1.738
  380TIP3    H1 1083   6.242   4.734   1.708
  380TIP3    H2 1084   6.242   4.596   1.771
  381TIP3   OH2 1085   4.562   3.651   4.155
  381TIP3    H1 1086   4.630   3.649   4.222
  381TIP3    H2 1087   4.492   3.705   4.193
  382TIP3   OH2 1088   1.383   3.240   2.992
  382TIP3    H1 1089   1.394   3.328   3.028
  382TIP3    H2 1090   1.464   3.195   3.016
  383TIP3   OH2 1091   8.163   2.893   2.735
  383TIP3    H1 1092   8.111   2.972   2.722
  383TIP3    H2 1093   8.228   2.918   2.802
  384TIP3   OH2 1094   7.070   7.837   6.293
  384TIP3    H1 1095   7.142   7.851   6.354
  384TIP3    H2 1096   7.026   7.759   6.327
  385TIP3   OH2 1097   1.913   1.131   5.306
  385TIP3    H1 1098   1.834   1.155   5.258
  385TIP3    H2 1099   1.949   1.214   5.337
  386TIP3   OH2 1100   5.210   6.236   6.280
  386TIP3    H1 1101   5.164   6.152   6.275
  386TIP3    H2 1102   5.303   6.213   6.277
  387TIP3   OH2 1103   3.136   2.124   1.427
  387TIP3    H1 1104   3.065   2.163   1.375
  387TIP3    H2 1105   3.165   2.049   1.374
  388TIP3   OH2 1106   8.267   0.748   2.110
  388TIP3    H1 1107   8.211   0.674   2.088
  388TIP3    H2 1108   8.248   0.765   2.202
  389TIP3   OH2 1109   4.070   2.799   1.526
  389TIP3    H1 1110   4.133   2.859   1.566
  389TIP3    H2 1111   4.060   2.728   1.590
  390TIP3   OH2 1112   1.163   2.352   4.878
  390TIP3    H1 1113   1.079   2.306   4.883
  390TIP3    H2 1114   1.164   2.390   4.791
  391TIP3   OH2 1115   7.207   4.949   4.437
  391TIP3    H1 1116   7.169   4.878   4.385
  391TIP3    H2 1117   7.148   4.957   4.512
  392TIP3   OH2 1118   6.975   2.965   1.403
  392TIP3    H1 1119   7.048   3.024   1.385
  392TIP3    H2 1120   7.010   2.904   1.468
  393TIP3   OH2 1121   6.904   4.166   0.336
  393TIP3    H1 1122   6.819   4.121   0.342
  393TIP3    H2 1123   6.881   4.258   0.324
  394TIP3   OH2 1124   5.622   3.636   5.569
  394TIP3    H1 1125   5.633   3.653   5.662
  394TIP3    H2 1126   5.554   3.569   5.565
  395TIP3   OH2 1127   3.098   5.205   2.062
  395TIP3    H1 1128   3.024   5.208   2.000
  395TIP3    H2 1129   3.098   5.291   2.103
  396TIP3   OH2 1130   7.058   3.364   6.278
  396TIP3    H1 1131   7.028   3.352   6.188
  396TIP3    H2 1132   7.008   3.300   6.329
  397TIP3   OH2 1133   3.480   3.475   0.717
  397TIP3    H1 1134   3.423   3.490   0.642
  397TIP3    H2 1135   3.471   3.554   0.771
  398TIP3   OH2 1136   5.017   2.088   1.344
  398TIP3    H1 1137   5.034   2.182   1.354
  398TIP3    H2 1138   4.972   2.081   1.259
  399TIP3   OH2 1139   6.976   4.396   3.056
  399TIP3    H1 1140   6.904   4.439   3.010
  399TIP3    H2 1141   7.034   4.365   2.987
  400TIP3   OH2 1142   0.828   3.734   4.367
  400TIP3    H1 1143   0.795   3.687   4.443
  400TIP3    H2 1144   0.764   3.715   4.298
  401TIP3   OH2 1145   7.656   5.926   4.122
  401TIP3    H1 1146   7.719   5.914   4.193
  401TIP3    H2 1147   7.599   5.849   4.127
  402TIP3   OH2 1148   7.996   2.357   6.592
  402TIP3    H1 1149   8.088   2.346   6.617
  402TIP3    H2 1150   7.989   2.450   6.569
  403TIP3   OH2 1151   7.883   3.100   0.655
  403TIP3    H1 1152   7.974   3.073   0.664
  403TIP3    H2 1153   7.849   3.045   0.584
  404TIP3   OH2 1154   7.111   0.511   1.695
  404TIP3    H1 1155   7.100   0.417   1.712
  404TIP3    H2 1156   7.044   0.531   1.630
  405TIP3   OH2 1157   0.745   4.862   1.051
  405TIP3    H1 1158   0.738   4.849   0.956
  405TIP3    H2 1159   0.814   4.927   1.061
  406TIP3   OH2 1160   2.961   4.641   5.143
  406TIP3    H1 1161   3.019   4.649   5.218
  406TIP3    H2 1162   2.906   4.719   5.147
  407TIP3   OH2 1163   1.627   4.890   3.839
  407TIP3    H1 1164   1.656   4.981   3.832
  407TIP3    H2 1165   1.619   4.875   3.933
  408TIP3   OH2 1166   1.009   5.295   2.447
  408TIP3    H1 1167   0.943   5.258   2.388
  408TIP3    H2 1168   0.984   5.262   2.533
  409TIP3   OH2 1169   8.034   4.491   2.074
  409TIP3    H1 1170   7.981   4.500   2.153
  409TIP3    H2 1171   7.977   4.520   2.003
  410TIP3   OH2 1172   4.050   7.392   4.860
  410TIP3    H1 1173   4.003   7.455   4.805
  410TIP3    H2 1174   4.015   7.407   4.948
  411TIP3   OH2 1175   8.293   6.777   2.226
  411TIP3    H1 1176   8.251   6.802   2.144
  411TIP3    H2 1177   8.220   6.751   2.283
  412TIP3   OH2 1178   5.978   3.695   1.382
  412TIP3    H1 1179   5.962   3.790   1.374
  412TIP3    H2 1180   6.010   3.684   1.471
  413TIP3   OH2 1181   3.792   4.252   0.063
  413TIP3    H1 1182   3.725   4.275  -0.001
  413TIP3    H2 1183   3.843   4.333   0.074
  414TIP3   OH2 1184   4.368   4.763   6.245
  414TIP3    H1 1185   4.393   4.766   6.337
  414TIP3    H2 1186   4.400   4.846   6.209
  415TIP3   OH2 1187   0.131   0.535   1.010
  415TIP3    H1 1188   0.194   0.599   1.042
  415TIP3    H2 1189   0.168   0.504   0.927
  416TIP3   OH2 1190   0.174   1.993   5.759
  416TIP3    H1 1191   0.126   1.981   5.677
  416TIP3    H2 1192   0.149   2.082   5.787
  417TIP3   OH2 1193   6.826   2.727   3.429
  417TIP3    H1 1194   6.832   2.767   3.342
  417TIP3    H2 1195   6.785   2.642   3.413
  418TIP3   OH2 1196   4.304   0.989   6.785
  418TIP3    H1 1197   4.249   1.005   6.709
  418TIP3    H2 1198   4.244   0.961   6.854
  419TIP3   OH2 1199   2.330   2.224   5.809
  419TIP3    H1 1200   2.349   2.142   5.763
  419TIP3    H2 1201   2.262   2.266   5.756
  420TIP3   OH2 1202   5.252   0.395   0.532
  420TIP3    H1 1203   5.193   0.373   0.460
  420TIP3    H2 1204   5.315   0.323   0.535
  421TIP3   OH2 1205   2.069   1.543   0.726
  421TIP3    H1 1206   2.134   1.541   0.796
  421TIP3    H2 1207   2.120   1.546   0.646
  422TIP3   OH2 1208   1.707   0.038   4.606
  422TIP3    H1 1209   1.762   0.092   4.662
  422TIP3    H2 1210   1.624   0.085   4.601
  423TIP3   OH2 1211   4.647   0.991   0.925
  423TIP3    H1 1212   4.719   0.930   0.909
  423TIP3    H2 1213   4.642   0.998   1.020
  424TIP3   OH2 1214   0.032   4.309   0.088
  424TIP3    H1 1215   0.076   4.288   0.171
  424TIP3    H2 1216  -0.045   4.360   0.114
  425TIP3   OH2 1217   0.971   6.158   6.195
  425TIP3    H1 1218   1.032   6.225   6.165
  425TIP3    H2 1219   1.011   6.076   6.166
  426TIP3   OH2 1220   5.957   5.990   2.480
  426TIP3    H1 1221   5.957   5.900   2.447
  426TIP3    H2 1222   5.946   6.044   2.401
  427TIP3   OH2 1223   2.067   0.127   3.371
  427TIP3    H1 1224   2.133   0.083   3.318
  427TIP3    H2 1225   2.090   0.104   3.461
  428TIP3   OH2 1226   0.272   4.812   4.717
  428TIP3    H1 1227   0.238   4.822   4.806
  428TIP3    H2 1228   0.367   4.817   4.727
  429TIP3   OH2 1229   7.545   6.360   6.290
  429TIP3    H1 1230   7.569   6.441   6.245
  429TIP3    H2 1231   7.619   6.302   6.275
  430TIP3   OH2 1232   5.805   5.672   1.782
  430TIP3    H1 1233   5.720   5.642   1.814
  430TIP3    H2 1234   5.784   5.742   1.721
  431TIP3   OH2 1235   6.590   4.969   2.923
  431TIP3    H1 1236   6.502   4.983   2.956
  431TIP3    H2 1237   6.599   5.031   2.851
  432TIP3   OH2 1238   3.855   2.962   3.935
  432TIP3    H1 1239   3.892   2.874   3.940
  432TIP3    H2 1240   3.875   2.992   3.847
  433TIP3   OH2 1241   6.046   6.859   3.929
  433TIP3    H1 1242   6.002   6.864   3.844
  433TIP3    H2 1243   5.977   6.834   3.990
  434TIP3   OH2 1244   2.888   2.743   1.158
  434TIP3    H1 1245   2.953   2.812   1.175
  434TIP3    H2 1246   2.939   2.662   1.160
  435TIP3   OH2 1247   7.670   1.612   4.318
  435TIP3    H1 1248   7.699   1.684   4.262
  435TIP3    H2 1249   7.575   1.624   4.326
  436TIP3   OH2 1250   4.646   4.698   6.326
  436TIP3    H1 1251   4.606   4.688   6.412
  436TIP3    H2 1252   4.706   4.772   6.336
  437TIP3   OH2 1253   3.995   1.077   0.765
  437TIP3    H1 1254   4.041   1.145   0.715
  437TIP3    H2 1255   3.923   1.123   0.808
  438TIP3   OH2 1256   7.502   3.609   2.563
  438TIP3    H1 1257   7.565   3.540   2.584
  438TIP3    H2 1258   7.433   3.565   2.515
  439TIP3   OH2 1259   3.911   3.581   0.969
  439TIP3    H1 1260   3.971   3.565   1.042
  439TIP3    H2 1261   3.905   3.496   0.924
  440TIP3   OH2 1262   2.652   6.528   1.209
  440TIP3    H1 1263   2.629   6.478   1.131
  440TIP3    H2 1264   2.595   6.605   1.206
  441TIP3   OH2 1265   3.597   0.263   4.579
  441TIP3    H1 1266   3.629   0.201   4.644
  441TIP3    H2 1267   3.583   0.211   4.500
  442TIP3   OH2 1268   7.718   3.916   1.640
  442TIP3    H1 1269   7.676   3.882   1.562
  442TIP3    H2 1270   7.699   3.851   1.708
  443TIP3   OH2 1271   4.469   1.146   2.326
  443TIP3    H1 1272   4.430   1.067   2.287
  443TIP3    H2 1273   4.527   1.112   2.395
  444TIP3   OH2 1274   6.918   6.580   2.275
  444TIP3    H1 1275   6.826   6.571   2.252
  444TIP3    H2 1276   6.936   6.673   2.268
  445TIP3   OH2 1277   4.359   6.270   1.419
  445TIP3    H1 1278   4.301   6.233   1.352
  445TIP3    H2 1279   4.443   6.227   1.403
  446TIP3   OH2 1280   6.126   4.710   1.090
  446TIP3    H1 1281   6.140   4.759   1.009
  446TIP3    H2 1282   6.212   4.710   1.133
  447TIP3   OH2 1283   1.156   0.300   2.137
  447TIP3    H1 1284   1.067   0.272   2.117
  447TIP3    H2 1285   1.212   0.248   2.080
  448TIP3   OH2 1286   2.635   1.918   3.965
  448TIP3    H1 1287   2.640   1.822   3.968
  448TIP3    H2 1288   2.553   1.939   4.011
  449TIP3   OH2 1289   7.500   7.015   5.740
  449TIP3    H1 1290   7.528   7.043   5.653
  449TIP3    H2 1291   7.574   6.962   5.772
  450TIP3   OH2 1292   4.559   7.548   1.267
  450TIP3    H1 1293   4.513   7.620   1.224
  450TIP3    H2 1294   4.512   7.535   1.349
  451TIP3   OH2 1295   3.543   5.903   5.729
  451TIP3    H1 1296   3.485   5.919   5.654
  451TIP3    H2 1297   3.631   5.913   5.694
  452TIP3   OH2 1298   3.860   3.213   1.949
  452TIP3    H1 1299   3.887   3.235   1.860
  452TIP3    H2 1300   3.929   3.156   1.982
  453TIP3   OH2 1301   3.887   1.368   2.803
  453TIP3    H1 1302   3.936   1.286   2.796
  453TIP3    H2 1303   3.948   1.429   2.844
  454TIP3   OH2 1304   1.491   7.229   6.459
  454TIP3    H1 1305   1.482   7.211   6.365
  454TIP3    H2 1306   1.583   7.214   6.478
  455TIP3   OH2 1307   2.410   7.121   3.481
  455TIP3    H1 1308   2.378   7.195   3.532
  455TIP3    H2 1309   2.351   7.118   3.405
  456TIP3   OH2 1310   3.257   5.336   0.407
  456TIP3    H1 1311   3.327   5.271   0.395
  456TIP3    H2 1312   3.231   5.325   0.498
  457TIP3   OH2 1313   6.696   1.933   3.738
  457TIP3    H1 1314   6.621   1.915   3.794
  457TIP3    H2 1315   6.679   2.019   3.701
  458TIP3   OH2 1316   5.561   1.754   6.715
  458TIP3    H1 1317   5.489   1.805   6.678
  458TIP3    H2 1318   5.624   1.747   6.643
  459TIP3   OH2 1319   7.763   5.521   1.689
  459TIP3    H1 1320   7.748   5.602   1.640
  459TIP3    H2 1321   7.745   5.544   1.780
  460TIP3   OH2 1322   6.704   6.692   2.118
  460TIP3    H1 1323   6.619   6.649   2.128
  460TIP3    H2 1324   6.684   6.785   2.116
  461TIP3   OH2 1325   2.594   2.888   4.135
  461TIP3    H1 1326   2.560   2.902   4.047
  461TIP3    H2 1327   2.628   2.799   4.134
  462TIP3   OH2 1328   4.460   5.595   1.174
  462TIP3    H1 1329   4.554   5.612   1.181
  462TIP3    H2 1330   4.439   5.613   1.083
  463TIP3   OH2 1331   3.337   3.666   5.505
  463TIP3    H1 1332   3.390   3.631   5.576
  463TIP3    H2 1333   3.253   3.622   5.514
  464TIP3   OH2 1334   7.477   5.744   1.643
  464TIP3    H1 1335   7.455   5.656   1.674
  464TIP3    H2 1336   7.396   5.778   1.605
  465TIP3   OH2 1337   3.617   1.259   2.916
  465TIP3    H1 1338   3.659   1.274   3.001
  465TIP3    H2 1339   3.685   1.277   2.852
  466TIP3   OH2 1340   7.050   1.638   0.280
  466TIP3    H1 1341   7.110   1.608   0.348
  466TIP3    H2 1342   6.975   1.578   0.286
  467TIP3   OH2 1343   6.811   5.271   0.166
  467TIP3    H1 1344   6.802   5.218   0.086
  467TIP3    H2 1345   6.844   5.210   0.232
  468TIP3   OH2 1346   1.263   5.728   5.287
  468TIP3    H1 1347   1.242   5.650   5.337
  468TIP3    H2 1348   1.354   5.715   5.261
  469TIP3   OH2 1349   3.090   2.756   4.865
  469TIP3    H1 1350   3.052   2.812   4.932
  469TIP3    H2 1351   3.178   2.791   4.851
  470TIP3   OH2 1352   2.791   1.215   2.119
  470TIP3    H1 1353   2.713   1.220   2.065
  470TIP3    H2 1354   2.802   1.304   2.154
  471TIP3   OH2 1355   5.199   3.355   6.355
  471TIP3    H1 1356   5.175   3.400   6.436
  471TIP3    H2 1357   5.125   3.371   6.296
  472TIP3   OH2 1358   1.911   1.347   1.045
  472TIP3    H1 1359   1.953   1.281   0.990
  472TIP3    H2 1360   1.977   1.369   1.111
  473TIP3   OH2 1361   3.731   2.259   4.134
  473TIP3    H1 1362   3.681   2.308   4.199
  473TIP3    H2 1363   3.714   2.304   4.051
  474TIP3   OH2 1364   5.171   5.953   1.618
  474TIP3    H1 1365   5.246   5.895   1.629
  474TIP3    H2 1366   5.172   5.976   1.525
  475TIP3   OH2 1367   2.289   3.534   2.943
  475TIP3    H1 1368   2.273   3.628   2.936
  475TIP3    H2 1369   2.220   3.494   2.891
  476TIP3   OH2 1370   3.055   4.914   1.746
  476TIP3    H1 1371   3.030   4.988   1.690
  476TIP3    H2 1372   3.128   4.947   1.798
  477TIP3   OH2 1373   1.138   0.886   5.455
  477TIP3    H1 1374   1.172   0.951   5.394
  477TIP3    H2 1375   1.170   0.802   5.422
  478TIP3   OH2 1376   0.291   4.257   1.612
  478TIP3    H1 1377   0.202   4.248   1.646
  478TIP3    H2 1378   0.282   4.315   1.536
  479TIP3   OH2 1379   6.117   7.167   3.564
  479TIP3    H1 1380   6.083   7.100   3.504
  479TIP3    H2 1381   6.192   7.204   3.518
  480TIP3   OH2 1382   2.867   1.313   3.295
  480TIP3    H1 1383   2.818   1.281   3.219
  480TIP3    H2 1384   2.901   1.398   3.267
  481TIP3   OH2 1385   0.493   4.300   2.287
  481TIP3    H1 1386   0.571   4.313   2.341
  481TIP3    H2 1387   0.525   4.307   2.197
  482TIP3   OH2 1388   5.415   3.606   2.854
  482TIP3    H1 1389   5.389   3.654   2.932
  482TIP3    H2 1390   5.333   3.572   2.819
  483TIP3   OH2 1391   3.822   5.441   1.012
  483TIP3    H1 1392   3.766   5.518   0.996
  483TIP3    H2 1393   3.854   5.417   0.925
  484TIP3   OH2 1394   4.031   0.144   1.845
  484TIP3    H1 1395   4.049   0.222   1.896
  484TIP3    H2 1396   4.012   0.177   1.757
  485TIP3   OH2 1397   4.272   4.445   3.515
  485TIP3    H1 1398   4.274   4.464   3.421
  485TIP3    H2 1399   4.318   4.519   3.555
  486TIP3   OH2 1400   4.472   0.293   5.721
  486TIP3    H1 1401   4.403   0.351   5.689
  486TIP3    H2 1402   4.519   0.266   5.642
  487TIP3   OH2 1403   4.094   2.544   5.903
  487TIP3    H1 1404   4.176   2.583   5.934
  487TIP3    H2 1405   4.026   2.603   5.936
  488TIP3   OH2 1406   1.125   7.445   4.521
  488TIP3    H1 1407   1.077   7.450   4.438
  488TIP3    H2 1408   1.082   7.375   4.569
  489TIP3   OH2 1409   1.059   5.740   3.950
  489TIP3    H1 1410   1.151   5.716   3.945
  489TIP3    H2 1411   1.019   5.701   3.873
  490TIP3   OH2 1412   1.831   3.179   2.859
  490TIP3    H1 1413   1.925   3.164   2.854
  490TIP3    H2 1414   1.817   3.263   2.815
  491TIP3   OH2 1415   4.701   2.413   0.235
  491TIP3    H1 1416   4.710   2.457   0.319
  491TIP3    H2 1417   4.647   2.473   0.183
  492TIP3   OH2 1418   5.511   2.797   1.456
  492TIP3    H1 1419   5.568   2.810   1.532
  492TIP3    H2 1420   5.423   2.797   1.491
  493TIP3   OH2 1421   4.339   5.524   4.161
  493TIP3    H1 1422   4.280   5.467   4.210
  493TIP3    H2 1423   4.392   5.465   4.108
  494TIP3   OH2 1424   2.517   7.624   3.210
  494TIP3    H1 1425   2.486   7.551   3.264
  494TIP3    H2 1426   2.523   7.587   3.121
  495TIP3   OH2 1427   7.512   7.715   2.412
  495TIP3    H1 1428   7.532   7.808   2.426
  495TIP3    H2 1429   7.597   7.671   2.412
  496TIP3   OH2 1430   1.082   7.652   3.917
  496TIP3    H1 1431   1.151   7.588   3.932
  496TIP3    H2 1432   1.029   7.614   3.847
  497TIP3   OH2 1433   4.543   1.908   1.286
  497TIP3    H1 1434   4.524   1.987   1.337
  497TIP3    H2 1435   4.570   1.844   1.351
  498TIP3   OH2 1436   5.799   2.299   5.518
  498TIP3    H1 1437   5.745   2.250   5.456
  498TIP3    H2 1438   5.850   2.358   5.462
  499TIP3   OH2 1439   6.037   4.146   1.231
  499TIP3    H1 1440   6.096   4.196   1.288
  499TIP3    H2 1441   5.986   4.092   1.291
  500TIP3   OH2 1442   6.599   0.777   1.189
  500TIP3    H1 1443   6.686   0.784   1.151
  500TIP3    H2 1444   6.573   0.868   1.207
  501TIP3   OH2 1445   5.564   1.994   2.250
  501TIP3    H1 1446   5.546   1.942   2.171
  501TIP3    H2 1447   5.594   2.078   2.216
  502TIP3   OH2 1448   3.626   4.945   3.305
  502TIP3    H1 1449   3.625   5.041   3.297
  502TIP3    H2 1450   3.648   4.929   3.396
  503TIP3   OH2 1451   2.194   3.836   6.776
  503TIP3    H1 1452   2.239   3.920   6.771
  503TIP3    H2 1453   2.227   3.786   6.702
  504TIP3   OH2 1454   3.250   2.249   1.830
  504TIP3    H1 1455   3.252   2.296   1.913
  504TIP3    H2 1456   3.323   2.285   1.780
  505TIP3   OH2 1457   3.235   4.628   5.016
  505TIP3    H1 1458   3.157   4.659   5.062
  505TIP3    H2 1459   3.228   4.532   5.020
  506TIP3   OH2 1460   5.771   1.034   2.035
  506TIP3    H1 1461   5.729   0.977   1.971
  506TIP3    H2 1462   5.812   1.102   1.981
  507TIP3   OH2 1463   3.219   5.889   4.998
  507TIP3    H1 1464   3.231   5.799   5.030
  507TIP3    H2 1465   3.139   5.919   5.041
  508TIP3   OH2 1466   8.000   7.387   0.595
  508TIP3    H1 1467   7.988   7.313   0.655
  508TIP3    H2 1468   8.026   7.347   0.512
  509TIP3   OH2 1469   6.478   5.225   5.961
  509TIP3    H1 1470   6.476   5.189   5.872
  509TIP3    H2 1471   6.444   5.314   5.951
  510TIP3   OH2 1472   5.174   2.610   1.410
  510TIP3    H1 1473   5.129   2.690   1.383
  510TIP3    H2 1474   5.210   2.630   1.496
  511TIP3   OH2 1475   5.857   3.405   5.955
  511TIP3    H1 1476   5.897   3.424   5.870
  511TIP3    H2 1477   5.927   3.416   6.018
  512TIP3   OH2 1478   5.289   5.235   5.668
  512TIP3    H1 1479   5.375   5.259   5.704
  512TIP3    H2 1480   5.263   5.311   5.616
  513TIP3   OH2 1481   7.945   4.120   1.640
  513TIP3    H1 1482   7.873   4.079   1.688
  513TIP3    H2 1483   7.981   4.184   1.702
  514TIP3   OH2 1484   7.918   5.154   1.836
  514TIP3    H1 1485   7.901   5.217   1.906
  514TIP3    H2 1486   7.843   5.163   1.777
  515TIP3   OH2 1487   4.848   7.223   5.690
  515TIP3    H1 1488   4.846   7.173   5.609
  515TIP3    H2 1489   4.763   7.204   5.732
  516TIP3   OH2 1490   3.608   3.574   6.127
  516TIP3    H1 1491   3.641   3.663   6.120
  516TIP3    H2 1492   3.681   3.523   6.163
  517TIP3   OH2 1493   3.402   3.483   3.123
  517TIP3    H1 1494   3.440   3.443   3.202
  517TIP3    H2 1495   3.394   3.575   3.145
  518TIP3   OH2 1496   6.276   6.285   4.956
  518TIP3    H1 1497   6.312   6.261   4.871
  518TIP3    H2 1498   6.207   6.221   4.972
  519TIP3   OH2 1499   7.257   0.937   5.333
  519TIP3    H1 1500   7.302   0.854   5.350
  519TIP3    H2 1501   7.168   0.922   5.365
  520TIP3   OH2 1502   5.004   0.855   4.461
  520TIP3    H1 1503   4.967   0.940   4.487
  520TIP3    H2 1504   5.087   0.850   4.508
  521TIP3   OH2 1505   3.195   4.106   1.374
  521TIP3    H1 1506   3.143   4.177   1.337
  521TIP3    H2 1507   3.195   4.123   1.468
  522TIP3   OH2 1508   2.265   1.717   3.000
  522TIP3    H1 1509   2.302   1.639   3.042
  522TIP3    H2 1510   2.250   1.690   2.909
  523TIP3   OH2 1511   0.432   7.674   4.166
  523TIP3    H1 1512   0.442   7.769   4.158
  523TIP3    H2 1513   0.516   7.639   4.136
  524TIP3   OH2 1514   5.332   5.672   2.306
  524TIP3    H1 1515   5.343   5.678   2.401
  524TIP3    H2 1516   5.421   5.674   2.271
  525TIP3   OH2 1517   5.212   3.127   3.168
  525TIP3    H1 1518   5.227   3.177   3.248
  525TIP3    H2 1519   5.119   3.136   3.151
  526TIP3   OH2 1520   1.618   5.321   4.508
  526TIP3    H1 1521   1.628   5.235   4.466
  526TIP3    H2 1522   1.658   5.382   4.446
  527TIP3   OH2 1523   1.699   6.662   2.321
  527TIP3    H1 1524   1.732   6.616   2.244
  527TIP3    H2 1525   1.725   6.753   2.307
  528TIP3   OH2 1526   0.733   1.929   6.741
  528TIP3    H1 1527   0.809   1.912   6.797
  528TIP3    H2 1528   0.658   1.917   6.799
  529TIP3   OH2 1529   6.161   0.977   3.699
  529TIP3    H1 1530   6.131   0.909   3.639
  529TIP3    H2 1531   6.245   1.006   3.662
  530TIP3   OH2 1532   1.406   0.359   3.174
  530TIP3    H1 1533   1.344   0.356   3.101
  530TIP3    H2 1534   1.477   0.300   3.148
  531TIP3   OH2 1535   1.577   2.253   1.123
  531TIP3    H1 1536   1.557   2.276   1.032
  531TIP3    H2 1537   1.640   2.181   1.116
  532TIP3   OH2 1538   4.541   4.146   2.914
  532TIP3    H1 1539   4.572   4.056   2.907
  532TIP3    H2 1540   4.496   4.149   2.999
  533TIP3   OH2 1541   0.327   4.178   2.537
  533TIP3    H1 1542   0.375   4.253   2.571
  533TIP3    H2 1543   0.334   4.111   2.606
  534TIP3   OH2 1544   3.125   1.189   5.688
  534TIP3    H1 1545   3.082   1.167   5.771
  534TIP3    H2 1546   3.175   1.111   5.666
  535TIP3   OH2 1547   3.081   2.154   4.796
  535TIP3    H1 1548   3.113   2.227   4.743
  535TIP3    H2 1549   3.056   2.088   4.731
  536TIP3   OH2 1550   5.728   0.586   5.535
  536TIP3    H1 1551   5.673   0.664   5.538
  536TIP3    H2 1552   5.678   0.523   5.484
  537TIP3   OH2 1553   6.852   3.153   1.559
  537TIP3    H1 1554   6.923   3.218   1.562
  537TIP3    H2 1555   6.890   3.080   1.510
  538TIP3   OH2 1556   5.206   7.566   1.970
  538TIP3    H1 1557   5.263   7.546   2.044
  538TIP3    H2 1558   5.177   7.481   1.938
  539TIP3   OH2 1559   1.930   1.591   3.923
  539TIP3    H1 1560   1.958   1.607   4.014
  539TIP3    H2 1561   1.845   1.633   3.916
  540TIP3   OH2 1562   4.237   6.450   5.172
  540TIP3    H1 1563   4.326   6.415   5.164
  540TIP3    H2 1564   4.239   6.502   5.252
  541TIP3   OH2 1565   1.426   7.759   4.054
  541TIP3    H1 1566   1.516   7.756   4.087
  541TIP3    H2 1567   1.372   7.768   4.133
  542TIP3   OH2 1568   1.274   0.119   0.162
  542TIP3    H1 1569   1.304   0.109   0.072
  542TIP3    H2 1570   1.319   0.049   0.210
  543TIP3   OH2 1571   3.056   0.314   6.159
  543TIP3    H1 1572   3.115   0.364   6.216
  543TIP3    H2 1573   3.065   0.224   6.190
  544TIP3   OH2 1574   4.720   0.956   2.374
  544TIP3    H1 1575   4.739   0.889   2.439
  544TIP3    H2 1576   4.675   0.909   2.304
  545TIP3   OH2 1577   6.238   7.250   2.839
  545TIP3    H1 1578   6.182   7.217   2.769
  545TIP3    H2 1579   6.305   7.302   2.794
  546TIP3   OH2 1580   0.866   0.111   3.349
  546TIP3    H1 1581   0.798   0.077   3.291
  546TIP3    H2 1582   0.819   0.171   3.408
  547TIP3   OH2 1583   4.339   4.064   6.585
  547TIP3    H1 1584   4.308   4.023   6.666
  547TIP3    H2 1585   4.260   4.074   6.531
  548TIP3   OH2 1586   0.442   3.301   0.499
  548TIP3    H1 1587   0.450   3.250   0.418
  548TIP3    H2 1588   0.439   3.392   0.470
  549TIP3   OH2 1589   5.380   3.891   3.589
  549TIP3    H1 1590   5.457   3.938   3.558
  549TIP3    H2 1591   5.411   3.841   3.664
  550TIP3   OH2 1592   7.167   4.452   4.209
  550TIP3    H1 1593   7.262   4.453   4.195
  550TIP3    H2 1594   7.131   4.421   4.126
  551TIP3   OH2 1595   8.267   4.698   2.673
  551TIP3    H1 1596   8.275   4.634   2.602
  551TIP3    H2 1597   8.207   4.657   2.735
  552TIP3   OH2 1598   2.685   3.511   3.325
  552TIP3    H1 1599   2.779   3.527   3.312
  552TIP3    H2 1600   2.646   3.532   3.241
  553TIP3   OH2 1601   3.351   0.521   1.820
  553TIP3    H1 1602   3.407   0.510   1.743
  553TIP3    H2 1603   3.408   0.501   1.894
  554TIP3   OH2 1604   6.748   5.075   6.279
  554TIP3    H1 1605   6.812   5.059   6.348
  554TIP3    H2 1606   6.796   5.123   6.212
  555TIP3   OH2 1607   6.981   5.266   5.539
  555TIP3    H1 1608   6.984   5.316   5.457
  555TIP3    H2 1609   7.069   5.230   5.548
  556TIP3   OH2 1610   0.309   6.018   6.302
  556TIP3    H1 1611   0.401   5.990   6.303
  556TIP3    H2 1612   0.310   6.100   6.253
  557TIP3   OH2 1613   5.596   0.352   5.439
  557TIP3    H1 1614   5.541   0.356   5.361
  557TIP3    H2 1615   5.665   0.290   5.416
  558TIP3   OH2 1616   7.929   6.396   5.388
  558TIP3    H1 1617   7.948   6.359   5.475
  558TIP3    H2 1618   7.954   6.488   5.395
  559TIP3   OH2 1619   3.603   1.747   2.153
  559TIP3    H1 1620   3.513   1.715   2.146
  559TIP3    H2 1621   3.656   1.675   2.120
  560TIP3   OH2 1622   6.716   0.421   1.140
  560TIP3    H1 1623   6.633   0.468   1.134
  560TIP3    H2 1624   6.706   0.346   1.081
  561TIP3   OH2 1625   2.737   2.916   3.066
  561TIP3    H1 1626   2.782   2.941   2.985
  561TIP3    H2 1627   2.802   2.864   3.113
  562TIP3   OH2 1628   3.086   7.159   2.114
  562TIP3    H1 1629   3.059   7.251   2.125
  562TIP3    H2 1630   3.023   7.110   2.166
  563TIP3   OH2 1631   6.071   1.007   1.129
  563TIP3    H1 1632   6.069   1.068   1.056
  563TIP3    H2 1633   6.078   0.921   1.088
  564TIP3   OH2 1634   4.205   4.421   3.174
  564TIP3    H1 1635   4.129   4.394   3.122
  564TIP3    H2 1636   4.174   4.496   3.224
  565TIP3   OH2 1637   6.532   4.382   5.176
  565TIP3    H1 1638   6.550   4.351   5.264
  565TIP3    H2 1639   6.494   4.307   5.131
  566TIP3   OH2 1640   6.671   4.907   5.337
  566TIP3    H1 1641   6.665   4.818   5.301
  566TIP3    H2 1642   6.763   4.930   5.329
  567TIP3   OH2 1643   1.009   2.668   1.005
  567TIP3    H1 1644   1.006   2.762   0.988
  567TIP3    H2 1645   0.950   2.630   0.940
  568TIP3   OH2 1646   6.697   4.560   3.177
  568TIP3    H1 1647   6.640   4.632   3.148
  568TIP3    H2 1648   6.643   4.509   3.237
  569TIP3   OH2 1649   2.586   4.674   6.034
  569TIP3    H1 1650   2.505   4.715   6.005
  569TIP3    H2 1651   2.559   4.609   6.098
  570TIP3   OH2 1652   4.474   6.519   0.351
  570TIP3    H1 1653   4.554   6.535   0.301
  570TIP3    H2 1654   4.481   6.577   0.427
  571TIP3   OH2 1655   4.825   2.153   0.603
  571TIP3    H1 1656   4.898   2.097   0.631
  571TIP3    H2 1657   4.756   2.091   0.578
  572TIP3   OH2 1658   5.619   0.240   0.542
  572TIP3    H1 1659   5.562   0.220   0.615
  572TIP3    H2 1660   5.680   0.166   0.538
  573TIP3   OH2 1661   3.933   3.263   3.936
  573TIP3    H1 1662   3.900   3.173   3.933
  573TIP3    H2 1663   3.859   3.317   3.910
  574TIP3   OH2 1664   7.416   2.763   3.161
  574TIP3    H1 1665   7.481   2.707   3.119
  574TIP3    H2 1666   7.376   2.707   3.227
  575TIP3   OH2 1667   2.246   2.693   5.857
  575TIP3    H1 1668   2.340   2.708   5.867
  575TIP3    H2 1669   2.227   2.723   5.768
  576TIP3   OH2 1670   5.919   0.696   0.062
  576TIP3    H1 1671   5.873   0.627   0.110
  576TIP3    H2 1672   5.988   0.725   0.121
  577TIP3   OH2 1673   5.537   2.488   3.036
  577TIP3    H1 1674   5.500   2.449   2.957
  577TIP3    H2 1675   5.608   2.545   3.004
  578TIP3   OH2 1676   0.838   2.616   3.295
  578TIP3    H1 1677   0.768   2.558   3.264
  578TIP3    H2 1678   0.919   2.575   3.262
  579TIP3   OH2 1679   4.420   4.226   2.651
  579TIP3    H1 1680   4.332   4.195   2.628
  579TIP3    H2 1681   4.436   4.190   2.738
  580TIP3   OH2 1682   2.110   5.752   2.045
  580TIP3    H1 1683   2.118   5.818   1.976
  580TIP3    H2 1684   2.056   5.683   2.006
  581TIP3   OH2 1685   5.769   2.053   0.803
  581TIP3    H1 1686   5.680   2.044   0.836
  581TIP3    H2 1687   5.814   2.106   0.869
  582TIP3   OH2 1688   6.064   5.546   3.860
  582TIP3    H1 1689   5.983   5.582   3.896
  582TIP3    H2 1690   6.083   5.601   3.784
  583TIP3   OH2 1691   7.006   3.477   0.711
  583TIP3    H1 1692   6.981   3.416   0.780
  583TIP3    H2 1693   7.102   3.477   0.712
  584TIP3   OH2 1694   2.920   5.713   2.385
  584TIP3    H1 1695   2.876   5.721   2.469
  584TIP3    H2 1696   2.916   5.620   2.364
  585TIP3   OH2 1697   0.057   4.952   3.187
  585TIP3    H1 1698   0.144   4.914   3.204
  585TIP3    H2 1699   0.069   5.004   3.108
  586TIP3   OH2 1700   8.263   0.435   0.471
  586TIP3    H1 1701   8.183   0.387   0.452
  586TIP3    H2 1702   8.313   0.377   0.528
  587TIP3   OH2 1703   6.922   3.590   6.627
  587TIP3    H1 1704   6.965   3.647   6.691
  587TIP3    H2 1705   6.925   3.503   6.668
  588TIP3   OH2 1706   6.425   7.154   6.461
  588TIP3    H1 1707   6.440   7.157   6.366
  588TIP3    H2 1708   6.513   7.146   6.499
  589TIP3   OH2 1709   1.905   6.898   6.568
  589TIP3    H1 1710   1.940   6.927   6.484
  589TIP3    H2 1711   1.955   6.819   6.589
  590TIP3   OH2 1712   1.126   7.150   5.002
  590TIP3    H1 1713   1.105   7.241   4.981
  590TIP3    H2 1714   1.067   7.128   5.074
  591TIP3   OH2 1715   4.643   3.921   3.333
  591TIP3    H1 1716   4.689   3.840   3.354
  591TIP3    H2 1717   4.662   3.980   3.406
  592TIP3   OH2 1718   6.536   2.931   5.244
  592TIP3    H1 1719   6.532   2.914   5.338
  592TIP3    H2 1720   6.482   2.863   5.205
  593TIP3   OH2 1721   4.835   4.827   3.747
  593TIP3    H1 1722   4.901   4.781   3.696
  593TIP3    H2 1723   4.851   4.800   3.838
  594TIP3   OH2 1724   3.208   5.036   5.384
  594TIP3    H1 1725   3.158   5.112   5.414
  594TIP3    H2 1726   3.159   5.003   5.309
  595TIP3   OH2 1727   4.080   1.410   6.365
  595TIP3    H1 1728   4.122   1.408   6.279
  595TIP3    H2 1729   3.987   1.414   6.346
  596TIP3   OH2 1730   0.383   2.711   0.020
  596TIP3    H1 1731   0.455   2.772   0.008
  596TIP3    H2 1732   0.352   2.726   0.109
  597TIP3   OH2 1733   8.108   1.930   3.310
  597TIP3    H1 1734   8.046   1.866   3.277
  597TIP3    H2 1735   8.066   1.967   3.388
  598TIP3   OH2 1736   7.978   7.681   5.806
  598TIP3    H1 1737   7.930   7.756   5.840
  598TIP3    H2 1738   8.045   7.663   5.872
  599TIP3   OH2 1739   7.507   5.310   3.791
  599TIP3    H1 1740   7.486   5.233   3.737
  599TIP3    H2 1741   7.591   5.340   3.757
  600TIP3   OH2 1742   0.331   0.109   4.978
  600TIP3    H1 1743   0.379   0.028   4.961
  600TIP3    H2 1744   0.393   0.165   5.025
  601TIP3   OH2 1745   6.675   6.483   4.109
  601TIP3    H1 1746   6.596   6.474   4.162
  601TIP3    H2 1747   6.645   6.471   4.019
  602TIP3   OH2 1748   4.076   1.032   2.690
  602TIP3    H1 1749   4.086   0.942   2.660
  602TIP3    H2 1750   4.116   1.085   2.620
  603TIP3   OH2 1751   2.423   6.812   3.069
  603TIP3    H1 1752   2.355   6.802   3.135
  603TIP3    H2 1753   2.442   6.723   3.040
  604TIP3   OH2 1754   2.411   6.363   5.963
  604TIP3    H1 1755   2.439   6.443   5.919
  604TIP3    H2 1756   2.464   6.361   6.043
  605TIP3   OH2 1757   0.677   2.543   3.605
  605TIP3    H1 1758   0.768   2.565   3.585
  605TIP3    H2 1759   0.682   2.460   3.651
  606TIP3   OH2 1760   8.071   6.499   4.478
  606TIP3    H1 1761   7.998   6.560   4.465
  606TIP3    H2 1762   8.099   6.477   4.389
  607TIP3   OH2 1763   4.411   0.048   3.698
  607TIP3    H1 1764   4.381   0.137   3.676
  607TIP3    H2 1765   4.406   0.000   3.615
  608TIP3   OH2 1766   4.252   4.332   0.582
  608TIP3    H1 1767   4.217   4.332   0.671
  608TIP3    H2 1768   4.215   4.252   0.542
  609TIP3   OH2 1769   6.425   0.191   4.676
  609TIP3    H1 1770   6.455   0.281   4.661
  609TIP3    H2 1771   6.502   0.146   4.711
  610TIP3   OH2 1772   5.359   1.784   0.935
  610TIP3    H1 1773   5.313   1.813   0.856
  610TIP3    H2 1774   5.333   1.847   1.002
  611TIP3   OH2 1775   5.627   7.729   4.816
  611TIP3    H1 1776   5.562   7.670   4.854
  611TIP3    H2 1777   5.601   7.816   4.846
  612TIP3   OH2 1778   6.081   6.072   6.320
  612TIP3    H1 1779   6.155   6.010   6.315
  612TIP3    H2 1780   6.005   6.019   6.295
  613TIP3   OH2 1781   4.444   0.833   1.509
  613TIP3    H1 1782   4.409   0.745   1.518
  613TIP3    H2 1783   4.402   0.869   1.431
  614TIP3   OH2 1784   3.644   6.878   6.613
  614TIP3    H1 1785   3.707   6.845   6.677
  614TIP3    H2 1786   3.622   6.800   6.561
  615TIP3   OH2 1787   0.839   2.045   1.159
  615TIP3    H1 1788   0.875   2.019   1.075
  615TIP3    H2 1789   0.781   1.973   1.183
  616TIP3   OH2 1790   5.560   6.466   3.252
  616TIP3    H1 1791   5.567   6.430   3.164
  616TIP3    H2 1792   5.605   6.550   3.248
  617TIP3   OH2 1793   8.192   6.278   0.622
  617TIP3    H1 1794   8.133   6.221   0.574
  617TIP3    H2 1795   8.204   6.234   0.706
  618TIP3   OH2 1796   8.119   3.901   6.116
  618TIP3    H1 1797   8.055   3.963   6.080
  618TIP3    H2 1798   8.108   3.822   6.064
  619TIP3   OH2 1799   1.569   5.418   2.081
  619TIP3    H1 1800   1.520   5.349   2.037
  619TIP3    H2 1801   1.572   5.490   2.018
  620TIP3   OH2 1802   7.328   1.723   5.817
  620TIP3    H1 1803   7.357   1.805   5.777
  620TIP3    H2 1804   7.234   1.736   5.832
  621TIP3   OH2 1805   0.999   2.933   5.719
  621TIP3    H1 1806   0.938   3.005   5.732
  621TIP3    H2 1807   1.085   2.970   5.736
  622TIP3   OH2 1808   1.117   4.973   2.157
  622TIP3    H1 1809   1.162   5.038   2.211
  622TIP3    H2 1810   1.143   4.889   2.195
  623TIP3   OH2 1811   0.312   0.674   2.175
  623TIP3    H1 1812   0.238   0.626   2.212
  623TIP3    H2 1813   0.334   0.739   2.242
  624TIP3   OH2 1814   3.204   6.158   6.561
  624TIP3    H1 1815   3.213   6.224   6.630
  624TIP3    H2 1816   3.287   6.160   6.514
  625TIP3   OH2 1817   0.258   3.490   5.495
  625TIP3    H1 1818   0.287   3.486   5.404
  625TIP3    H2 1819   0.163   3.490   5.489
  626TIP3   OH2 1820   4.419   0.130   5.948
  626TIP3    H1 1821   4.353   0.188   5.987
  626TIP3    H2 1822   4.417   0.151   5.855
  627TIP3   OH2 1823   0.310   5.467   0.125
  627TIP3    H1 1824   0.240   5.422   0.076
  627TIP3    H2 1825   0.281   5.464   0.216
  628TIP3   OH2 1826   0.667   1.641   6.320
  628TIP3    H1 1827   0.669   1.602   6.407
  628TIP3    H2 1828   0.705   1.728   6.332
  629TIP3   OH2 1829   2.059   1.847   3.368
  629TIP3    H1 1830   2.133   1.907   3.378
  629TIP3    H2 1831   2.097   1.765   3.338
  630TIP3   OH2 1832   5.424   0.292   3.111
  630TIP3    H1 1833   5.374   0.219   3.148
  630TIP3    H2 1834   5.515   0.265   3.116
  631TIP3   OH2 1835   1.452   7.563   0.757
  631TIP3    H1 1836   1.445   7.495   0.824
  631TIP3    H2 1837   1.517   7.624   0.791
  632TIP3   OH2 1838   7.413   0.121   6.698
  632TIP3    H1 1839   7.319   0.119   6.720
  632TIP3    H2 1840   7.415   0.145   6.606
  633TIP3   OH2 1841   4.527   5.186  -0.063
  633TIP3    H1 1842   4.613   5.194  -0.021
  633TIP3    H2 1843   4.491   5.104  -0.028
  634TIP3   OH2 1844   3.835   7.227   5.859
  634TIP3    H1 1845   3.839   7.319   5.887
  634TIP3    H2 1846   3.775   7.187   5.922
  635TIP3   OH2 1847   1.709   6.913   3.541
  635TIP3    H1 1848   1.644   6.851   3.507
  635TIP3    H2 1849   1.666   6.998   3.535
  636TIP3   OH2 1850   2.420   2.466   6.428
  636TIP3    H1 1851   2.452   2.459   6.338
  636TIP3    H2 1852   2.448   2.553   6.457
  637TIP3   OH2 1853   6.425   7.335   4.017
  637TIP3    H1 1854   6.400   7.247   3.989
  637TIP3    H2 1855   6.348   7.389   3.997
  638TIP3   OH2 1856   3.121   6.550   1.423
  638TIP3    H1 1857   3.073   6.575   1.344
  638TIP3    H2 1858   3.187   6.619   1.433
  639TIP3   OH2 1859   2.855   2.904   3.940
  639TIP3    H1 1860   2.836   2.979   3.884
  639TIP3    H2 1861   2.780   2.846   3.929
  640TIP3   OH2 1862   1.333   5.087   5.885
  640TIP3    H1 1863   1.339   5.072   5.980
  640TIP3    H2 1864   1.364   5.006   5.846
  641TIP3   OH2 1865   5.704   3.202  -0.020
  641TIP3    H1 1866   5.729   3.113   0.004
  641TIP3    H2 1867   5.786   3.250  -0.025
  642TIP3   OH2 1868   1.228   0.236   6.382
  642TIP3    H1 1869   1.209   0.280   6.465
  642TIP3    H2 1870   1.310   0.274   6.353
  643TIP3   OH2 1871   3.527   7.217   1.107
  643TIP3    H1 1872   3.604   7.274   1.104
  643TIP3    H2 1873   3.540   7.155   1.036
  644TIP3   OH2 1874   1.137   2.490   0.259
  644TIP3    H1 1875   1.095   2.533   0.184
  644TIP3    H2 1876   1.121   2.397   0.245
  645TIP3   OH2 1877   5.653   1.872   3.747
  645TIP3    H1 1878   5.640   1.916   3.831
  645TIP3    H2 1879   5.631   1.938   3.682
  646TIP3   OH2 1880   0.015   1.856   2.288
  646TIP3    H1 1881   0.092   1.802   2.307
  646TIP3    H2 1882   0.036   1.941   2.326
  647TIP3   OH2 1883   4.759   4.701   1.329
  647TIP3    H1 1884   4.706   4.683   1.251
  647TIP3    H2 1885   4.829   4.759   1.297
  648TIP3   OH2 1886   4.400   2.500   2.401
  648TIP3    H1 1887   4.444   2.500   2.316
  648TIP3    H2 1888   4.436   2.423   2.447
  649TIP3   OH2 1889   5.930   4.849   2.967
  649TIP3    H1 1890   6.014   4.832   2.925
  649TIP3    H2 1891   5.884   4.908   2.906
  650TIP3   OH2 1892   3.150   2.113   1.048
  650TIP3    H1 1893   3.095   2.166   1.105
  650TIP3    H2 1894   3.133   2.148   0.960
  651TIP3   OH2 1895   6.893   2.803   5.453
  651TIP3    H1 1896   6.877   2.859   5.378
  651TIP3    H2 1897   6.977   2.834   5.489
  652TIP3   OH2 1898   3.735   4.204   1.598
  652TIP3    H1 1899   3.660   4.187   1.655
  652TIP3    H2 1900   3.807   4.225   1.657
  653TIP3   OH2 1901   0.492   2.248   4.427
  653TIP3    H1 1902   0.548   2.293   4.364
  653TIP3    H2 1903   0.527   2.274   4.512
  654TIP3   OH2 1904   2.878   1.614   0.484
  654TIP3    H1 1905   2.947   1.605   0.419
  654TIP3    H2 1906   2.814   1.546   0.461
  655TIP3   OH2 1907   7.895   2.037   3.012
  655TIP3    H1 1908   7.865   2.107   3.071
  655TIP3    H2 1909   7.960   2.080   2.956
  656TIP3   OH2 1910   1.052   5.400   0.986
  656TIP3    H1 1911   1.095   5.472   0.939
  656TIP3    H2 1912   0.989   5.365   0.923
  657TIP3   OH2 1913   5.519   3.957   4.578
  657TIP3    H1 1914   5.465   3.882   4.552
  657TIP3    H2 1915   5.488   3.979   4.666
  658TIP3   OH2 1916   4.580   6.317   4.224
  658TIP3    H1 1917   4.521   6.355   4.159
  658TIP3    H2 1918   4.537   6.236   4.251
  659TIP3   OH2 1919   5.463   2.244   6.393
  659TIP3    H1 1920   5.429   2.320   6.440
  659TIP3    H2 1921   5.489   2.278   6.308
  660TIP3   OH2 1922   7.640   0.132   6.163
  660TIP3    H1 1923   7.611   0.182   6.087
  660TIP3    H2 1924   7.669   0.198   6.226
  661TIP3   OH2 1925   5.999   3.601   3.922
  661TIP3    H1 1926   6.053   3.670   3.883
  661TIP3    H2 1927   6.062   3.540   3.960
  662TIP3   OH2 1928   3.734   3.301   5.697
  662TIP3    H1 1929   3.804   3.366   5.689
  662TIP3    H2 1930   3.698   3.315   5.785
  663TIP3   OH2 1931   7.642   3.086   6.707
  663TIP3    H1 1932   7.699   3.011   6.722
  663TIP3    H2 1933   7.604   3.070   6.620
  664TIP3   OH2 1934   4.688   1.484   4.253
  664TIP3    H1 1935   4.618   1.549   4.250
  664TIP3    H2 1936   4.752   1.514   4.189
  665TIP3   OH2 1937   4.874   1.465   1.396
  665TIP3    H1 1938   4.934   1.477   1.323
  665TIP3    H2 1939   4.797   1.517   1.373
  666TIP3   OH2 1940   1.654   6.134   2.664
  666TIP3    H1 1941   1.721   6.178   2.611
  666TIP3    H2 1942   1.583   6.198   2.669
  667TIP3   OH2 1943   1.237   2.508   1.007
  667TIP3    H1 1944   1.147   2.532   1.029
  667TIP3    H2 1945   1.230   2.461   0.924
  668TIP3   OH2 1946   3.587   7.236   6.479
  668TIP3    H1 1947   3.579   7.222   6.573
  668TIP3    H2 1948   3.567   7.329   6.467
  669TIP3   OH2 1949   7.284   4.297   2.253
  669TIP3    H1 1950   7.212   4.294   2.190
  669TIP3    H2 1951   7.252   4.247   2.328
  670TIP3   OH2 1952   3.233   1.454   3.558
  670TIP3    H1 1953   3.221   1.491   3.645
  670TIP3    H2 1954   3.263   1.364   3.574
  671TIP3   OH2 1955   7.984   0.230   2.546
  671TIP3    H1 1956   8.071   0.206   2.578
  671TIP3    H2 1957   7.983   0.325   2.548
  672TIP3   OH2 1958   4.502   1.858   3.871
  672TIP3    H1 1959   4.569   1.849   3.938
  672TIP3    H2 1960   4.423   1.883   3.919
  673TIP3   OH2 1961   2.943   1.232   0.636
  673TIP3    H1 1962   2.891   1.239   0.557
  673TIP3    H2 1963   2.897   1.167   0.690
  674TIP3   OH2 1964   3.643   2.218   4.971
  674TIP3    H1 1965   3.563   2.264   4.994
  674TIP3    H2 1966   3.649   2.227   4.876
  675TIP3   OH2 1967   6.435   2.121   1.918
  675TIP3    H1 1968   6.371   2.073   1.867
  675TIP3    H2 1969   6.518   2.076   1.902
  676TIP3   OH2 1970   4.904   0.292   3.870
  676TIP3    H1 1971   4.906   0.387   3.880
  676TIP3    H2 1972   4.833   0.275   3.808
  677TIP3   OH2 1973   4.757   5.554   6.568
  677TIP3    H1 1974   4.780   5.647   6.573
  677TIP3    H2 1975   4.710   5.546   6.485
  678TIP3   OH2 1976   5.285   7.055   0.102
  678TIP3    H1 1977   5.274   6.974   0.051
  678TIP3    H2 1978   5.197   7.076   0.132
  679TIP3   OH2 1979   3.050   1.976   3.167
  679TIP3    H1 1980   3.144   1.980   3.150
  679TIP3    H2 1981   3.043   1.988   3.262
  680TIP3   OH2 1982   0.674   4.873   3.536
  680TIP3    H1 1983   0.687   4.846   3.445
  680TIP3    H2 1984   0.762   4.896   3.566
  681TIP3   OH2 1985   2.004   2.721   4.996
  681TIP3    H1 1986   2.025   2.712   4.903
  681TIP3    H2 1987   1.952   2.643   5.017
  682TIP3   OH2 1988   1.853   3.385   0.103
  682TIP3    H1 1989   1.795   3.348   0.037
  682TIP3    H2 1990   1.864   3.315   0.167
  683TIP3   OH2 1991   6.684   1.254   3.183
  683TIP3    H1 1992   6.739   1.214   3.250
  683TIP3    H2 1993   6.742   1.263   3.107
  684TIP3   OH2 1994   5.449   0.355   5.203
  684TIP3    H1 1995   5.460   0.285   5.139
  684TIP3    H2 1996   5.398   0.421   5.157
  685TIP3   OH2 1997   3.994   2.345   4.421
  685TIP3    H1 1998   4.044   2.422   4.449
  685TIP3    H2 1999   3.922   2.339   4.484
  686TIP3   OH2 2000   1.310   3.884   5.241
  686TIP3    H1 2001   1.288   3.930   5.321
  686TIP3    H2 2002   1.406   3.882   5.240
  687TIP3   OH2 2003   3.602   5.105   0.816
  687TIP3    H1 2004   3.621   5.095   0.723
  687TIP3    H2 2005   3.532   5.171   0.819
  688TIP3   OH2 2006   5.764   1.917   4.443
  688TIP3    H1 2007   5.798   2.000   4.412
  688TIP3    H2 2008   5.748   1.866   4.363
  689TIP3   OH2 2009   4.043   2.420   6.520
  689TIP3    H1 2010   4.084   2.489   6.467
  689TIP3    H2 2011   3.982   2.377   6.461
  690TIP3   OH2 2012   7.707   4.722   6.202
  690TIP3    H1 2013   7.792   4.755   6.231
  690TIP3    H2 2014   7.668   4.794   6.154
  691TIP3   OH2 2015   2.635   4.138   2.703
  691TIP3    H1 2016   2.596   4.058   2.668
  691TIP3    H2 2017   2.727   4.117   2.715
  692TIP3   OH2 2018   0.945   2.382   5.122
  692TIP3    H1 2019   0.944   2.470   5.087
  692TIP3    H2 2020   0.875   2.336   5.075
  693TIP3   OH2 2021   2.522   7.603   1.820
  693TIP3    H1 2022   2.470   7.631   1.745
  693TIP3    H2 2023   2.519   7.676   1.881
  694TIP3   OH2 2024   3.899   1.090   3.125
  694TIP3    H1 2025   3.962   1.118   3.192
  694TIP3    H2 2026   3.839   1.164   3.116
  695TIP3   OH2 2027   7.799   2.310   4.466
  695TIP3    H1 2028   7.800   2.216   4.487
  695TIP3    H2 2029   7.750   2.350   4.538
  696TIP3   OH2 2030   4.904   5.798   6.464
  696TIP3    H1 2031   4.992   5.765   6.448
  696TIP3    H2 2032   4.869   5.816   6.377
  697TIP3   OH2 2033   4.724   5.555   5.829
  697TIP3    H1 2034   4.769   5.603   5.898
  697TIP3    H2 2035   4.634   5.588   5.832
  698TIP3   OH2 2036   1.690   0.224   4.042
  698TIP3    H1 2037   1.750   0.265   4.105
  698TIP3    H2 2038   1.667   0.140   4.082
  699TIP3   OH2 2039   0.268   4.843   6.789
  699TIP3    H1 2040   0.303   4.844   6.700
  699TIP3    H2 2041   0.301   4.761   6.827
  700TIP3   OH2 2042   7.136   4.380   5.538
  700TIP3    H1 2043   7.198   4.365   5.609
  700TIP3    H2 2044   7.055   4.337   5.567
  701TIP3   OH2 2045   3.538   4.496   1.969
  701TIP3    H1 2046   3.508   4.565   2.028
  701TIP3    H2 2047   3.590   4.438   2.025
  702TIP3   OH2 2048   3.443   4.441   3.926
  702TIP3    H1 2049   3.366   4.407   3.971
  702TIP3    H2 2050   3.485   4.499   3.991
  703TIP3   OH2 2051   2.045   2.973   1.848
  703TIP3    H1 2052   1.960   2.953   1.887
  703TIP3    H2 2053   2.105   2.908   1.885
  704TIP3   OH2 2054   1.665   0.064   2.367
  704TIP3    H1 2055   1.645   0.105   2.283
  704TIP3    H2 2056   1.635  -0.026   2.358
  705TIP3   OH2 2057   1.275   0.752   3.243
  705TIP3    H1 2058   1.245   0.661   3.244
  705TIP3    H2 2059   1.197   0.804   3.260
  706TIP3   OH2 2060   7.837   4.908   1.115
  706TIP3    H1 2061   7.915   4.857   1.091
  706TIP3    H2 2062   7.859   4.998   1.091
  707TIP3   OH2 2063   1.639   7.210   3.512
  707TIP3    H1 2064   1.664   7.287   3.563
  707TIP3    H2 2065   1.669   7.231   3.423
  708TIP3   OH2 2066   1.186   6.198   2.484
  708TIP3    H1 2067   1.158   6.277   2.438
  708TIP3    H2 2068   1.280   6.208   2.495
  709TIP3   OH2 2069   3.038   1.739   2.544
  709TIP3    H1 2070   2.947   1.751   2.573
  709TIP3    H2 2071   3.055   1.646   2.559
  710TIP3   OH2 2072   2.729   3.077   1.191
  710TIP3    H1 2073   2.665   3.086   1.119
  710TIP3    H2 2074   2.802   3.132   1.165
  711TIP3   OH2 2075   3.019   1.469   2.649
  711TIP3    H1 2076   3.089   1.503   2.705
  711TIP3    H2 2077   2.940   1.511   2.681
  712TIP3   OH2 2078   3.642   7.408   3.149
  712TIP3    H1 2079   3.716   7.366   3.192
  712TIP3    H2 2080   3.680   7.483   3.104
  713TIP3   OH2 2081   5.649   5.297   1.638
  713TIP3    H1 2082   5.557   5.272   1.632
  713TIP3    H2 2083   5.684   5.284   1.550
  714TIP3   OH2 2084   4.208   1.356   6.118
  714TIP3    H1 2085   4.217   1.263   6.098
  714TIP3    H2 2086   4.180   1.396   6.035
  715TIP3   OH2 2087   4.833   6.674   0.513
  715TIP3    H1 2088   4.788   6.737   0.570
  715TIP3    H2 2089   4.918   6.714   0.496
  716TIP3   OH2 2090   2.446   0.658   0.716
  716TIP3    H1 2091   2.516   0.625   0.772
  716TIP3    H2 2092   2.421   0.583   0.662
  717TIP3   OH2 2093   0.990   2.333   2.034
  717TIP3    H1 2094   1.043   2.412   2.044
  717TIP3    H2 2095   0.942   2.347   1.952
  718TIP3   OH2 2096   2.598   0.441   6.661
  718TIP3    H1 2097   2.596   0.533   6.637
  718TIP3    H2 2098   2.690   0.415   6.650
  719TIP3   OH2 2099   4.722   2.708   6.613
  719TIP3    H1 2100   4.768   2.785   6.647
  719TIP3    H2 2101   4.710   2.727   6.520
  720TIP3   OH2 2102   2.788   2.009   1.390
  720TIP3    H1 2103   2.805   2.101   1.369
  720TIP3    H2 2104   2.864   1.962   1.355
  721TIP3   OH2 2105   5.449   6.768   4.680
  721TIP3    H1 2106   5.401   6.809   4.608
  721TIP3    H2 2107   5.518   6.830   4.702
  722TIP3   OH2 2108   0.864   7.135   6.286
  722TIP3    H1 2109   0.840   7.227   6.271
  722TIP3    H2 2110   0.888   7.132   6.379
  723TIP3   OH2 2111   5.918   4.758   4.853
  723TIP3    H1 2112   5.948   4.848   4.846
  723TIP3    H2 2113   5.906   4.729   4.763
  724TIP3   OH2 2114   7.835   4.768   4.983
  724TIP3    H1 2115   7.880   4.780   4.900
  724TIP3    H2 2116   7.769   4.837   4.986
  725TIP3   OH2 2117   5.773   5.194   4.648
  725TIP3    H1 2118   5.862   5.193   4.612
  725TIP3    H2 2119   5.743   5.104   4.643
  726TIP3   OH2 2120   2.537   0.274   4.103
  726TIP3    H1 2121   2.501   0.236   4.183
  726TIP3    H2 2122   2.477   0.344   4.080
  727TIP3   OH2 2123   5.562   1.579   0.521
  727TIP3    H1 2124   5.609   1.567   0.603
  727TIP3    H2 2125   5.628   1.565   0.453
  728TIP3   OH2 2126   0.277   0.433   0.129
  728TIP3    H1 2127   0.197   0.407   0.084
  728TIP3    H2 2128   0.268   0.395   0.217
  729TIP3   OH2 2129   2.989   3.246   4.305
  729TIP3    H1 2130   2.909   3.224   4.256
  729TIP3    H2 2131   3.057   3.251   4.238
  730TIP3   OH2 2132   6.209   6.905   2.905
  730TIP3    H1 2133   6.163   6.923   2.823
  730TIP3    H2 2134   6.302   6.908   2.882
  731TIP3   OH2 2135   7.093   1.154   4.615
  731TIP3    H1 2136   7.018   1.153   4.674
  731TIP3    H2 2137   7.111   1.247   4.601
  732TIP3   OH2 2138   3.171   4.557   2.459
  732TIP3    H1 2139   3.125   4.475   2.439
  732TIP3    H2 2140   3.128   4.623   2.403
  733TIP3   OH2 2141   7.783   1.640   3.738
  733TIP3    H1 2142   7.812   1.714   3.791
  733TIP3    H2 2143   7.847   1.571   3.755
  734TIP3   OH2 2144   8.052   4.168   3.592
  734TIP3    H1 2145   8.092   4.140   3.674
  734TIP3    H2 2146   8.061   4.092   3.534
  735TIP3   OH2 2147   2.179   1.392   2.612
  735TIP3    H1 2148   2.098   1.364   2.570
  735TIP3    H2 2149   2.249   1.349   2.562
  736TIP3   OH2 2150   7.320   6.086   3.631
  736TIP3    H1 2151   7.325   5.991   3.637
  736TIP3    H2 2152   7.245   6.103   3.573
  737TIP3   OH2 2153   6.972   5.048   6.435
  737TIP3    H1 2154   7.019   5.012   6.361
  737TIP3    H2 2155   7.017   5.130   6.455
  738TIP3   OH2 2156   2.392   2.110   1.322
  738TIP3    H1 2157   2.314   2.159   1.349
  738TIP3    H2 2158   2.358   2.023   1.301
  739TIP3   OH2 2159   1.392   0.205   0.582
  739TIP3    H1 2160   1.302   0.218   0.555
  739TIP3    H2 2161   1.427   0.293   0.595
  740TIP3   OH2 2162   3.868   4.918   4.649
  740TIP3    H1 2163   3.788   4.967   4.669
  740TIP3    H2 2164   3.840   4.850   4.589
  741TIP3   OH2 2165   5.038   3.377   3.652
  741TIP3    H1 2166   4.976   3.324   3.701
  741TIP3    H2 2167   5.018   3.467   3.678
  742TIP3   OH2 2168   5.493   5.021   0.567
  742TIP3    H1 2169   5.435   5.022   0.643
  742TIP3    H2 2170   5.532   4.934   0.567
  743TIP3   OH2 2171   2.938   0.294   3.411
  743TIP3    H1 2172   3.017   0.331   3.372
  743TIP3    H2 2173   2.883   0.269   3.337
  744TIP3   OH2 2174   2.644   7.430   2.017
  744TIP3    H1 2175   2.718   7.393   1.968
  744TIP3    H2 2176   2.585   7.464   1.950
  745TIP3   OH2 2177   6.158   5.968   4.285
  745TIP3    H1 2178   6.079   6.013   4.316
  745TIP3    H2 2179   6.129   5.879   4.266
  746TIP3   OH2 2180   5.097   4.577   5.339
  746TIP3    H1 2181   5.119   4.490   5.306
  746TIP3    H2 2182   5.007   4.592   5.309
  747TIP3   OH2 2183   3.189   7.659   0.924
  747TIP3    H1 2184   3.265   7.658   0.867
  747TIP3    H2 2185   3.196   7.578   0.975
  748TIP3   OH2 2186   2.065   3.493   0.898
  748TIP3    H1 2187   2.125   3.526   0.965
  748TIP3    H2 2188   2.122   3.451   0.833
  749TIP3   OH2 2189   4.851   4.331   3.611
  749TIP3    H1 2190   4.921   4.319   3.675
  749TIP3    H2 2191   4.791   4.393   3.651
  750TIP3   OH2 2192   1.960   1.808   0.662
  750TIP3    H1 2193   1.992   1.726   0.700
  750TIP3    H2 2194   1.930   1.859   0.738
  751TIP3   OH2 2195   6.826   2.928   2.454
  751TIP3    H1 2196   6.772   2.949   2.530
  751TIP3    H2 2197   6.912   2.909   2.491
  752TIP3   OH2 2198   3.892   0.423   3.201
  752TIP3    H1 2199   3.837   0.472   3.263
  752TIP3    H2 2200   3.938   0.490   3.152
  753TIP3   OH2 2201   4.432   1.576   4.273
  753TIP3    H1 2202   4.379   1.559   4.350
  753TIP3    H2 2203   4.411   1.666   4.249
  754TIP3   OH2 2204   1.480   0.426   1.046
  754TIP3    H1 2205   1.527   0.498   1.088
  754TIP3    H2 2206   1.388   0.441   1.067
  755TIP3   OH2 2207   3.239   2.006   1.708
  755TIP3    H1 2208   3.236   2.079   1.771
  755TIP3    H2 2209   3.162   2.020   1.652
  756TIP3   OH2 2210   3.375   6.152   0.612
  756TIP3    H1 2211   3.449   6.149   0.673
  756TIP3    H2 2212   3.326   6.231   0.638
  757TIP3   OH2 2213   4.812   6.088   0.556
  757TIP3    H1 2214   4.817   5.994   0.538
  757TIP3    H2 2215   4.891   6.106   0.608
  758TIP3   OH2 2216   4.441   0.533   2.612
  758TIP3    H1 2217   4.443   0.582   2.694
  758TIP3    H2 2218   4.358   0.485   2.614
  759TIP3   OH2 2219   4.521   4.569   6.083
  759TIP3    H1 2220   4.431   4.560   6.114
  759TIP3    H2 2221   4.563   4.626   6.148
  760TIP3   OH2 2222   5.476   1.846   6.200
  760TIP3    H1 2223   5.423   1.889   6.267
  760TIP3    H2 2224   5.564   1.845   6.235
  761TIP3   OH2 2225   2.767   7.694   2.960
  761TIP3    H1 2226   2.734   7.778   2.928
  761TIP3    H2 2227   2.846   7.678   2.908
  762TIP3   OH2 2228   0.932   1.613   1.637
  762TIP3    H1 2229   0.979   1.686   1.676
  762TIP3    H2 2230   0.984   1.590   1.559
  763TIP3   OH2 2231   0.752   1.164   1.297
  763TIP3    H1 2232   0.792   1.245   1.263
  763TIP3    H2 2233   0.772   1.164   1.390
  764TIP3   OH2 2234   6.342  -0.011   4.477
  764TIP3    H1 2235   6.291   0.036   4.411
  764TIP3    H2 2236   6.393   0.058   4.520
  765TIP3   OH2 2237   0.271   1.195   1.040
  765TIP3    H1 2238   0.189   1.194   0.990
  765TIP3    H2 2239   0.297   1.103   1.045
  766TIP3   OH2 2240   2.363   1.992   3.074
  766TIP3    H1 2241   2.310   1.985   2.994
  766TIP3    H2 2242   2.418   2.069   3.059
  767TIP3   OH2 2243   6.542   3.609   6.406
  767TIP3    H1 2244   6.563   3.517   6.423
  767TIP3    H2 2245   6.549   3.652   6.491
  768TIP3   OH2 2246   8.062   6.053   0.568
  768TIP3    H1 2247   8.054   6.021   0.478
  768TIP3    H2 2248   8.021   5.985   0.622
  769TIP3   OH2 2249   0.087   4.675   1.086
  769TIP3    H1 2250   0.085   4.771   1.081
  769TIP3    H2 2251   0.027   4.647   1.017
  770TIP3   OH2 2252   7.605   0.200   1.665
  770TIP3    H1 2253   7.612   0.113   1.703
  770TIP3    H2 2254   7.515   0.206   1.634
  771TIP3   OH2 2255   3.446   5.744   3.887
  771TIP3    H1 2256   3.404   5.694   3.957
  771TIP3    H2 2257   3.373   5.784   3.839
  772TIP3   OH2 2258   3.029   2.077   5.414
  772TIP3    H1 2259   3.118   2.094   5.382
  772TIP3    H2 2260   2.973   2.128   5.356
  773TIP3   OH2 2261   5.221   3.159   0.332
  773TIP3    H1 2262   5.227   3.192   0.243
  773TIP3    H2 2263   5.188   3.069   0.322
  774TIP3   OH2 2264   7.856   6.523   3.948
  774TIP3    H1 2265   7.860   6.427   3.952
  774TIP3    H2 2266   7.842   6.550   4.039
  775TIP3   OH2 2267   5.395   3.894   2.288
  775TIP3    H1 2268   5.463   3.944   2.332
  775TIP3    H2 2269   5.313   3.931   2.321
  776TIP3   OH2 2270   1.421   4.836   5.799
  776TIP3    H1 2271   1.516   4.850   5.799
  776TIP3    H2 2272   1.400   4.813   5.709
  777TIP3   OH2 2273   6.690   7.324   6.115
  777TIP3    H1 2274   6.659   7.400   6.066
  777TIP3    H2 2275   6.726   7.361   6.196
  778TIP3   OH2 2276   4.698   4.433   5.208
  778TIP3    H1 2277   4.701   4.508   5.268
  778TIP3    H2 2278   4.784   4.431   5.168
  779TIP3   OH2 2279   2.584   6.886   5.115
  779TIP3    H1 2280   2.503   6.925   5.147
  779TIP3    H2 2281   2.653   6.933   5.161
  780TIP3   OH2 2282   6.352   5.060   6.433
  780TIP3    H1 2283   6.415   5.132   6.429
  780TIP3    H2 2284   6.364   5.012   6.351
  781TIP3   OH2 2285   1.369   4.082   6.335
  781TIP3    H1 2286   1.275   4.086   6.353
  781TIP3    H2 2287   1.398   4.001   6.376
  782TIP3   OH2 2288   7.110   3.583   3.786
  782TIP3    H1 2289   7.111   3.534   3.869
  782TIP3    H2 2290   7.202   3.606   3.771
  783TIP3   OH2 2291   0.546   2.459   3.220
  783TIP3    H1 2292   0.458   2.422   3.229
  783TIP3    H2 2293   0.598   2.414   3.287
  784TIP3   OH2 2294   7.113   0.085   0.474
  784TIP3    H1 2295   7.030   0.107   0.431
  784TIP3    H2 2296   7.179   0.135   0.426
  785TIP3   OH2 2297   1.523   6.516   1.961
  785TIP3    H1 2298   1.606   6.477   1.933
  785TIP3    H2 2299   1.502   6.471   2.043
  786TIP3   OH2 2300   7.832   1.544   0.675
  786TIP3    H1 2301   7.898   1.501   0.621
  786TIP3    H2 2302   7.785   1.473   0.718
  787TIP3   OH2 2303   0.418   1.334   4.719
  787TIP3    H1 2304   0.506   1.357   4.689
  787TIP3    H2 2305   0.368   1.415   4.715
  788TIP3   OH2 2306   0.877   0.457   1.629
  788TIP3    H1 2307   0.936   0.473   1.555
  788TIP3    H2 2308   0.790   0.474   1.595
  789TIP3   OH2 2309   7.418   6.051   0.269
  789TIP3    H1 2310   7.346   6.001   0.230
  789TIP3    H2 2311   7.495   6.028   0.216
  790TIP3   OH2 2312   1.896   5.986   3.806
  790TIP3    H1 2313   1.950   5.913   3.775
  790TIP3    H2 2314   1.900   6.049   3.734
  791TIP3   OH2 2315   4.742   5.657   0.792
  791TIP3    H1 2316   4.748   5.660   0.696
  791TIP3    H2 2317   4.833   5.664   0.822
  792TIP3   OH2 2318   8.191   4.512   2.287
  792TIP3    H1 2319   8.175   4.516   2.193
  792TIP3    H2 2320   8.158   4.595   2.321
  793TIP3   OH2 2321   0.062   5.371   1.156
  793TIP3    H1 2322  -0.030   5.348   1.173
  793TIP3    H2 2323   0.090   5.418   1.234
  794TIP3   OH2 2324   3.305   7.560   3.621
  794TIP3    H1 2325   3.284   7.511   3.701
  794TIP3    H2 2326   3.371   7.624   3.649
  795TIP3   OH2 2327   3.298   0.178   3.469
  795TIP3    H1 2328   3.394   0.171   3.472
  795TIP3    H2 2329   3.281   0.272   3.475
  796TIP3   OH2 2330   2.396   5.264   0.922
  796TIP3    H1 2331   2.334   5.244   0.991
  796TIP3    H2 2332   2.481   5.266   0.966
  797TIP3   OH2 2333   2.029   0.846   5.629
  797TIP3    H1 2334   2.101   0.891   5.585
  797TIP3    H2 2335   1.996   0.785   5.564
  798TIP3   OH2 2336   6.094   1.112  -0.025
  798TIP3    H1 2337   6.046   1.066   0.044
  798TIP3    H2 2338   6.127   1.191   0.018
  799TIP3   OH2 2339   1.050   3.124   4.623
  799TIP3    H1 2340   1.102   3.193   4.581
  799TIP3    H2 2341   1.040   3.154   4.714
  800TIP3   OH2 2342   2.037   6.084   6.420
  800TIP3    H1 2343   2.049   6.178   6.435
  800TIP3    H2 2344   2.061   6.043   6.503
  801TIP3   OH2 2345   0.558   4.883   2.770
  801TIP3    H1 2346   0.579   4.904   2.861
  801TIP3    H2 2347   0.470   4.845   2.774
  802TIP3   OH2 2348   0.223   5.564   5.795
  802TIP3    H1 2349   0.157   5.609   5.742
  802TIP3    H2 2350   0.174   5.501   5.847
  803TIP3   OH2 2351   7.407   1.975   5.779
  803TIP3    H1 2352   7.337   2.033   5.808
  803TIP3    H2 2353   7.476   1.985   5.844
  804TIP3   OH2 2354   1.948   5.010   1.203
  804TIP3    H1 2355   1.988   5.094   1.179
  804TIP3    H2 2356   1.854   5.022   1.187
  805TIP3   OH2 2357   1.847   7.406   3.995
  805TIP3    H1 2358   1.938   7.434   4.003
  805TIP3    H2 2359   1.851   7.325   3.945
  806TIP3   OH2 2360   0.608   3.311   1.815
  806TIP3    H1 2361   0.605   3.285   1.907
  806TIP3    H2 2362   0.676   3.256   1.777
  807TIP3   OH2 2363   0.039   7.313   3.554
  807TIP3    H1 2364   0.061   7.286   3.464
  807TIP3    H2 2365  -0.022   7.386   3.543
  808TIP3   OH2 2366   7.011   1.476   1.980
  808TIP3    H1 2367   7.011   1.504   2.071
  808TIP3    H2 2368   7.094   1.430   1.969
  809TIP3   OH2 2369   6.799   4.703   0.428
  809TIP3    H1 2370   6.836   4.681   0.513
  809TIP3    H2 2371   6.758   4.788   0.441
  810TIP3   OH2 2372   4.336   0.201   6.356
  810TIP3    H1 2373   4.394   0.186   6.282
  810TIP3    H2 2374   4.392   0.190   6.433
  811TIP3   OH2 2375   7.878   7.739   2.683
  811TIP3    H1 2376   7.955   7.719   2.630
  811TIP3    H2 2377   7.871   7.835   2.679
  812TIP3   OH2 2378   6.167   2.015   4.501
  812TIP3    H1 2379   6.144   2.098   4.543
  812TIP3    H2 2380   6.142   2.026   4.409
  813TIP3   OH2 2381   2.984   2.842   4.442
  813TIP3    H1 2382   2.962   2.802   4.358
  813TIP3    H2 2383   2.901   2.878   4.474
  814TIP3   OH2 2384  -0.003   7.469   6.017
  814TIP3    H1 2385   0.071   7.526   6.038
  814TIP3    H2 2386   0.024   7.423   5.937
  815TIP3   OH2 2387   4.579   4.524   4.517
  815TIP3    H1 2388   4.540   4.560   4.596
  815TIP3    H2 2389   4.507   4.519   4.454
  816TIP3   OH2 2390   6.298   1.946   2.682
  816TIP3    H1 2391   6.211   1.910   2.696
  816TIP3    H2 2392   6.285   2.040   2.676
  817TIP3   OH2 2393   4.278   5.260   0.555
  817TIP3    H1 2394   4.256   5.177   0.513
  817TIP3    H2 2395   4.262   5.244   0.648
  818TIP3   OH2 2396   6.051   5.023   0.979
  818TIP3    H1 2397   6.130   4.979   0.946
  818TIP3    H2 2398   5.981   4.994   0.920
  819TIP3   OH2 2399   2.603   4.838   4.468
  819TIP3    H1 2400   2.602   4.744   4.447
  819TIP3    H2 2401   2.523   4.872   4.428
  820TIP3   OH2 2402   6.923   4.147   1.363
  820TIP3    H1 2403   6.878   4.099   1.293
  820TIP3    H2 2404   6.973   4.080   1.410
  821TIP3   OH2 2405   7.251   2.744   2.186
  821TIP3    H1 2406   7.326   2.774   2.136
  821TIP3    H2 2407   7.187   2.815   2.179
  822TIP3   OH2 2408   6.617   2.681   0.002
  822TIP3    H1 2409   6.629   2.714  -0.087
  822TIP3    H2 2410   6.534   2.719   0.031
  823TIP3   OH2 2411   8.257   2.948   0.934
  823TIP3    H1 2412   8.244   2.987   0.847
  823TIP3    H2 2413   8.339   2.986   0.966
  824TIP3   OH2 2414   3.505   5.874   3.291
  824TIP3    H1 2415   3.568   5.885   3.220
  824TIP3    H2 2416   3.542   5.924   3.364
  825TIP3   OH2 2417   0.621   6.494   0.555
  825TIP3    H1 2418   0.627   6.408   0.513
  825TIP3    H2 2419   0.608   6.474   0.648
  826TIP3   OH2 2420   1.285   7.748   1.690
  826TIP3    H1 2421   1.304   7.828   1.740
  826TIP3    H2 2422   1.369   7.704   1.683
  827TIP3   OH2 2423   4.306   7.811   5.706
  827TIP3    H1 2424   4.280   7.723   5.732
  827TIP3    H2 2425   4.271   7.869   5.774
  828TIP3   OH2 2426   0.997   0.623   2.896
  828TIP3    H1 2427   0.963   0.668   2.819
  828TIP3    H2 2428   0.932   0.556   2.916
  829TIP3   OH2 2429   7.964   0.846   6.358
  829TIP3    H1 2430   8.056   0.823   6.346
  829TIP3    H2 2431   7.957   0.935   6.323
  830TIP3   OH2 2432   5.498   1.003   4.091
  830TIP3    H1 2433   5.567   1.031   4.032
  830TIP3    H2 2434   5.509   1.057   4.169
  831TIP3   OH2 2435   5.559   4.751   6.286
  831TIP3    H1 2436   5.579   4.844   6.295
  831TIP3    H2 2437   5.552   4.719   6.376
  832TIP3   OH2 2438   5.344   3.735   4.467
  832TIP3    H1 2439   5.269   3.780   4.427
  832TIP3    H2 2440   5.392   3.697   4.393
  833TIP3   OH2 2441   7.141   1.941   1.673
  833TIP3    H1 2442   7.205   1.930   1.744
  833TIP3    H2 2443   7.142   1.857   1.627
  834TIP3   OH2 2444   0.308   2.615   3.136
  834TIP3    H1 2445   0.293   2.677   3.064
  834TIP3    H2 2446   0.403   2.609   3.143
  835TIP3   OH2 2447   3.227   3.995   0.295
  835TIP3    H1 2448   3.237   4.055   0.221
  835TIP3    H2 2449   3.164   3.930   0.265
  836TIP3   OH2 2450   6.175   7.715   1.539
  836TIP3    H1 2451   6.130   7.733   1.621
  836TIP3    H2 2452   6.254   7.769   1.543
  837TIP3   OH2 2453   6.856   3.581   2.267
  837TIP3    H1 2454   6.890   3.564   2.179
  837TIP3    H2 2455   6.856   3.495   2.310
  838TIP3   OH2 2456   1.047   2.244   0.555
  838TIP3    H1 2457   1.035   2.339   0.552
  838TIP3    H2 2458   1.107   2.226   0.483
  839TIP3   OH2 2459   5.398   7.168   4.279
  839TIP3    H1 2460   5.474   7.226   4.285
  839TIP3    H2 2461   5.324   7.225   4.299
  840TIP3   OH2 2462   1.591   2.987   3.543
  840TIP3    H1 2463   1.569   2.919   3.606
  840TIP3    H2 2464   1.541   3.063   3.570
  841TIP3   OH2 2465   5.898   5.455   4.650
  841TIP3    H1 2466   5.955   5.454   4.726
  841TIP3    H2 2467   5.833   5.386   4.667
  842TIP3   OH2 2468   3.240   5.988   5.780
  842TIP3    H1 2469   3.264   5.947   5.697
  842TIP3    H2 2470   3.281   5.932   5.847
  843TIP3   OH2 2471   5.189   5.197   5.353
  843TIP3    H1 2472   5.154   5.111   5.327
  843TIP3    H2 2473   5.274   5.177   5.393
  844TIP3   OH2 2474   5.476   3.675   0.934
  844TIP3    H1 2475   5.426   3.700   0.857
  844TIP3    H2 2476   5.412   3.674   1.005
  845TIP3   OH2 2477   1.258   4.529   5.318
  845TIP3    H1 2478   1.311   4.455   5.350
  845TIP3    H2 2479   1.170   4.511   5.351
  846TIP3   OH2 2480   4.012   6.843   1.021
  846TIP3    H1 2481   4.048   6.929   0.998
  846TIP3    H2 2482   4.016   6.841   1.117
  847TIP3   OH2 2483   3.882   2.181   1.209
  847TIP3    H1 2484   3.915   2.265   1.242
  847TIP3    H2 2485   3.787   2.192   1.210
  848TIP3   OH2 2486   0.273   1.191   3.199
  848TIP3    H1 2487   0.367   1.190   3.215
  848TIP3    H2 2488   0.262   1.142   3.118
  849TIP3   OH2 2489   7.047   7.482   2.203
  849TIP3    H1 2490   7.099   7.506   2.127
  849TIP3    H2 2491   6.956   7.489   2.174
  850TIP3   OH2 2492   2.536   1.837   2.904
  850TIP3    H1 2493   2.457   1.848   2.957
  850TIP3    H2 2494   2.521   1.892   2.827
  851TIP3   OH2 2495   6.624   3.500   5.806
  851TIP3    H1 2496   6.570   3.568   5.845
  851TIP3    H2 2497   6.668   3.542   5.733
  852TIP3   OH2 2498   1.029   3.576   5.481
  852TIP3    H1 2499   0.939   3.545   5.490
  852TIP3    H2 2500   1.056   3.545   5.394
  853TIP3   OH2 2501   4.790   5.017   1.460
  853TIP3    H1 2502   4.714   5.021   1.401
  853TIP3    H2 2503   4.858   4.973   1.409
  854TIP3   OH2 2504   5.034   0.430   1.861
  854TIP3    H1 2505   5.000   0.465   1.778
  854TIP3    H2 2506   5.025   0.503   1.923
  855TIP3   OH2 2507   7.328   3.003   3.240
  855TIP3    H1 2508   7.328   2.913   3.208
  855TIP3    H2 2509   7.244   3.014   3.284
  856TIP3   OH2 2510   5.107   0.335   6.476
  856TIP3    H1 2511   5.059   0.299   6.402
  856TIP3    H2 2512   5.199   0.319   6.455
  857TIP3   OH2 2513   7.102   3.762   2.563
  857TIP3    H1 2514   7.056   3.689   2.607
  857TIP3    H2 2515   7.180   3.722   2.526
  858TIP3   OH2 2516   0.794   1.850   1.773
  858TIP3    H1 2517   0.828   1.876   1.858
  858TIP3    H2 2518   0.791   1.754   1.777
  859TIP3   OH2 2519   5.927   6.427   5.418
  859TIP3    H1 2520   5.983   6.502   5.399
  859TIP3    H2 2521   5.842   6.451   5.380
  860TIP3   OH2 2522   2.902   1.027   3.119
  860TIP3    H1 2523   2.948   1.099   3.161
  860TIP3    H2 2524   2.967   0.956   3.115
  861TIP3   OH2 2525   6.841   6.466   5.306
  861TIP3    H1 2526   6.803   6.443   5.391
  861TIP3    H2 2527   6.817   6.558   5.294
  862TIP3   OH2 2528   4.307   0.940   1.271
  862TIP3    H1 2529   4.303   1.030   1.304
  862TIP3    H2 2530   4.216   0.917   1.254
  863TIP3   OH2 2531   0.463   0.948   1.551
  863TIP3    H1 2532   0.400   0.894   1.599
  863TIP3    H2 2533   0.409   1.012   1.504
  864TIP3   OH2 2534   1.803   4.958   0.666
  864TIP3    H1 2535   1.765   4.880   0.706
  864TIP3    H2 2536   1.869   4.988   0.728
  865TIP3   OH2 2537   3.085   7.037   0.699
  865TIP3    H1 2538   3.007   6.982   0.685
  865TIP3    H2 2539   3.064   7.119   0.655
  866TIP3   OH2 2540   5.009   6.421   0.661
  866TIP3    H1 2541   4.976   6.488   0.601
  866TIP3    H2 2542   4.930   6.381   0.696
  867TIP3   OH2 2543   2.439   2.938   1.531
  867TIP3    H1 2544   2.429   2.986   1.449
  867TIP3    H2 2545   2.374   2.976   1.590
  868TIP3   OH2 2546   8.306   0.616   3.130
  868TIP3    H1 2547   8.211   0.609   3.142
  868TIP3    H2 2548   8.327   0.705   3.155
  869TIP3   OH2 2549   3.659   1.011   2.554
  869TIP3    H1 2550   3.669   1.046   2.465
  869TIP3    H2 2551   3.582   1.056   2.589
  870TIP3   OH2 2552   6.039   2.843   1.817
  870TIP3    H1 2553   6.119   2.813   1.860
  870TIP3    H2 2554   5.983   2.872   1.889
  871TIP3   OH2 2555   2.202   5.729   4.949
  871TIP3    H1 2556   2.203   5.782   5.029
  871TIP3    H2 2557   2.199   5.638   4.980
  872TIP3   OH2 2558   2.010   7.631   3.380
  872TIP3    H1 2559   1.996   7.725   3.392
  872TIP3    H2 2560   2.029   7.599   3.468
  873TIP3   OH2 2561   4.441   5.432   0.925
  873TIP3    H1 2562   4.465   5.357   0.871
  873TIP3    H2 2563   4.513   5.493   0.915
  874TIP3   OH2 2564   2.984   5.422   2.250
  874TIP3    H1 2565   2.930   5.439   2.173
  874TIP3    H2 2566   2.924   5.384   2.313
  875TIP3   OH2 2567   1.545   3.008   6.016
  875TIP3    H1 2568   1.547   2.951   6.093
  875TIP3    H2 2569   1.587   3.089   6.046
  876TIP3   OH2 2570   4.543   0.693   6.317
  876TIP3    H1 2571   4.635   0.715   6.330
  876TIP3    H2 2572   4.515   0.657   6.402
  877TIP3   OH2 2573   5.211   4.959   5.601
  877TIP3    H1 2574   5.287   4.932   5.550
  877TIP3    H2 2575   5.143   4.895   5.577
  878TIP3   OH2 2576   7.337   5.814   3.571
  878TIP3    H1 2577   7.346   5.731   3.618
  878TIP3    H2 2578   7.281   5.792   3.496
  879TIP3   OH2 2579   1.142   2.189   2.318
  879TIP3    H1 2580   1.172   2.187   2.409
  879TIP3    H2 2581   1.222   2.201   2.267
  880TIP3   OH2 2582   6.365   5.370   3.512
  880TIP3    H1 2583   6.395   5.285   3.545
  880TIP3    H2 2584   6.419   5.434   3.558
  881TIP3   OH2 2585   1.287   7.584   3.629
  881TIP3    H1 2586   1.342   7.604   3.706
  881TIP3    H2 2587   1.205   7.630   3.647
  882TIP3   OH2 2588   7.737   2.418   3.939
  882TIP3    H1 2589   7.720   2.467   4.019
  882TIP3    H2 2590   7.740   2.485   3.871
  883TIP3   OH2 2591   7.163   1.680   0.530
  883TIP3    H1 2592   7.207   1.764   0.520
  883TIP3    H2 2593   7.072   1.703   0.551
  884TIP3   OH2 2594   1.676   3.621   4.400
  884TIP3    H1 2595   1.685   3.677   4.323
  884TIP3    H2 2596   1.751   3.562   4.396
  885TIP3   OH2 2597   7.246   6.021   1.091
  885TIP3    H1 2598   7.191   6.048   1.165
  885TIP3    H2 2599   7.325   6.074   1.098
  886TIP3   OH2 2600   7.541   3.541   6.665
  886TIP3    H1 2601   7.598   3.464   6.675
  886TIP3    H2 2602   7.553   3.589   6.747
  887TIP3   OH2 2603   1.877   1.562   4.343
  887TIP3    H1 2604   1.918   1.615   4.274
  887TIP3    H2 2605   1.823   1.625   4.391
  888TIP3   OH2 2606   4.990   6.759   1.882
  888TIP3    H1 2607   4.977   6.684   1.940
  888TIP3    H2 2608   4.928   6.745   1.810
  889TIP3   OH2 2609   3.138   6.860   2.687
  889TIP3    H1 2610   3.231   6.872   2.706
  889TIP3    H2 2611   3.114   6.780   2.735
  890TIP3   OH2 2612   2.388   5.419   1.472
  890TIP3    H1 2613   2.320   5.354   1.454
  890TIP3    H2 2614   2.426   5.439   1.387
  891TIP3   OH2 2615   1.588   3.171   5.316
  891TIP3    H1 2616   1.544   3.119   5.249
  891TIP3    H2 2617   1.519   3.226   5.352
  892TIP3   OH2 2618   4.413   3.097   4.181
  892TIP3    H1 2619   4.417   3.191   4.200
  892TIP3    H2 2620   4.353   3.089   4.107
  893TIP3   OH2 2621   7.609   4.657   4.194
  893TIP3    H1 2622   7.542   4.696   4.138
  893TIP3    H2 2623   7.597   4.700   4.278
  894TIP3   OH2 2624   1.321   7.047   3.979
  894TIP3    H1 2625   1.365   7.050   3.894
  894TIP3    H2 2626   1.246   6.988   3.965
  895TIP3   OH2 2627   1.031   5.901   5.665
  895TIP3    H1 2628   1.029   5.881   5.571
  895TIP3    H2 2629   1.121   5.931   5.681
  896TIP3   OH2 2630   1.019   4.364   0.180
  896TIP3    H1 2631   1.112   4.348   0.168
  896TIP3    H2 2632   0.992   4.303   0.248
  897TIP3   OH2 2633   6.313   4.276   4.754
  897TIP3    H1 2634   6.279   4.259   4.666
  897TIP3    H2 2635   6.241   4.251   4.812
  898TIP3   OH2 2636   2.877   4.553   2.424
  898TIP3    H1 2637   2.858   4.511   2.507
  898TIP3    H2 2638   2.874   4.647   2.443
  899TIP3   OH2 2639   6.498   4.660   6.579
  899TIP3    H1 2640   6.592   4.662   6.599
  899TIP3    H2 2641   6.458   4.711   6.649
  900TIP3   OH2 2642   6.674   2.935   2.698
  900TIP3    H1 2643   6.717   2.998   2.756
  900TIP3    H2 2644   6.587   2.972   2.683
  901TIP3   OH2 2645   2.228   7.247   5.718
  901TIP3    H1 2646   2.149   7.298   5.735
  901TIP3    H2 2647   2.220   7.221   5.627
  902TIP3   OH2 2648   5.673   3.617   6.714
  902TIP3    H1 2649   5.726   3.657   6.645
  902TIP3    H2 2650   5.706   3.657   6.795
  903TIP3   OH2 2651   0.412   5.224   2.536
  903TIP3    H1 2652   0.427   5.248   2.628
  903TIP3    H2 2653   0.369   5.139   2.540
  904TIP3   OH2 2654   1.104   7.637   1.946
  904TIP3    H1 2655   1.140   7.716   1.988
  904TIP3    H2 2656   1.151   7.630   1.863
  905TIP3   OH2 2657   2.909   1.633   1.349
  905TIP3    H1 2658   2.821   1.619   1.314
  905TIP3    H2 2659   2.965   1.575   1.298
  906TIP3   OH2 2660   3.166   6.689   0.756
  906TIP3    H1 2661   3.251   6.726   0.732
  906TIP3    H2 2662   3.187   6.606   0.799
  907TIP3   OH2 2663   4.233   5.127   3.712
  907TIP3    H1 2664   4.272   5.189   3.650
  907TIP3    H2 2665   4.157   5.173   3.747
  908TIP3   OH2 2666   2.579   2.003   3.376
  908TIP3    H1 2667   2.562   1.919   3.333
  908TIP3    H2 2668   2.493   2.042   3.389
  909TIP3   OH2 2669   1.997   1.604   0.998
  909TIP3    H1 2670   2.054   1.611   0.922
  909TIP3    H2 2671   1.941   1.529   0.981
  910TIP3   OH2 2672   8.239   7.695   0.234
  910TIP3    H1 2673   8.246   7.735   0.147
  910TIP3    H2 2674   8.145   7.682   0.246
  911TIP3   OH2 2675   6.775   2.254   5.448
  911TIP3    H1 2676   6.683   2.280   5.449
  911TIP3    H2 2677   6.780   2.180   5.509
  912TIP3   OH2 2678   3.083   6.428   2.115
  912TIP3    H1 2679   2.989   6.433   2.098
  912TIP3    H2 2680   3.116   6.366   2.049
  913TIP3   OH2 2681   5.133   5.237   2.911
  913TIP3    H1 2682   5.056   5.199   2.870
  913TIP3    H2 2683   5.107   5.327   2.933
  914TIP3   OH2 2684   3.874   7.793   1.177
  914TIP3    H1 2685   3.899   7.712   1.222
  914TIP3    H2 2686   3.810   7.765   1.111
  915TIP3   OH2 2687   2.534   6.624   6.156
  915TIP3    H1 2688   2.612   6.668   6.121
  915TIP3    H2 2689   2.461   6.666   6.111
  916TIP3   OH2 2690   7.904   2.132   2.690
  916TIP3    H1 2691   7.986   2.114   2.737
  916TIP3    H2 2692   7.920   2.101   2.601
  917TIP3   OH2 2693   2.092   5.614   6.603
  917TIP3    H1 2694   2.045   5.582   6.680
  917TIP3    H2 2695   2.184   5.592   6.620
  918TIP3   OH2 2696   0.371   3.255   2.138
  918TIP3    H1 2697   0.334   3.197   2.205
  918TIP3    H2 2698   0.356   3.343   2.172
  919TIP3   OH2 2699   7.185   4.987   2.352
  919TIP3    H1 2700   7.197   4.940   2.434
  919TIP3    H2 2701   7.234   5.068   2.364
  920TIP3   OH2 2702   5.285   7.121   6.144
  920TIP3    H1 2703   5.353   7.067   6.183
  920TIP3    H2 2704   5.253   7.175   6.217
  921TIP3   OH2 2705   2.259   2.357   0.474
  921TIP3    H1 2706   2.333   2.302   0.499
  921TIP3    H2 2707   2.191   2.336   0.538
  922TIP3   OH2 2708   7.625   3.249   0.530
  922TIP3    H1 2709   7.621   3.333   0.484
  922TIP3    H2 2710   7.641   3.272   0.621
  923TIP3   OH2 2711   0.670   6.180   1.442
  923TIP3    H1 2712   0.727   6.250   1.408
  923TIP3    H2 2713   0.717   6.099   1.422
  924TIP3   OH2 2714   8.013   2.196   2.184
  924TIP3    H1 2715   8.012   2.266   2.119
  924TIP3    H2 2716   8.069   2.228   2.254
  925TIP3   OH2 2717   8.193   2.524   4.705
  925TIP3    H1 2718   8.162   2.434   4.693
  925TIP3    H2 2719   8.238   2.545   4.623
  926TIP3   OH2 2720   1.567   1.747   0.649
  926TIP3    H1 2721   1.593   1.658   0.622
  926TIP3    H2 2722   1.542   1.737   0.741
  927TIP3   OH2 2723   7.709   4.098   4.611
  927TIP3    H1 2724   7.687   4.189   4.595
  927TIP3    H2 2725   7.747   4.097   4.699
  928TIP3   OH2 2726   6.883   1.651   5.625
  928TIP3    H1 2727   6.928   1.722   5.671
  928TIP3    H2 2728   6.809   1.629   5.682
  929TIP3   OH2 2729   4.535   5.918   1.823
  929TIP3    H1 2730   4.602   5.851   1.838
  929TIP3    H2 2731   4.503   5.901   1.734
  930TIP3   OH2 2732   5.097   7.366   0.798
  930TIP3    H1 2733   5.138   7.356   0.884
  930TIP3    H2 2734   5.089   7.276   0.765
  931TIP3   OH2 2735   7.490   3.289   6.108
  931TIP3    H1 2736   7.413   3.236   6.085
  931TIP3    H2 2737   7.497   3.281   6.203
  932TIP3   OH2 2738   4.875   5.580   4.768
  932TIP3    H1 2739   4.780   5.586   4.752
  932TIP3    H2 2740   4.884   5.506   4.828
  933TIP3   OH2 2741   1.356   6.260   6.392
  933TIP3    H1 2742   1.399   6.326   6.339
  933TIP3    H2 2743   1.295   6.217   6.332
  934TIP3   OH2 2744   6.825   6.435   5.589
  934TIP3    H1 2745   6.920   6.448   5.591
  934TIP3    H2 2746   6.808   6.375   5.662
  935TIP3   OH2 2747   7.847   5.744   6.456
  935TIP3    H1 2748   7.932   5.727   6.495
  935TIP3    H2 2749   7.787   5.683   6.500
  936TIP3   OH2 2750   1.898   1.880   6.120
  936TIP3    H1 2751   1.920   1.972   6.135
  936TIP3    H2 2752   1.981   1.833   6.128
  937TIP3   OH2 2753   7.159   5.054   6.768
  937TIP3    H1 2754   7.166   4.980   6.708
  937TIP3    H2 2755   7.066   5.075   6.770
  938TIP3   OH2 2756   8.131   1.299   3.439
  938TIP3    H1 2757   8.114   1.365   3.372
  938TIP3    H2 2758   8.193   1.239   3.399
  939TIP3   OH2 2759   1.626   1.986   5.291
  939TIP3    H1 2760   1.721   1.973   5.289
  939TIP3    H2 2761   1.606   2.002   5.383
  940TIP3   OH2 2762   6.792   4.639   4.137
  940TIP3    H1 2763   6.877   4.669   4.105
  940TIP3    H2 2764   6.742   4.619   4.058
  941TIP3   OH2 2765   2.546   5.685   4.208
  941TIP3    H1 2766   2.626   5.669   4.156
  941TIP3    H2 2767   2.557   5.630   4.285
  942TIP3   OH2 2768   6.993   6.727   2.900
  942TIP3    H1 2769   7.022   6.781   2.827
  942TIP3    H2 2770   7.018   6.638   2.875
  943TIP3   OH2 2771   4.858   1.935   4.304
  943TIP3    H1 2772   4.939   1.897   4.272
  943TIP3    H2 2773   4.885   2.004   4.364
  944TIP3   OH2 2774   1.117   2.405   6.238
  944TIP3    H1 2775   1.091   2.331   6.184
  944TIP3    H2 2776   1.085   2.482   6.191
  945TIP3   OH2 2777   2.407   5.988   3.947
  945TIP3    H1 2778   2.476   5.939   3.902
  945TIP3    H2 2779   2.454   6.058   3.993
  946TIP3   OH2 2780   3.574   2.492   3.385
  946TIP3    H1 2781   3.623   2.444   3.452
  946TIP3    H2 2782   3.571   2.582   3.417
  947TIP3   OH2 2783   0.721   4.669   1.703
  947TIP3    H1 2784   0.707   4.762   1.719
  947TIP3    H2 2785   0.815   4.663   1.683
  948TIP3   OH2 2786   7.972   7.189   0.767
  948TIP3    H1 2787   7.989   7.133   0.691
  948TIP3    H2 2788   7.998   7.135   0.842
  949TIP3   OH2 2789   0.884   5.150   3.044
  949TIP3    H1 2790   0.956   5.106   2.998
  949TIP3    H2 2791   0.897   5.243   3.024
  950TIP3   OH2 2792   2.075   5.013   3.741
  950TIP3    H1 2793   2.018   4.946   3.778
  950TIP3    H2 2794   2.016   5.084   3.716
  951TIP3   OH2 2795   4.777   7.445   0.496
  951TIP3    H1 2796   4.847   7.511   0.493
  951TIP3    H2 2797   4.770   7.413   0.406
  952TIP3   OH2 2798   5.739   2.855   3.466
  952TIP3    H1 2799   5.798   2.896   3.529
  952TIP3    H2 2800   5.795   2.795   3.417
  953TIP3   OH2 2801   2.822   2.137   3.422
  953TIP3    H1 2802   2.738   2.095   3.401
  953TIP3    H2 2803   2.872   2.068   3.466
  954TIP3   OH2 2804   2.530   0.820   5.265
  954TIP3    H1 2805   2.503   0.785   5.180
  954TIP3    H2 2806   2.620   0.849   5.252
  955TIP3   OH2 2807   3.757   1.245   0.849
  955TIP3    H1 2808   3.673   1.228   0.806
  955TIP3    H2 2809   3.769   1.339   0.841
  956TIP3   OH2 2810   1.158   2.109   3.354
  956TIP3    H1 2811   1.145   2.200   3.326
  956TIP3    H2 2812   1.115   2.104   3.439
  957TIP3   OH2 2813   6.798   6.482   3.715
  957TIP3    H1 2814   6.891   6.465   3.732
  957TIP3    H2 2815   6.756   6.397   3.724
  958TIP3   OH2 2816   7.286   2.297   0.827
  958TIP3    H1 2817   7.203   2.289   0.874
  958TIP3    H2 2818   7.335   2.218   0.850
  959TIP3   OH2 2819   4.215   7.716   2.515
  959TIP3    H1 2820   4.177   7.722   2.603
  959TIP3    H2 2821   4.307   7.692   2.530
  960TIP3   OH2 2822   0.997   6.366   0.338
  960TIP3    H1 2823   1.035   6.437   0.389
  960TIP3    H2 2824   1.013   6.288   0.391
  961TIP3   OH2 2825   0.825   5.957   2.301
  961TIP3    H1 2826   0.788   5.872   2.324
  961TIP3    H2 2827   0.757   6.000   2.249
  962TIP3   OH2 2828   0.085   1.082   6.025
  962TIP3    H1 2829   0.136   1.104   5.947
  962TIP3    H2 2830   0.128   1.131   6.096
  963TIP3   OH2 2831   7.809   6.613   4.197
  963TIP3    H1 2832   7.815   6.631   4.291
  963TIP3    H2 2833   7.806   6.700   4.157
  964TIP3   OH2 2834   3.765   6.906   3.705
  964TIP3    H1 2835   3.760   6.867   3.792
  964TIP3    H2 2836   3.674   6.919   3.680
  965TIP3   OH2 2837   2.830   4.094   6.244
  965TIP3    H1 2838   2.850   4.032   6.314
  965TIP3    H2 2839   2.832   4.042   6.164
  966TIP3   OH2 2840   3.968   7.222   4.272
  966TIP3    H1 2841   4.052   7.258   4.299
  966TIP3    H2 2842   3.985   7.128   4.260
  967TIP3   OH2 2843   5.186   0.622   4.115
  967TIP3    H1 2844   5.269   0.653   4.151
  967TIP3    H2 2845   5.130   0.699   4.112
  968TIP3   OH2 2846   5.048   5.202   6.597
  968TIP3    H1 2847   5.060   5.281   6.649
  968TIP3    H2 2848   5.137   5.170   6.582
  969TIP3   OH2 2849   2.752   7.268   5.415
  969TIP3    H1 2850   2.783   7.341   5.470
  969TIP3    H2 2851   2.670   7.240   5.457
  970TIP3   OH2 2852   0.655   4.616   2.242
  970TIP3    H1 2853   0.612   4.558   2.304
  970TIP3    H2 2854   0.583   4.663   2.199
  971TIP3   OH2 2855   2.660   0.759   5.789
  971TIP3    H1 2856   2.707   0.690   5.742
  971TIP3    H2 2857   2.674   0.738   5.882
  972TIP3   OH2 2858   4.760   1.536   4.669
  972TIP3    H1 2859   4.749   1.607   4.606
  972TIP3    H2 2860   4.722   1.569   4.750
  973TIP3   OH2 2861   7.402   5.070   1.733
  973TIP3    H1 2862   7.365   5.117   1.807
  973TIP3    H2 2863   7.331   5.064   1.670
  974TIP3   OH2 2864   2.311   3.314   1.652
  974TIP3    H1 2865   2.285   3.230   1.613
  974TIP3    H2 2866   2.234   3.369   1.644
  975TIP3   OH2 2867   4.603   6.955   4.066
  975TIP3    H1 2868   4.513   6.971   4.036
  975TIP3    H2 2869   4.650   7.036   4.048
  976TIP3   OH2 2870   5.420   5.847   1.498
  976TIP3    H1 2871   5.472   5.808   1.428
  976TIP3    H2 2872   5.460   5.933   1.512
  977TIP3   OH2 2873   6.361   3.065   1.026
  977TIP3    H1 2874   6.366   3.145   1.079
  977TIP3    H2 2875   6.301   3.087   0.955
  978TIP3   OH2 2876   5.976   1.579   2.469
  978TIP3    H1 2877   5.921   1.551   2.543
  978TIP3    H2 2878   6.049   1.517   2.469
  979TIP3   OH2 2879   2.487   6.406   6.322
  979TIP3    H1 2880   2.510   6.493   6.290
  979TIP3    H2 2881   2.542   6.347   6.272
  980TIP3   OH2 2882   6.581   6.226   1.523
  980TIP3    H1 2883   6.662   6.277   1.518
  980TIP3    H2 2884   6.590   6.161   1.453
  981TIP3   OH2 2885   3.861   4.756   6.691
  981TIP3    H1 2886   3.875   4.682   6.631
  981TIP3    H2 2887   3.947   4.770   6.731
  982TIP3   OH2 2888   4.199   3.007   3.771
  982TIP3    H1 2889   4.203   2.912   3.760
  982TIP3    H2 2890   4.136   3.036   3.704
  983TIP3   OH2 2891   6.132   4.981   2.214
  983TIP3    H1 2892   6.131   4.918   2.142
  983TIP3    H2 2893   6.224   4.988   2.239
  984TIP3   OH2 2894   4.427   5.565   1.790
  984TIP3    H1 2895   4.417   5.659   1.774
  984TIP3    H2 2896   4.361   5.524   1.735
  985TIP3   OH2 2897   1.969   7.479   0.936
  985TIP3    H1 2898   1.892   7.441   0.892
  985TIP3    H2 2899   1.950   7.470   1.029
  986TIP3   OH2 2900   3.434   0.142   6.137
  986TIP3    H1 2901   3.499   0.101   6.195
  986TIP3    H2 2902   3.413   0.225   6.179
  987TIP3   OH2 2903   6.760   7.359   1.943
  987TIP3    H1 2904   6.683   7.311   1.972
  987TIP3    H2 2905   6.833   7.301   1.963
  988TIP3   OH2 2906   7.290   3.138   6.473
  988TIP3    H1 2907   7.336   3.094   6.402
  988TIP3    H2 2908   7.198   3.129   6.451
  989TIP3   OH2 2909   2.690   1.867   4.636
  989TIP3    H1 2910   2.667   1.798   4.698
  989TIP3    H2 2911   2.732   1.934   4.690
  990TIP3   OH2 2912   0.361   1.715   3.428
  990TIP3    H1 2913   0.431   1.663   3.388
  990TIP3    H2 2914   0.334   1.665   3.505
  991TIP3   OH2 2915   5.147   7.459   4.666
  991TIP3    H1 2916   5.183   7.395   4.728
  991TIP3    H2 2917   5.222   7.514   4.644
  992TIP3   OH2 2918   3.623   0.102   4.833
  992TIP3    H1 2919   3.629   0.067   4.922
  992TIP3    H2 2920   3.564   0.042   4.787
  993TIP3   OH2 2921   6.339   3.917   3.118
  993TIP3    H1 2922   6.385   3.859   3.057
  993TIP3    H2 2923   6.407   3.974   3.154
  994TIP3   OH2 2924   7.584   1.767   2.440
  994TIP3    H1 2925   7.666   1.758   2.392
  994TIP3    H2 2926   7.588   1.854   2.479
  995TIP3   OH2 2927   2.853   7.630   5.979
  995TIP3    H1 2928   2.767   7.615   5.941
  995TIP3    H2 2929   2.890   7.543   5.991
  996TIP3   OH2 2930   4.175   2.046   0.761
  996TIP3    H1 2931   4.199   2.025   0.851
  996TIP3    H2 2932   4.166   1.961   0.718
  997TIP3   OH2 2933   1.165   1.648   5.997
  997TIP3    H1 2934   1.190   1.563   6.033
  997TIP3    H2 2935   1.078   1.665   6.034
  998TIP3   OH2 2936   6.562   6.441   2.870
  998TIP3    H1 2937   6.646   6.467   2.831
  998TIP3    H2 2938   6.509   6.411   2.795
  999TIP3   OH2 2939   3.907   7.681   4.554
  999TIP3    H1 2940   3.819   7.647   4.541
  999TIP3    H2 2941   3.902   7.772   4.526
 1000TIP3   OH2 2942   7.435   0.484   2.999
 1000TIP3    H1 2943   7.370   0.528   3.053
 1000TIP3    H2 2944   7.386   0.452   2.924
 1001TIP3   OH2 2945   6.681   2.911   1.324
 1001TIP3    H1 2946   6.772   2.917   1.354
 1001TIP3    H2 2947   6.661   2.999   1.291
 1002TIP3   OH2 2948   3.736   3.844   4.716
 1002TIP3    H1 2949   3.729   3.826   4.623
 1002TIP3    H2 2950   3.790   3.923   4.721
 1003TIP3   OH2 2951   3.669   4.165   0.447
 1003TIP3    H1 2952   3.637   4.099   0.385
 1003TIP3    H2 2953   3.634   4.137   0.531
 1004TIP3   OH2 2954   6.583   6.272   4.913
 1004TIP3    H1 2955   6.660   6.231   4.952
 1004TIP3    H2 2956   6.523   6.284   4.987
 1005TIP3   OH2 2957   1.157   5.334   5.590
 1005TIP3    H1 2958   1.133   5.247   5.624
 1005TIP3    H2 2959   1.118   5.395   5.652
 1006TIP3   OH2 2960   0.633   1.758   3.550
 1006TIP3    H1 2961   0.571   1.831   3.550
 1006TIP3    H2 2962   0.626   1.719   3.637
 1007TIP3   OH2 2963   2.948   4.958   3.821
 1007TIP3    H1 2964   3.004   4.924   3.891
 1007TIP3    H2 2965   3.009   5.002   3.762
 1008TIP3   OH2 2966   7.287   0.786   6.476
 1008TIP3    H1 2967   7.355   0.734   6.434
 1008TIP3    H2 2968   7.281   0.751   6.565
 1009TIP3   OH2 2969   4.567   3.384   5.610
 1009TIP3    H1 2970   4.616   3.438   5.672
 1009TIP3    H2 2971   4.595   3.294   5.629
 1010TIP3   OH2 2972   5.220   4.009   2.448
 1010TIP3    H1 2973   5.215   4.100   2.419
 1010TIP3    H2 2974   5.180   4.010   2.535
 1011TIP3   OH2 2975   3.673   0.423   5.241
 1011TIP3    H1 2976   3.632   0.442   5.157
 1011TIP3    H2 2977   3.624   0.347   5.275
 1012TIP3   OH2 2978   5.223   3.122   5.373
 1012TIP3    H1 2979   5.218   3.135   5.468
 1012TIP3    H2 2980   5.309   3.153   5.349
 1013TIP3   OH2 2981   3.571   6.236   2.780
 1013TIP3    H1 2982   3.534   6.220   2.693
 1013TIP3    H2 2983   3.503   6.208   2.841
 1014TIP3   OH2 2984   0.871   6.794   4.350
 1014TIP3    H1 2985   0.923   6.722   4.385
 1014TIP3    H2 2986   0.833   6.759   4.269
 1015TIP3   OH2 2987   6.138   5.101   0.328
 1015TIP3    H1 2988   6.168   5.056   0.249
 1015TIP3    H2 2989   6.177   5.051   0.400
 1016TIP3   OH2 2990   1.520   0.838   6.279
 1016TIP3    H1 2991   1.499   0.822   6.371
 1016TIP3    H2 2992   1.599   0.893   6.282
 1017TIP3   OH2 2993   1.301   3.044   0.188
 1017TIP3    H1 2994   1.256   2.959   0.192
 1017TIP3    H2 2995   1.394   3.021   0.194
 1018TIP3   OH2 2996   7.145   6.473   2.099
 1018TIP3    H1 2997   7.123   6.498   2.010
 1018TIP3    H2 2998   7.071   6.503   2.151
 1019TIP3   OH2 2999   1.513   3.413   0.782
 1019TIP3    H1 3000   1.473   3.364   0.710
 1019TIP3    H2 3001   1.577   3.353   0.819
 1020TIP3   OH2 3002   0.694   5.968   1.641
 1020TIP3    H1 3003   0.693   5.899   1.708
 1020TIP3    H2 3004   0.709   5.922   1.559
 1021TIP3   OH2 3005   2.425   6.427   3.172
 1021TIP3    H1 3006   2.494   6.448   3.235
 1021TIP3    H2 3007   2.444   6.483   3.097
 1022TIP3   OH2 3008   7.329   7.587   2.261
 1022TIP3    H1 3009   7.253   7.539   2.294
 1022TIP3    H2 3010   7.379   7.610   2.340
 1023TIP3   OH2 3011   0.598   7.118   2.341
 1023TIP3    H1 3012   0.517   7.155   2.375
 1023TIP3    H2 3013   0.606   7.033   2.385
 1024TIP3   OH2 3014   7.944   4.387   4.241
 1024TIP3    H1 3015   7.945   4.455   4.173
 1024TIP3    H2 3016   7.901   4.428   4.316
 1025TIP3   OH2 3017   2.598   1.256   3.560
 1025TIP3    H1 3018   2.566   1.331   3.509
 1025TIP3    H2 3019   2.580   1.180   3.503
 1026TIP3   OH2 3020   2.513   7.312   4.110
 1026TIP3    H1 3021   2.541   7.335   4.021
 1026TIP3    H2 3022   2.428   7.353   4.121
 1027TIP3   OH2 3023   2.668   1.964   6.335
 1027TIP3    H1 3024   2.583   1.932   6.306
 1027TIP3    H2 3025   2.721   1.970   6.256
 1028TIP3   OH2 3026   5.440   5.018   1.850
 1028TIP3    H1 3027   5.424   5.073   1.927
 1028TIP3    H2 3028   5.418   5.073   1.776
 1029TIP3   OH2 3029   0.974   3.161   1.254
 1029TIP3    H1 3030   0.905   3.226   1.245
 1029TIP3    H2 3031   1.044   3.207   1.301
 1030TIP3   OH2 3032   0.168   3.313   6.179
 1030TIP3    H1 3033   0.132   3.226   6.166
 1030TIP3    H2 3034   0.135   3.365   6.106
 1031TIP3   OH2 3035   0.399   1.330   5.442
 1031TIP3    H1 3036   0.421   1.286   5.524
 1031TIP3    H2 3037   0.384   1.421   5.466
 1032TIP3   OH2 3038   0.317   3.260   5.640
 1032TIP3    H1 3039   0.291   3.343   5.600
 1032TIP3    H2 3040   0.364   3.214   5.571
 1033TIP3   OH2 3041   5.888   3.737   6.588
 1033TIP3    H1 3042   5.957   3.731   6.654
 1033TIP3    H2 3043   5.927   3.699   6.509
 1034TIP3   OH2 3044   0.286   0.800   2.475
 1034TIP3    H1 3045   0.347   0.846   2.417
 1034TIP3    H2 3046   0.297   0.843   2.560
 1035TIP3   OH2 3047   3.053   6.054   0.510
 1035TIP3    H1 3048   3.069   6.054   0.604
 1035TIP3    H2 3049   2.997   6.130   0.495
 1036TIP3   OH2 3050   2.721   4.463   5.252
 1036TIP3    H1 3051   2.718   4.521   5.329
 1036TIP3    H2 3052   2.799   4.492   5.204
 1037TIP3   OH2 3053   5.799   2.680   5.194
 1037TIP3    H1 3054   5.863   2.651   5.130
 1037TIP3    H2 3055   5.784   2.773   5.173
 1038TIP3   OH2 3056   4.182   3.907   6.763
 1038TIP3    H1 3057   4.116   3.838   6.762
 1038TIP3    H2 3058   4.237   3.887   6.839
 1039TIP3   OH2 3059   5.615   6.034   3.952
 1039TIP3    H1 3060   5.629   5.965   3.887
 1039TIP3    H2 3061   5.598   6.113   3.901
 1040TIP3   OH2 3062   6.152   1.858   5.853
 1040TIP3    H1 3063   6.133   1.939   5.805
 1040TIP3    H2 3064   6.129   1.878   5.943
 1041TIP3   OH2 3065   4.324   1.315   1.901
 1041TIP3    H1 3066   4.317   1.234   1.951
 1041TIP3    H2 3067   4.271   1.379   1.950
 1042TIP3   OH2 3068   6.123   4.286   6.773
 1042TIP3    H1 3069   6.170   4.203   6.777
 1042TIP3    H2 3070   6.095   4.294   6.682
 1043TIP3   OH2 3071   5.580   5.191   6.522
 1043TIP3    H1 3072   5.594   5.108   6.568
 1043TIP3    H2 3073   5.642   5.252   6.562
 1044TIP3   OH2 3074   5.741   6.376   2.950
 1044TIP3    H1 3075   5.819   6.343   2.995
 1044TIP3    H2 3076   5.744   6.471   2.961
 1045TIP3   OH2 3077   5.064   5.348   0.806
 1045TIP3    H1 3078   5.112   5.273   0.771
 1045TIP3    H2 3079   5.101   5.361   0.893
 1046TIP3   OH2 3080   5.642   3.449   2.761
 1046TIP3    H1 3081   5.619   3.446   2.668
 1046TIP3    H2 3082   5.563   3.480   2.805
 1047TIP3   OH2 3083   0.852   7.171   6.594
 1047TIP3    H1 3084   0.843   7.234   6.666
 1047TIP3    H2 3085   0.912   7.104   6.628
 1048TIP3   OH2 3086   7.396   0.371   0.959
 1048TIP3    H1 3087   7.320   0.427   0.953
 1048TIP3    H2 3088   7.444   0.404   1.036
 1049TIP3   OH2 3089   3.512   1.480   5.876
 1049TIP3    H1 3090   3.469   1.400   5.846
 1049TIP3    H2 3091   3.605   1.463   5.867
 1050TIP3   OH2 3092   8.145   3.698   2.080
 1050TIP3    H1 3093   8.099   3.689   1.997
 1050TIP3    H2 3094   8.214   3.762   2.063
 1051TIP3   OH2 3095   4.453   1.456   4.965
 1051TIP3    H1 3096   4.425   1.522   5.028
 1051TIP3    H2 3097   4.387   1.460   4.896
 1052TIP3   OH2 3098   8.082   6.771   4.226
 1052TIP3    H1 3099   8.178   6.776   4.231
 1052TIP3    H2 3100   8.063   6.683   4.195
 1053TIP3   OH2 3101   4.855   0.696   6.090
 1053TIP3    H1 3102   4.929   0.753   6.068
 1053TIP3    H2 3103   4.786   0.722   6.030
 1054TIP3   OH2 3104   5.474   6.296   3.027
 1054TIP3    H1 3105   5.568   6.277   3.030
 1054TIP3    H2 3106   5.455   6.307   2.933
 1055TIP3   OH2 3107   0.655   3.630   1.461
 1055TIP3    H1 3108   0.674   3.719   1.431
 1055TIP3    H2 3109   0.614   3.642   1.547
 1056TIP3   OH2 3110   7.732   6.146   5.343
 1056TIP3    H1 3111   7.762   6.147   5.433
 1056TIP3    H2 3112   7.746   6.235   5.311
 1057TIP3   OH2 3113   8.283   5.308   1.952
 1057TIP3    H1 3114   8.369   5.329   1.917
 1057TIP3    H2 3115   8.274   5.213   1.939
 1058TIP3   OH2 3116   7.905   0.550   1.649
 1058TIP3    H1 3117   7.959   0.484   1.693
 1058TIP3    H2 3118   7.820   0.544   1.692
 1059TIP3   OH2 3119   5.299   2.575   5.884
 1059TIP3    H1 3120   5.241   2.506   5.917
 1059TIP3    H2 3121   5.386   2.537   5.888
 1060TIP3   OH2 3122   2.316   6.099   2.431
 1060TIP3    H1 3123   2.367   6.118   2.510
 1060TIP3    H2 3124   2.372   6.125   2.358
 1061TIP3   OH2 3125   5.453   6.671   0.387
 1061TIP3    H1 3126   5.446   6.589   0.437
 1061TIP3    H2 3127   5.362   6.699   0.374
 1062TIP3   OH2 3128   2.477   3.860   0.173
 1062TIP3    H1 3129   2.462   3.950   0.203
 1062TIP3    H2 3130   2.391   3.830   0.145
 1063TIP3   OH2 3131   6.379   6.595   2.539
 1063TIP3    H1 3132   6.418   6.529   2.482
 1063TIP3    H2 3133   6.293   6.559   2.563
 1064TIP3   OH2 3134   6.623   0.963   2.851
 1064TIP3    H1 3135   6.544   0.910   2.859
 1064TIP3    H2 3136   6.610   1.034   2.914
 1065TIP3   OH2 3137   4.809   4.490   6.202
 1065TIP3    H1 3138   4.898   4.477   6.233
 1065TIP3    H2 3139   4.783   4.575   6.237
 1066TIP3   OH2 3140   8.009   0.747   6.716
 1066TIP3    H1 3141   8.028   0.677   6.654
 1066TIP3    H2 3142   7.932   0.791   6.681
 1067TIP3   OH2 3143   5.067   4.735   5.555
 1067TIP3    H1 3144   5.105   4.667   5.500
 1067TIP3    H2 3145   5.056   4.693   5.641
 1068TIP3   OH2 3146   5.690   0.265   0.963
 1068TIP3    H1 3147   5.680   0.336   0.899
 1068TIP3    H2 3148   5.697   0.186   0.910
 1069TIP3   OH2 3149   4.566   5.220   3.245
 1069TIP3    H1 3150   4.580   5.314   3.240
 1069TIP3    H2 3151   4.482   5.211   3.291
 1070TIP3   OH2 3152   2.744   5.689   0.587
 1070TIP3    H1 3153   2.749   5.726   0.498
 1070TIP3    H2 3154   2.814   5.733   0.635
 1071TIP3   OH2 3155   0.909   4.180   5.414
 1071TIP3    H1 3156   0.832   4.236   5.428
 1071TIP3    H2 3157   0.904   4.115   5.485
 1072TIP3   OH2 3158   4.868   3.398   2.249
 1072TIP3    H1 3159   4.791   3.415   2.304
 1072TIP3    H2 3160   4.942   3.404   2.310
 1073TIP3   OH2 3161   7.083   4.291   3.730
 1073TIP3    H1 3162   7.124   4.289   3.644
 1073TIP3    H2 3163   7.042   4.377   3.734
 1074TIP3   OH2 3164   6.564   3.247   5.874
 1074TIP3    H1 3165   6.471   3.247   5.898
 1074TIP3    H2 3166   6.585   3.340   5.862
 1075TIP3   OH2 3167   5.175   0.261   5.013
 1075TIP3    H1 3168   5.133   0.335   4.968
 1075TIP3    H2 3169   5.129   0.256   5.097
 1076TIP3   OH2 3170   6.768   5.052   1.525
 1076TIP3    H1 3171   6.847   5.005   1.496
 1076TIP3    H2 3172   6.731   5.088   1.445
 1077TIP3   OH2 3173   4.543   3.366   2.873
 1077TIP3    H1 3174   4.592   3.294   2.834
 1077TIP3    H2 3175   4.500   3.328   2.949
 1078TIP3   OH2 3176   4.736   6.654   6.035
 1078TIP3    H1 3177   4.659   6.704   6.063
 1078TIP3    H2 3178   4.797   6.721   6.003
 1079TIP3   OH2 3179   0.490   6.870   1.661
 1079TIP3    H1 3180   0.467   6.939   1.599
 1079TIP3    H2 3181   0.548   6.812   1.612
 1080TIP3   OH2 3182   5.510   6.905   6.109
 1080TIP3    H1 3183   5.556   6.935   6.031
 1080TIP3    H2 3184   5.572   6.918   6.180
 1081TIP3   OH2 3185   6.065   5.113   1.573
 1081TIP3    H1 3186   6.035   5.155   1.493
 1081TIP3    H2 3187   6.135   5.054   1.544
 1082TIP3   OH2 3188   1.661   6.204   4.502
 1082TIP3    H1 3189   1.642   6.284   4.454
 1082TIP3    H2 3190   1.623   6.134   4.448
 1083TIP3   OH2 3191   4.263   2.846   5.483
 1083TIP3    H1 3192   4.239   2.934   5.512
 1083TIP3    H2 3193   4.347   2.829   5.526
 1084TIP3   OH2 3194   4.246   0.589   3.964
 1084TIP3    H1 3195   4.191   0.656   3.924
 1084TIP3    H2 3196   4.198   0.507   3.949
 1085TIP3   OH2 3197   5.307   5.274   3.517
 1085TIP3    H1 3198   5.276   5.190   3.551
 1085TIP3    H2 3199   5.262   5.283   3.433
 1086TIP3   OH2 3200   0.583   4.311   4.746
 1086TIP3    H1 3201   0.652   4.347   4.690
 1086TIP3    H2 3202   0.503   4.355   4.717
 1087TIP3   OH2 3203   3.667   5.663   1.875
 1087TIP3    H1 3204   3.732   5.652   1.805
 1087TIP3    H2 3205   3.701   5.734   1.929
 1088TIP3   OH2 3206   6.147   3.472   0.318
 1088TIP3    H1 3207   6.133   3.396   0.376
 1088TIP3    H2 3208   6.228   3.452   0.272
 1089TIP3   OH2 3209   3.564   3.714   3.264
 1089TIP3    H1 3210   3.527   3.674   3.342
 1089TIP3    H2 3211   3.592   3.801   3.292
 1090TIP3   OH2 3212   7.503   7.023   1.864
 1090TIP3    H1 3213   7.504   7.081   1.789
 1090TIP3    H2 3214   7.568   6.955   1.844
 1091TIP3   OH2 3215   7.312   7.126   6.655
 1091TIP3    H1 3216   7.398   7.089   6.635
 1091TIP3    H2 3217   7.252   7.053   6.646
 1092TIP3   OH2 3218   6.210   6.653   1.452
 1092TIP3    H1 3219   6.166   6.727   1.410
 1092TIP3    H2 3220   6.299   6.654   1.416
 1093TIP3   OH2 3221   4.500   2.159   1.033
 1093TIP3    H1 3222   4.495   2.221   0.960
 1093TIP3    H2 3223   4.534   2.211   1.106
 1094TIP3   OH2 3224   0.501   7.518   4.873
 1094TIP3    H1 3225   0.518   7.527   4.967
 1094TIP3    H2 3226   0.518   7.425   4.855
 1095TIP3   OH2 3227   0.981   5.977   3.353
 1095TIP3    H1 3228   0.887   5.992   3.365
 1095TIP3    H2 3229   0.997   5.892   3.393
 1096TIP3   OH2 3230   6.015   4.050   6.483
 1096TIP3    H1 3231   6.011   4.037   6.388
 1096TIP3    H2 3232   6.106   4.031   6.506
 1097TIP3   OH2 3233   6.460   4.892   0.093
 1097TIP3    H1 3234   6.461   4.924   0.183
 1097TIP3    H2 3235   6.551   4.894   0.065
 1098TIP3   OH2 3236   2.699   1.415   0.419
 1098TIP3    H1 3237   2.652   1.435   0.338
 1098TIP3    H2 3238   2.707   1.320   0.419
 1099TIP3   OH2 3239   6.205   3.541   3.669
 1099TIP3    H1 3240   6.154   3.599   3.724
 1099TIP3    H2 3241   6.177   3.453   3.694
 1100TIP3   OH2 3242   0.099   0.862   3.246
 1100TIP3    H1 3243   0.181   0.859   3.295
 1100TIP3    H2 3244   0.108   0.938   3.189
 1101TIP3   OH2 3245   4.414   6.861   2.294
 1101TIP3    H1 3246   4.356   6.845   2.219
 1101TIP3    H2 3247   4.390   6.793   2.357
 1102TIP3   OH2 3248   0.323   0.869   0.492
 1102TIP3    H1 3249   0.317   0.964   0.507
 1102TIP3    H2 3250   0.415   0.848   0.510
 1103TIP3   OH2 3251   6.128   7.644   1.961
 1103TIP3    H1 3252   6.070   7.673   2.031
 1103TIP3    H2 3253   6.192   7.587   2.005
 1104TIP3   OH2 3254   2.396   3.958   5.255
 1104TIP3    H1 3255   2.349   3.898   5.313
 1104TIP3    H2 3256   2.467   3.993   5.309
 1105TIP3   OH2 3257   5.871   6.389   6.264
 1105TIP3    H1 3258   5.782   6.373   6.293
 1105TIP3    H2 3259   5.869   6.475   6.222
 1106TIP3   OH2 3260   4.604   3.039   5.875
 1106TIP3    H1 3261   4.573   2.968   5.819
 1106TIP3    H2 3262   4.530   3.098   5.883
 1107TIP3   OH2 3263   6.475   4.977   3.900
 1107TIP3    H1 3264   6.413   4.906   3.919
 1107TIP3    H2 3265   6.546   4.934   3.853
 1108TIP3   OH2 3266   0.253   0.412   4.470
 1108TIP3    H1 3267   0.158   0.411   4.460
 1108TIP3    H2 3268   0.269   0.467   4.547
 1109TIP3   OH2 3269   2.684   6.737   0.041
 1109TIP3    H1 3270   2.705   6.777   0.126
 1109TIP3    H2 3271   2.770   6.712   0.006
 1110TIP3   OH2 3272   4.889   2.274   4.743
 1110TIP3    H1 3273   4.886   2.205   4.809
 1110TIP3    H2 3274   4.863   2.231   4.662
 1111TIP3   OH2 3275   3.788   3.679   2.042
 1111TIP3    H1 3276   3.756   3.590   2.026
 1111TIP3    H2 3277   3.716   3.736   2.014
 1112TIP3   OH2 3278   6.481   1.482   4.163
 1112TIP3    H1 3279   6.541   1.485   4.089
 1112TIP3    H2 3280   6.404   1.435   4.130
 1113TIP3   OH2 3281   6.250   2.845   2.020
 1113TIP3    H1 3282   6.320   2.781   2.024
 1113TIP3    H2 3283   6.193   2.823   2.094
 1114TIP3   OH2 3284   7.855   7.190   2.899
 1114TIP3    H1 3285   7.933   7.137   2.877
 1114TIP3    H2 3286   7.781   7.133   2.877
 1115TIP3   OH2 3287   4.247   1.288   2.712
 1115TIP3    H1 3288   4.204   1.373   2.724
 1115TIP3    H2 3289   4.225   1.264   2.622
 1116TIP3   OH2 3290   1.117   4.883   0.158
 1116TIP3    H1 3291   1.111   4.810   0.097
 1116TIP3    H2 3292   1.203   4.875   0.198
 1117TIP3   OH2 3293   6.260   5.805   6.284
 1117TIP3    H1 3294   6.340   5.793   6.335
 1117TIP3    H2 3295   6.191   5.771   6.340
 1118TIP3   OH2 3296   5.322   7.723   2.880
 1118TIP3    H1 3297   5.414   7.729   2.857
 1118TIP3    H2 3298   5.288   7.812   2.866
 1119TIP3   OH2 3299   5.903   4.329   0.479
 1119TIP3    H1 3300   5.842   4.262   0.510
 1119TIP3    H2 3301   5.979   4.322   0.536
 1120TIP3   OH2 3302   5.882   2.023   5.562
 1120TIP3    H1 3303   5.854   2.109   5.592
 1120TIP3    H2 3304   5.846   2.016   5.473
 1121TIP3   OH2 3305   4.281   3.462   6.108
 1121TIP3    H1 3306   4.325   3.518   6.043
 1121TIP3    H2 3307   4.215   3.519   6.147
 1122TIP3   OH2 3308   1.566   5.506   5.977
 1122TIP3    H1 3309   1.618   5.490   6.056
 1122TIP3    H2 3310   1.614   5.575   5.930
 1123TIP3   OH2 3311   0.608   3.080   0.889
 1123TIP3    H1 3312   0.572   3.117   0.969
 1123TIP3    H2 3313   0.533   3.076   0.829
 1124TIP3   OH2 3314   6.531   5.826   4.822
 1124TIP3    H1 3315   6.515   5.733   4.803
 1124TIP3    H2 3316   6.476   5.873   4.761
 1125TIP3   OH2 3317   2.947   1.713   4.732
 1125TIP3    H1 3318   3.003   1.637   4.748
 1125TIP3    H2 3319   2.858   1.679   4.733
 1126TIP3   OH2 3320   3.370   1.934   5.210
 1126TIP3    H1 3321   3.464   1.936   5.229
 1126TIP3    H2 3322   3.362   1.871   5.138
 1127TIP3   OH2 3323   2.044   5.689   4.106
 1127TIP3    H1 3324   2.134   5.722   4.109
 1127TIP3    H2 3325   2.041   5.623   4.175
 1128TIP3   OH2 3326   0.690   3.944   5.275
 1128TIP3    H1 3327   0.643   3.866   5.304
 1128TIP3    H2 3328   0.777   3.935   5.313
 1129TIP3   OH2 3329   5.805   0.889   4.996
 1129TIP3    H1 3330   5.783   0.902   4.904
 1129TIP3    H2 3331   5.819   0.794   5.004
 1130TIP3   OH2 3332   4.225   5.807   2.885
 1130TIP3    H1 3333   4.197   5.764   2.804
 1130TIP3    H2 3334   4.320   5.797   2.886
 1131TIP3   OH2 3335   3.239   5.411   4.721
 1131TIP3    H1 3336   3.151   5.416   4.685
 1131TIP3    H2 3337   3.228   5.425   4.815
 1132TIP3   OH2 3338   2.370   1.622   2.705
 1132TIP3    H1 3339   2.455   1.580   2.695
 1132TIP3    H2 3340   2.307   1.550   2.703
 1133TIP3   OH2 3341   2.235   7.351   4.508
 1133TIP3    H1 3342   2.329   7.371   4.501
 1133TIP3    H2 3343   2.232   7.260   4.538
 1134TIP3   OH2 3344   3.989   6.417   0.534
 1134TIP3    H1 3345   3.921   6.482   0.546
 1134TIP3    H2 3346   3.946   6.333   0.552
 1135TIP3   OH2 3347   3.997   3.649   1.481
 1135TIP3    H1 3348   3.985   3.741   1.504
 1135TIP3    H2 3349   4.060   3.617   1.546
 1136TIP3   OH2 3350   4.021   4.469   1.222
 1136TIP3    H1 3351   4.066   4.540   1.267
 1136TIP3    H2 3352   4.090   4.408   1.197
 1137TIP3   OH2 3353   6.399   2.856   3.308
 1137TIP3    H1 3354   6.467   2.899   3.257
 1137TIP3    H2 3355   6.398   2.903   3.392
 1138TIP3   OH2 3356   6.830   2.787   1.611
 1138TIP3    H1 3357   6.863   2.750   1.694
 1138TIP3    H2 3358   6.755   2.840   1.637
 1139TIP3   OH2 3359   3.980   4.284   6.781
 1139TIP3    H1 3360   3.921   4.213   6.803
 1139TIP3    H2 3361   3.956   4.309   6.692
 1140TIP3   OH2 3362   7.181   3.115   1.298
 1140TIP3    H1 3363   7.214   3.189   1.247
 1140TIP3    H2 3364   7.225   3.039   1.262
 1141TIP3   OH2 3365   1.650   3.093   4.572
 1141TIP3    H1 3366   1.730   3.073   4.621
 1141TIP3    H2 3367   1.656   3.186   4.552
 1142TIP3   OH2 3368   5.213   5.010   6.799
 1142TIP3    H1 3369   5.242   4.952   6.728
 1142TIP3    H2 3370   5.272   5.085   6.794
 1143TIP3   OH2 3371   0.124   0.354   1.718
 1143TIP3    H1 3372   0.109   0.395   1.803
 1143TIP3    H2 3373   0.177   0.276   1.738
 1144TIP3   OH2 3374   5.201   1.159   3.627
 1144TIP3    H1 3375   5.108   1.145   3.608
 1144TIP3    H2 3376   5.234   1.206   3.550
 1145TIP3   OH2 3377   6.029   3.801   2.034
 1145TIP3    H1 3378   6.125   3.797   2.034
 1145TIP3    H2 3379   6.008   3.885   1.993
 1146TIP3   OH2 3380   0.095   1.811   5.951
 1146TIP3    H1 3381   0.149   1.734   5.971
 1146TIP3    H2 3382   0.122   1.838   5.863
 1147TIP3   OH2 3383   7.448   4.123   0.131
 1147TIP3    H1 3384   7.425   4.048   0.185
 1147TIP3    H2 3385   7.530   4.156   0.167
 1148TIP3   OH2 3386   1.156   4.342   4.540
 1148TIP3    H1 3387   1.140   4.249   4.556
 1148TIP3    H2 3388   1.105   4.362   4.461
 1149TIP3   OH2 3389   1.149   5.053   3.940
 1149TIP3    H1 3390   1.057   5.057   3.915
 1149TIP3    H2 3391   1.185   4.982   3.887
 1150TIP3   OH2 3392   3.506   6.144   2.125
 1150TIP3    H1 3393   3.530   6.182   2.041
 1150TIP3    H2 3394   3.430   6.195   2.154
 1151TIP3   OH2 3395   0.538   5.095   6.240
 1151TIP3    H1 3396   0.586   5.047   6.173
 1151TIP3    H2 3397   0.521   5.031   6.308
 1152TIP3   OH2 3398   5.407   1.923   6.607
 1152TIP3    H1 3399   5.385   1.950   6.518
 1152TIP3    H2 3400   5.323   1.924   6.654
 1153TIP3   OH2 3401   0.790   5.562   5.380
 1153TIP3    H1 3402   0.704   5.587   5.415
 1153TIP3    H2 3403   0.803   5.472   5.409
 1154TIP3   OH2 3404   1.406   2.035   3.446
 1154TIP3    H1 3405   1.469   2.060   3.378
 1154TIP3    H2 3406   1.320   2.048   3.405
 1155TIP3   OH2 3407   7.481   4.962   0.700
 1155TIP3    H1 3408   7.397   4.931   0.666
 1155TIP3    H2 3409   7.507   4.898   0.765
 1156TIP3   OH2 3410   1.209   7.458   6.080
 1156TIP3    H1 3411   1.261   7.534   6.107
 1156TIP3    H2 3412   1.257   7.422   6.005
 1157TIP3   OH2 3413   5.899   5.017   3.553
 1157TIP3    H1 3414   5.994   5.025   3.566
 1157TIP3    H2 3415   5.883   5.065   3.471
 1158TIP3   OH2 3416   3.226   1.059   0.486
 1158TIP3    H1 3417   3.169   1.045   0.411
 1158TIP3    H2 3418   3.290   0.989   0.481
 1159TIP3   OH2 3419   6.829   3.716   1.337
 1159TIP3    H1 3420   6.887   3.700   1.412
 1159TIP3    H2 3421   6.864   3.661   1.267
 1160TIP3   OH2 3422   8.083   0.522   3.341
 1160TIP3    H1 3423   8.154   0.584   3.353
 1160TIP3    H2 3424   8.038   0.551   3.262
 1161TIP3   OH2 3425   0.825   1.286   3.954
 1161TIP3    H1 3426   0.866   1.211   3.997
 1161TIP3    H2 3427   0.803   1.344   4.027
 1162TIP3   OH2 3428   7.202   0.484   4.013
 1162TIP3    H1 3429   7.239   0.572   4.024
 1162TIP3    H2 3430   7.125   0.483   4.070
 1163TIP3   OH2 3431   0.938   7.380   3.167
 1163TIP3    H1 3432   0.846   7.354   3.178
 1163TIP3    H2 3433   0.945   7.463   3.214
 1164TIP3   OH2 3434   8.145   5.175   5.881
 1164TIP3    H1 3435   8.223   5.199   5.831
 1164TIP3    H2 3436   8.101   5.259   5.898
 1165TIP3   OH2 3437   5.872   1.205   5.410
 1165TIP3    H1 3438   5.785   1.240   5.395
 1165TIP3    H2 3439   5.870   1.118   5.370
 1166TIP3   OH2 3440   6.089   5.398   3.513
 1166TIP3    H1 3441   6.061   5.309   3.538
 1166TIP3    H2 3442   6.183   5.398   3.528
 1167TIP3   OH2 3443   5.218   0.868   5.793
 1167TIP3    H1 3444   5.279   0.800   5.823
 1167TIP3    H2 3445   5.132   0.836   5.821
 1168TIP3   OH2 3446   4.472   2.700   6.761
 1168TIP3    H1 3447   4.411   2.652   6.704
 1168TIP3    H2 3448   4.548   2.716   6.705
 1169TIP3   OH2 3449   5.324   7.079   0.861
 1169TIP3    H1 3450   5.307   7.166   0.898
 1169TIP3    H2 3451   5.263   7.072   0.788
 1170TIP3   OH2 3452   8.178   0.687   5.805
 1170TIP3    H1 3453   8.164   0.707   5.712
 1170TIP3    H2 3454   8.199   0.594   5.807
 1171TIP3   OH2 3455   0.936   4.791   3.081
 1171TIP3    H1 3456   0.938   4.844   3.160
 1171TIP3    H2 3457   0.881   4.841   3.020
 1172TIP3   OH2 3458   6.230   3.773   1.120
 1172TIP3    H1 3459   6.176   3.766   1.199
 1172TIP3    H2 3460   6.318   3.749   1.148
 1173TIP3   OH2 3461   1.870   7.300   5.198
 1173TIP3    H1 3462   1.885   7.394   5.208
 1173TIP3    H2 3463   1.790   7.283   5.247
 1174TIP3   OH2 3464   0.485   1.577   2.289
 1174TIP3    H1 3465   0.490   1.481   2.289
 1174TIP3    H2 3466   0.474   1.601   2.197
 1175TIP3   OH2 3467   5.748   3.254   5.395
 1175TIP3    H1 3468   5.712   3.195   5.328
 1175TIP3    H2 3469   5.700   3.233   5.474
 1176TIP3   OH2 3470   4.947   5.799   0.338
 1176TIP3    H1 3471   4.927   5.871   0.279
 1176TIP3    H2 3472   5.042   5.790   0.334
 1177TIP3   OH2 3473   6.209   7.298   4.900
 1177TIP3    H1 3474   6.242   7.319   4.987
 1177TIP3    H2 3475   6.227   7.205   4.889
 1178TIP3   OH2 3476   4.335   1.618   4.532
 1178TIP3    H1 3477   4.410   1.658   4.577
 1178TIP3    H2 3478   4.268   1.686   4.532
 1179TIP3   OH2 3479   7.704   4.202   5.807
 1179TIP3    H1 3480   7.747   4.271   5.858
 1179TIP3    H2 3481   7.776   4.157   5.763
 1180TIP3   OH2 3482   7.510   6.999   0.876
 1180TIP3    H1 3483   7.580   6.950   0.918
 1180TIP3    H2 3484   7.431   6.974   0.924
 1181TIP3   OH2 3485   7.551   6.319   1.845
 1181TIP3    H1 3486   7.502   6.400   1.832
 1181TIP3    H2 3487   7.643   6.346   1.844
 1182TIP3   OH2 3488   1.744   4.435   2.351
 1182TIP3    H1 3489   1.822   4.426   2.295
 1182TIP3    H2 3490   1.683   4.369   2.318
 1183TIP3   OH2 3491   1.242   0.544   6.488
 1183TIP3    H1 3492   1.181   0.612   6.457
 1183TIP3    H2 3493   1.281   0.581   6.567
 1184TIP3   OH2 3494   5.357   4.075   0.096
 1184TIP3    H1 3495   5.319   3.989   0.114
 1184TIP3    H2 3496   5.448   4.056   0.075
 1185TIP3   OH2 3497   7.926   3.808   5.594
 1185TIP3    H1 3498   7.851   3.857   5.562
 1185TIP3    H2 3499   7.892   3.756   5.667
 1186TIP3   OH2 3500   1.681   1.705   0.245
 1186TIP3    H1 3501   1.749   1.768   0.221
 1186TIP3    H2 3502   1.719   1.619   0.222
 1187TIP3   OH2 3503   4.530   3.067   0.654
 1187TIP3    H1 3504   4.474   2.993   0.633
 1187TIP3    H2 3505   4.515   3.082   0.748
 1188TIP3   OH2 3506   1.434   2.735   2.314
 1188TIP3    H1 3507   1.510   2.703   2.264
 1188TIP3    H2 3508   1.444   2.696   2.400
 1189TIP3   OH2 3509   4.341   4.414   0.001
 1189TIP3    H1 3510   4.382   4.341   0.047
 1189TIP3    H2 3511   4.383   4.492   0.036
 1190TIP3   OH2 3512   0.485   4.214   1.792
 1190TIP3    H1 3513   0.423   4.244   1.725
 1190TIP3    H2 3514   0.565   4.263   1.774
 1191TIP3   OH2 3515   3.634   6.731   1.163
 1191TIP3    H1 3516   3.638   6.787   1.241
 1191TIP3    H2 3517   3.552   6.683   1.172
 1192TIP3   OH2 3518   3.942   2.760   5.985
 1192TIP3    H1 3519   3.925   2.854   5.990
 1192TIP3    H2 3520   3.885   2.730   5.914
 1193TIP3   OH2 3521   4.794   2.120   3.810
 1193TIP3    H1 3522   4.721   2.166   3.851
 1193TIP3    H2 3523   4.844   2.188   3.765
 1194TIP3   OH2 3524   5.387   1.784   0.144
 1194TIP3    H1 3525   5.434   1.849   0.091
 1194TIP3    H2 3526   5.415   1.700   0.109
 1195TIP3   OH2 3527   2.791   4.354   4.023
 1195TIP3    H1 3528   2.722   4.397   3.973
 1195TIP3    H2 3529   2.835   4.297   3.960
 1196TIP3   OH2 3530   7.665   7.645   1.629
 1196TIP3    H1 3531   7.720   7.655   1.551
 1196TIP3    H2 3532   7.692   7.716   1.687
 1197TIP3   OH2 3533   5.854   4.937   0.839
 1197TIP3    H1 3534   5.769   4.978   0.852
 1197TIP3    H2 3535   5.841   4.845   0.863
 1198TIP3   OH2 3536   0.105   6.265   6.680
 1198TIP3    H1 3537   0.020   6.289   6.645
 1198TIP3    H2 3538   0.168   6.296   6.614
 1199TIP3   OH2 3539   3.503   1.523   3.085
 1199TIP3    H1 3540   3.571   1.497   3.147
 1199TIP3    H2 3541   3.437   1.454   3.093
 1200TIP3   OH2 3542   1.368   2.159   1.957
 1200TIP3    H1 3543   1.344   2.242   1.915
 1200TIP3    H2 3544   1.446   2.130   1.909
 1201TIP3   OH2 3545   5.242   0.885   4.628
 1201TIP3    H1 3546   5.249   0.975   4.660
 1201TIP3    H2 3547   5.193   0.839   4.696
 1202TIP3   OH2 3548   1.781   6.066   6.146
 1202TIP3    H1 3549   1.734   6.043   6.066
 1202TIP3    H2 3550   1.733   6.022   6.216
 1203TIP3   OH2 3551   2.350   0.598   1.979
 1203TIP3    H1 3552   2.386   0.685   1.993
 1203TIP3    H2 3553   2.329   0.567   2.067
 1204TIP3   OH2 3554   5.009   4.709   6.452
 1204TIP3    H1 3555   4.995   4.646   6.523
 1204TIP3    H2 3556   5.047   4.657   6.382
 1205TIP3   OH2 3557   3.390   6.617   5.470
 1205TIP3    H1 3558   3.337   6.621   5.390
 1205TIP3    H2 3559   3.443   6.697   5.468
 1206TIP3   OH2 3560   4.433   1.063   4.357
 1206TIP3    H1 3561   4.362   1.074   4.419
 1206TIP3    H2 3562   4.458   1.153   4.334
 1207TIP3   OH2 3563   0.048   1.341   3.970
 1207TIP3    H1 3564  -0.041   1.375   3.965
 1207TIP3    H2 3565   0.037   1.246   3.975
 1208TIP3   OH2 3566   6.599   5.044   1.261
 1208TIP3    H1 3567   6.578   4.961   1.304
 1208TIP3    H2 3568   6.518   5.069   1.217
 1209TIP3   OH2 3569   1.815   4.564   3.914
 1209TIP3    H1 3570   1.849   4.477   3.938
 1209TIP3    H2 3571   1.745   4.580   3.977
 1210TIP3   OH2 3572   3.452   5.334   3.516
 1210TIP3    H1 3573   3.420   5.423   3.533
 1210TIP3    H2 3574   3.524   5.322   3.578
 1211TIP3   OH2 3575   3.383   1.720   6.648
 1211TIP3    H1 3576   3.446   1.680   6.589
 1211TIP3    H2 3577   3.397   1.814   6.637
 1212TIP3   OH2 3578   3.287   5.134   1.797
 1212TIP3    H1 3579   3.239   5.215   1.784
 1212TIP3    H2 3580   3.303   5.100   1.709
 1213TIP3   OH2 3581   0.248   5.687   6.414
 1213TIP3    H1 3582   0.318   5.633   6.376
 1213TIP3    H2 3583   0.268   5.776   6.385
 1214TIP3   OH2 3584   2.250   1.037   3.760
 1214TIP3    H1 3585   2.338   1.017   3.792
 1214TIP3    H2 3586   2.191   0.999   3.824
 1215TIP3   OH2 3587   0.368   1.817   5.742
 1215TIP3    H1 3588   0.362   1.747   5.807
 1215TIP3    H2 3589   0.295   1.875   5.761
 1216TIP3   OH2 3590   2.627   4.021   3.882
 1216TIP3    H1 3591   2.642   3.989   3.971
 1216TIP3    H2 3592   2.715   4.036   3.847
 1217TIP3   OH2 3593   2.544   4.873   1.249
 1217TIP3    H1 3594   2.635   4.893   1.269
 1217TIP3    H2 3595   2.493   4.918   1.316
 1218TIP3   OH2 3596   5.678   0.220   3.142
 1218TIP3    H1 3597   5.722   0.267   3.213
 1218TIP3    H2 3598   5.696   0.128   3.159
 1219TIP3   OH2 3599   1.530   1.693   0.909
 1219TIP3    H1 3600   1.447   1.691   0.957
 1219TIP3    H2 3601   1.596   1.711   0.976
 1220TIP3   OH2 3602   5.775   5.811   2.074
 1220TIP3    H1 3603   5.730   5.886   2.035
 1220TIP3    H2 3604   5.868   5.835   2.073
 1221TIP3   OH2 3605   0.469   7.363   0.743
 1221TIP3    H1 3606   0.477   7.448   0.787
 1221TIP3    H2 3607   0.474   7.384   0.650
 1222TIP3   OH2 3608   4.946  -0.041   3.139
 1222TIP3    H1 3609   4.903  -0.003   3.215
 1222TIP3    H2 3610   4.875  -0.050   3.074
 1223TIP3   OH2 3611   6.854   0.795   2.396
 1223TIP3    H1 3612   6.924   0.859   2.384
 1223TIP3    H2 3613   6.852   0.745   2.315
 1224TIP3   OH2 3614   5.802   7.578   4.685
 1224TIP3    H1 3615   5.732   7.627   4.729
 1224TIP3    H2 3616   5.883   7.618   4.718
 1225TIP3   OH2 3617   3.838   2.929   1.534
 1225TIP3    H1 3618   3.911   2.868   1.542
 1225TIP3    H2 3619   3.788   2.918   1.615
 1226TIP3   OH2 3620   3.779   5.733   4.259
 1226TIP3    H1 3621   3.806   5.789   4.187
 1226TIP3    H2 3622   3.827   5.766   4.335
 1227TIP3   OH2 3623   2.025   4.868   0.125
 1227TIP3    H1 3624   2.074   4.786   0.118
 1227TIP3    H2 3625   2.087   4.935   0.095
 1228TIP3   OH2 3626   6.040   1.453   5.336
 1228TIP3    H1 3627   6.092   1.476   5.413
 1228TIP3    H2 3628   6.003   1.367   5.356
 1229TIP3   OH2 3629   7.010   3.146   4.769
 1229TIP3    H1 3630   6.944   3.204   4.807
 1229TIP3    H2 3631   7.092   3.194   4.778
 1230TIP3   OH2 3632   2.540   1.766   6.803
 1230TIP3    H1 3633   2.596   1.803   6.735
 1230TIP3    H2 3634   2.498   1.843   6.843
 1231TIP3   OH2 3635   6.275   3.400   1.600
 1231TIP3    H1 3636   6.346   3.456   1.569
 1231TIP3    H2 3637   6.310   3.311   1.592
 1232TIP3   OH2 3638   2.630   4.227   2.138
 1232TIP3    H1 3639   2.700   4.283   2.106
 1232TIP3    H2 3640   2.549   4.274   2.117
 1233TIP3   OH2 3641   8.217   3.539   1.308
 1233TIP3    H1 3642   8.196   3.573   1.222
 1233TIP3    H2 3643   8.268   3.609   1.350
 1234TIP3   OH2 3644   3.134   5.356   1.590
 1234TIP3    H1 3645   3.069   5.298   1.630
 1234TIP3    H2 3646   3.180   5.299   1.528
 1235TIP3   OH2 3647   5.958   6.831   1.025
 1235TIP3    H1 3648   6.040   6.788   1.002
 1235TIP3    H2 3649   5.985   6.918   1.057
 1236TIP3   OH2 3650   5.867   3.492   5.447
 1236TIP3    H1 3651   5.804   3.421   5.437
 1236TIP3    H2 3652   5.932   3.476   5.379
 1237TIP3   OH2 3653   1.914   2.740   5.623
 1237TIP3    H1 3654   1.855   2.801   5.669
 1237TIP3    H2 3655   1.896   2.655   5.663
 1238TIP3   OH2 3656   1.616   6.373   1.462
 1238TIP3    H1 3657   1.610   6.282   1.491
 1238TIP3    H2 3658   1.694   6.408   1.505
 1239TIP3   OH2 3659   1.543   3.633   4.951
 1239TIP3    H1 3660   1.604   3.586   5.007
 1239TIP3    H2 3661   1.559   3.725   4.970
 1240TIP3   OH2 3662   0.704   4.659   4.137
 1240TIP3    H1 3663   0.756   4.731   4.099
 1240TIP3    H2 3664   0.680   4.605   4.062
 1241TIP3   OH2 3665   5.290   1.640   6.465
 1241TIP3    H1 3666   5.210   1.686   6.440
 1241TIP3    H2 3667   5.288   1.637   6.560
 1242TIP3   OH2 3668   1.389   1.524   6.415
 1242TIP3    H1 3669   1.303   1.485   6.436
 1242TIP3    H2 3670   1.448   1.485   6.480
 1243TIP3   OH2 3671   4.539   0.008   3.161
 1243TIP3    H1 3672   4.565   0.095   3.192
 1243TIP3    H2 3673   4.506   0.023   3.073
 1244TIP3   OH2 3674   2.136   1.561   3.280
 1244TIP3    H1 3675   2.053   1.523   3.310
 1244TIP3    H2 3676   2.202   1.496   3.303
 1245TIP3   OH2 3677   4.716   4.974   5.703
 1245TIP3    H1 3678   4.796   5.007   5.663
 1245TIP3    H2 3679   4.681   5.048   5.753
 1246TIP3   OH2 3680   6.142   0.065   1.592
 1246TIP3    H1 3681   6.083  -0.001   1.630
 1246TIP3    H2 3682   6.225   0.019   1.582
 1247TIP3   OH2 3683   0.450   3.617   2.623
 1247TIP3    H1 3684   0.390   3.690   2.610
 1247TIP3    H2 3685   0.402   3.540   2.592
 1248TIP3   OH2 3686   0.117   7.613   5.059
 1248TIP3    H1 3687   0.105   7.537   5.002
 1248TIP3    H2 3688   0.163   7.677   5.005
 1249TIP3   OH2 3689   3.148   7.805   1.710
 1249TIP3    H1 3690   3.069   7.850   1.740
 1249TIP3    H2 3691   3.139   7.716   1.745
 1250TIP3   OH2 3692   1.109   0.269   5.249
 1250TIP3    H1 3693   1.071   0.189   5.284
 1250TIP3    H2 3694   1.149   0.312   5.324
 1251TIP3   OH2 3695   1.103   2.737   1.715
 1251TIP3    H1 3696   1.036   2.698   1.659
 1251TIP3    H2 3697   1.184   2.693   1.690
 1252TIP3   OH2 3698   2.296   3.357   0.802
 1252TIP3    H1 3699   2.250   3.273   0.794
 1252TIP3    H2 3700   2.372   3.337   0.856
 1253TIP3   OH2 3701   7.845   5.111   6.244
 1253TIP3    H1 3702   7.939   5.118   6.230
 1253TIP3    H2 3703   7.813   5.059   6.170
 1254TIP3   OH2 3704   7.858   5.248   2.102
 1254TIP3    H1 3705   7.871   5.163   2.144
 1254TIP3    H2 3706   7.941   5.294   2.112
 1255TIP3   OH2 3707   2.315   0.899   0.697
 1255TIP3    H1 3708   2.361   0.819   0.720
 1255TIP3    H2 3709   2.378   0.949   0.645
 1256TIP3   OH2 3710   1.880   7.233   4.932
 1256TIP3    H1 3711   1.854   7.310   4.882
 1256TIP3    H2 3712   1.871   7.259   5.023
 1257TIP3   OH2 3713   7.284   3.458   0.543
 1257TIP3    H1 3714   7.292   3.370   0.505
 1257TIP3    H2 3715   7.221   3.503   0.487
 1258TIP3   OH2 3716   0.916   3.199   1.820
 1258TIP3    H1 3717   0.910   3.274   1.761
 1258TIP3    H2 3718   0.943   3.126   1.763
 1259TIP3   OH2 3719   4.013   7.065   1.234
 1259TIP3    H1 3720   4.003   6.977   1.270
 1259TIP3    H2 3721   4.051   7.116   1.306
 1260TIP3   OH2 3722   1.829   5.512   2.227
 1260TIP3    H1 3723   1.746   5.472   2.201
 1260TIP3    H2 3724   1.829   5.598   2.185
 1261TIP3   OH2 3725   7.038   3.050   6.396
 1261TIP3    H1 3726   7.050   2.969   6.347
 1261TIP3    H2 3727   6.944   3.052   6.416
 1262TIP3   OH2 3728   1.824   7.579   5.325
 1262TIP3    H1 3729   1.778   7.625   5.395
 1262TIP3    H2 3730   1.911   7.563   5.360
 1263TIP3   OH2 3731   3.459   0.416   2.600
 1263TIP3    H1 3732   3.492   0.327   2.619
 1263TIP3    H2 3733   3.391   0.403   2.535
 1264TIP3   OH2 3734   1.763   5.892   4.482
 1264TIP3    H1 3735   1.736   5.814   4.530
 1264TIP3    H2 3736   1.682   5.930   4.450
 1265TIP3   OH2 3737   6.078   2.763   2.215
 1265TIP3    H1 3738   6.027   2.795   2.290
 1265TIP3    H2 3739   6.054   2.671   2.208
 1266TIP3   OH2 3740   7.421   0.147   1.341
 1266TIP3    H1 3741   7.509   0.111   1.352
 1266TIP3    H2 3742   7.386   0.152   1.430
 1267TIP3   OH2 3743   8.139   4.142   0.896
 1267TIP3    H1 3744   8.229   4.129   0.925
 1267TIP3    H2 3745   8.089   4.158   0.976
 1268TIP3   OH2 3746   5.441   6.457   2.370
 1268TIP3    H1 3747   5.451   6.546   2.404
 1268TIP3    H2 3748   5.348   6.448   2.353
 1269TIP3   OH2 3749   1.815   6.038   4.180
 1269TIP3    H1 3750   1.806   5.949   4.215
 1269TIP3    H2 3751   1.906   6.044   4.154
 1270TIP3   OH2 3752   2.076   2.689   3.312
 1270TIP3    H1 3753   2.103   2.633   3.385
 1270TIP3    H2 3754   2.112   2.646   3.234
 1271TIP3   OH2 3755   1.134   5.646   2.143
 1271TIP3    H1 3756   1.166   5.698   2.217
 1271TIP3    H2 3757   1.177   5.561   2.154
 1272TIP3   OH2 3758   2.329   6.690   0.944
 1272TIP3    H1 3759   2.315   6.659   0.855
 1272TIP3    H2 3760   2.243   6.723   0.972
 1273TIP3   OH2 3761   1.571   4.619   1.676
 1273TIP3    H1 3762   1.537   4.644   1.590
 1273TIP3    H2 3763   1.659   4.585   1.657
 1274TIP3   OH2 3764   6.282   2.847   4.700
 1274TIP3    H1 3765   6.335   2.768   4.691
 1274TIP3    H2 3766   6.219   2.842   4.627
 1275TIP3   OH2 3767   7.075   7.707   5.655
 1275TIP3    H1 3768   6.996   7.689   5.706
 1275TIP3    H2 3769   7.132   7.755   5.715
 1276TIP3   OH2 3770   2.924   1.315   4.165
 1276TIP3    H1 3771   3.008   1.354   4.139
 1276TIP3    H2 3772   2.870   1.389   4.193
 1277TIP3   OH2 3773   8.142   3.490   4.414
 1277TIP3    H1 3774   8.227   3.510   4.375
 1277TIP3    H2 3775   8.116   3.572   4.456
 1278TIP3   OH2 3776   4.863   4.514   1.049
 1278TIP3    H1 3777   4.927   4.585   1.060
 1278TIP3    H2 3778   4.778   4.557   1.056
 1279TIP3   OH2 3779   0.515   2.538   2.174
 1279TIP3    H1 3780   0.543   2.495   2.094
 1279TIP3    H2 3781   0.479   2.622   2.145
 1280TIP3   OH2 3782   5.817   6.619   1.159
 1280TIP3    H1 3783   5.859   6.690   1.111
 1280TIP3    H2 3784   5.883   6.588   1.221
 1281TIP3   OH2 3785   4.690   0.359   4.434
 1281TIP3    H1 3786   4.625   0.302   4.392
 1281TIP3    H2 3787   4.721   0.416   4.363
 1282TIP3   OH2 3788   2.820   1.006   5.661
 1282TIP3    H1 3789   2.853   1.053   5.738
 1282TIP3    H2 3790   2.736   0.969   5.690
 1283TIP3   OH2 3791   1.689   4.889   2.141
 1283TIP3    H1 3792   1.728   4.974   2.159
 1283TIP3    H2 3793   1.733   4.858   2.062
 1284TIP3   OH2 3794   3.681   3.529   3.758
 1284TIP3    H1 3795   3.723   3.522   3.672
 1284TIP3    H2 3796   3.589   3.545   3.739
 1285TIP3   OH2 3797   5.204   2.818   6.601
 1285TIP3    H1 3798   5.184   2.857   6.516
 1285TIP3    H2 3799   5.296   2.791   6.593
 1286TIP3   OH2 3800   7.777   7.579   0.659
 1286TIP3    H1 3801   7.857   7.532   0.634
 1286TIP3    H2 3802   7.803   7.629   0.737
 1287TIP3   OH2 3803   2.180   2.767   4.759
 1287TIP3    H1 3804   2.268   2.753   4.726
 1287TIP3    H2 3805   2.165   2.861   4.749
 1288TIP3   OH2 3806   7.759   1.116   5.417
 1288TIP3    H1 3807   7.741   1.087   5.327
 1288TIP3    H2 3808   7.831   1.061   5.446
 1289TIP3   OH2 3809   6.930   6.033   3.379
 1289TIP3    H1 3810   6.914   5.938   3.374
 1289TIP3    H2 3811   6.844   6.072   3.363
 1290TIP3   OH2 3812   7.888   1.354   5.292
 1290TIP3    H1 3813   7.831   1.431   5.300
 1290TIP3    H2 3814   7.840   1.284   5.335
 1291TIP3   OH2 3815   6.068   4.742   6.636
 1291TIP3    H1 3816   6.019   4.667   6.670
 1291TIP3    H2 3817   6.131   4.703   6.575
 1292TIP3   OH2 3818   7.356   1.578   1.956
 1292TIP3    H1 3819   7.360   1.670   1.984
 1292TIP3    H2 3820   7.439   1.540   1.985
 1293TIP3   OH2 3821   3.457   3.149   6.562
 1293TIP3    H1 3822   3.412   3.233   6.561
 1293TIP3    H2 3823   3.410   3.096   6.498
 1294TIP3   OH2 3824   7.461   4.418   4.054
 1294TIP3    H1 3825   7.525   4.380   3.995
 1294TIP3    H2 3826   7.498   4.405   4.142
 1295TIP3   OH2 3827   4.610   4.738   2.828
 1295TIP3    H1 3828   4.647   4.705   2.746
 1295TIP3    H2 3829   4.558   4.665   2.862
 1296TIP3   OH2 3830   2.174   7.300   3.933
 1296TIP3    H1 3831   2.106   7.274   3.871
 1296TIP3    H2 3832   2.177   7.396   3.926
 1297TIP3   OH2 3833   2.764   5.659   4.667
 1297TIP3    H1 3834   2.744   5.673   4.575
 1297TIP3    H2 3835   2.754   5.744   4.708
 1298TIP3   OH2 3836   4.135   4.395   6.485
 1298TIP3    H1 3837   4.148   4.410   6.391
 1298TIP3    H2 3838   4.177   4.311   6.502
 1299TIP3   OH2 3839   6.040   3.258   4.756
 1299TIP3    H1 3840   6.107   3.280   4.692
 1299TIP3    H2 3841   6.018   3.167   4.737
 1300TIP3   OH2 3842   4.862   5.158   3.252
 1300TIP3    H1 3843   4.788   5.128   3.304
 1300TIP3    H2 3844   4.823   5.207   3.180
 1301TIP3   OH2 3845   8.259   0.239   3.685
 1301TIP3    H1 3846   8.219   0.159   3.653
 1301TIP3    H2 3847   8.350   0.215   3.705
 1302TIP3   OH2 3848   4.904   3.815   6.050
 1302TIP3    H1 3849   4.994   3.790   6.028
 1302TIP3    H2 3850   4.851   3.743   6.014
 1303TIP3   OH2 3851   8.281   1.972   5.543
 1303TIP3    H1 3852   8.339   1.998   5.471
 1303TIP3    H2 3853   8.194   1.973   5.505
 1304TIP3   OH2 3854   2.226   2.272   6.077
 1304TIP3    H1 3855   2.178   2.352   6.054
 1304TIP3    H2 3856   2.285   2.258   6.003
 1305TIP3   OH2 3857   2.740   5.892   5.379
 1305TIP3    H1 3858   2.759   5.808   5.419
 1305TIP3    H2 3859   2.806   5.952   5.414
 1306TIP3   OH2 3860   1.968   5.543   2.773
 1306TIP3    H1 3861   1.978   5.554   2.679
 1306TIP3    H2 3862   1.899   5.478   2.783
 1307TIP3   OH2 3863   2.546   0.831   6.489
 1307TIP3    H1 3864   2.590   0.773   6.427
 1307TIP3    H2 3865   2.616   0.865   6.544
 1308TIP3   OH2 3866   7.777   0.452   3.323
 1308TIP3    H1 3867   7.685   0.424   3.327
 1308TIP3    H2 3868   7.788   0.480   3.232
 1309TIP3   OH2 3869   4.157   2.971   1.319
 1309TIP3    H1 3870   4.111   3.047   1.356
 1309TIP3    H2 3871   4.127   2.897   1.373
 1310TIP3   OH2 3872   1.954   5.294   4.215
 1310TIP3    H1 3873   1.943   5.221   4.154
 1310TIP3    H2 3874   2.021   5.349   4.175
 1311TIP3   OH2 3875   3.396   3.626   3.808
 1311TIP3    H1 3876   3.397   3.567   3.884
 1311TIP3    H2 3877   3.305   3.654   3.801
 1312TIP3   OH2 3878   3.735   5.248   5.558
 1312TIP3    H1 3879   3.793   5.185   5.516
 1312TIP3    H2 3880   3.724   5.318   5.494
 1313TIP3   OH2 3881   3.676   6.527   3.988
 1313TIP3    H1 3882   3.616   6.550   4.059
 1313TIP3    H2 3883   3.625   6.471   3.930
 1314TIP3   OH2 3884   6.161   3.081   4.379
 1314TIP3    H1 3885   6.253   3.061   4.395
 1314TIP3    H2 3886   6.143   3.160   4.430
 1315TIP3   OH2 3887   3.210   0.349   6.565
 1315TIP3    H1 3888   3.198   0.297   6.645
 1315TIP3    H2 3889   3.303   0.369   6.563
 1316TIP3   OH2 3890   5.598   5.443   4.927
 1316TIP3    H1 3891   5.555   5.394   4.997
 1316TIP3    H2 3892   5.541   5.519   4.913
 1317TIP3   OH2 3893   0.315   1.747   1.727
 1317TIP3    H1 3894   0.327   1.811   1.657
 1317TIP3    H2 3895   0.404   1.721   1.752
 1318TIP3   OH2 3896   5.895   4.461   4.272
 1318TIP3    H1 3897   5.838   4.385   4.262
 1318TIP3    H2 3898   5.984   4.425   4.271
 1319TIP3   OH2 3899   3.045   4.253   3.196
 1319TIP3    H1 3900   3.016   4.197   3.268
 1319TIP3    H2 3901   3.018   4.341   3.220
 1320TIP3   OH2 3902   6.614   2.376   4.627
 1320TIP3    H1 3903   6.593   2.388   4.535
 1320TIP3    H2 3904   6.706   2.402   4.635
 1321TIP3   OH2 3905   2.902   1.797   3.623
 1321TIP3    H1 3906   2.878   1.706   3.609
 1321TIP3    H2 3907   2.941   1.798   3.710
 1322TIP3   OH2 3908   5.686   1.419   6.693
 1322TIP3    H1 3909   5.594   1.398   6.677
 1322TIP3    H2 3910   5.713   1.472   6.618
 1323TIP3   OH2 3911   7.397   0.050   1.088
 1323TIP3    H1 3912   7.463  -0.013   1.117
 1323TIP3    H2 3913   7.423   0.133   1.128
 1324TIP3   OH2 3914   4.127   1.540   2.750
 1324TIP3    H1 3915   4.158   1.546   2.660
 1324TIP3    H2 3916   4.102   1.630   2.772
 1325TIP3   OH2 3917   3.957   6.816   5.107
 1325TIP3    H1 3918   3.922   6.732   5.079
 1325TIP3    H2 3919   4.051   6.812   5.085
 1326TIP3   OH2 3920   5.136   6.285   2.828
 1326TIP3    H1 3921   5.172   6.291   2.739
 1326TIP3    H2 3922   5.183   6.352   2.877
 1327TIP3   OH2 3923   5.273   5.936   0.723
 1327TIP3    H1 3924   5.297   5.987   0.800
 1327TIP3    H2 3925   5.228   5.999   0.666
 1328TIP3   OH2 3926   0.256   0.334   1.160
 1328TIP3    H1 3927   0.215   0.249   1.142
 1328TIP3    H2 3928   0.185   0.398   1.148
 1329TIP3   OH2 3929   5.859   5.068   5.212
 1329TIP3    H1 3930   5.906   4.985   5.201
 1329TIP3    H2 3931   5.824   5.064   5.301
 1330TIP3   OH2 3932   5.596   4.291   0.122
 1330TIP3    H1 3933   5.603   4.203   0.087
 1330TIP3    H2 3934   5.621   4.348   0.049
 1331TIP3   OH2 3935   3.063   2.928   1.231
 1331TIP3    H1 3936   3.153   2.906   1.255
 1331TIP3    H2 3937   3.071   3.005   1.173
 1332TIP3   OH2 3938   3.204   7.262   3.991
 1332TIP3    H1 3939   3.194   7.213   3.909
 1332TIP3    H2 3940   3.136   7.228   4.048
 1333TIP3   OH2 3941   3.926   2.508   0.356
 1333TIP3    H1 3942   3.926   2.493   0.450
 1333TIP3    H2 3943   4.013   2.480   0.327
 1334TIP3   OH2 3944   3.142   4.723   5.343
 1334TIP3    H1 3945   3.141   4.756   5.433
 1334TIP3    H2 3946   3.235   4.725   5.318
 1335TIP3   OH2 3947   1.307   3.359   2.258
 1335TIP3    H1 3948   1.246   3.290   2.233
 1335TIP3    H2 3949   1.338   3.395   2.175
 1336TIP3   OH2 3950   6.530   3.470   3.308
 1336TIP3    H1 3951   6.552   3.549   3.260
 1336TIP3    H2 3952   6.460   3.430   3.256
 1337TIP3   OH2 3953   2.859   7.403   3.998
 1337TIP3    H1 3954   2.909   7.323   4.014
 1337TIP3    H2 3955   2.769   7.372   3.987
 1338TIP3   OH2 3956   7.600   7.598   5.341
 1338TIP3    H1 3957   7.557   7.526   5.295
 1338TIP3    H2 3958   7.684   7.562   5.369
 1339TIP3   OH2 3959   3.665   1.696   0.031
 1339TIP3    H1 3960   3.693   1.706   0.122
 1339TIP3    H2 3961   3.617   1.613   0.030
 1340TIP3   OH2 3962   3.419   4.018   0.965
 1340TIP3    H1 3963   3.382   4.060   1.043
 1340TIP3    H2 3964   3.481   4.082   0.930
 1341TIP3   OH2 3965   5.710   6.418   3.793
 1341TIP3    H1 3966   5.698   6.466   3.711
 1341TIP3    H2 3967   5.805   6.417   3.806
 1342TIP3   OH2 3968   3.244   7.621   2.743
 1342TIP3    H1 3969   3.152   7.637   2.764
 1342TIP3    H2 3970   3.293   7.667   2.812
 1343TIP3   OH2 3971   0.590   7.763   6.748
 1343TIP3    H1 3972   0.592   7.672   6.779
 1343TIP3    H2 3973   0.510   7.768   6.695
 1344TIP3   OH2 3974   5.048   0.554   3.498
 1344TIP3    H1 3975   5.020   0.496   3.428
 1344TIP3    H2 3976   5.134   0.523   3.524
 1345TIP3   OH2 3977   5.887   4.214   0.996
 1345TIP3    H1 3978   5.924   4.152   1.058
 1345TIP3    H2 3979   5.890   4.298   1.041
 1346TIP3   OH2 3980   5.567   0.958   5.120
 1346TIP3    H1 3981   5.526   1.043   5.133
 1346TIP3    H2 3982   5.630   0.973   5.049
 1347TIP3   OH2 3983   5.062   2.860   2.094
 1347TIP3    H1 3984   5.036   2.820   2.012
 1347TIP3    H2 3985   4.983   2.905   2.126
 1348TIP3   OH2 3986   8.059   3.790   2.896
 1348TIP3    H1 3987   8.029   3.875   2.928
 1348TIP3    H2 3988   7.980   3.748   2.862
 1349TIP3   OH2 3989   2.633   7.002   3.311
 1349TIP3    H1 3990   2.649   7.029   3.220
 1349TIP3    H2 3991   2.590   7.077   3.351
 1350TIP3   OH2 3992   4.037   2.966   4.970
 1350TIP3    H1 3993   4.109   2.931   5.023
 1350TIP3    H2 3994   3.995   3.031   5.027
 1351TIP3   OH2 3995   2.026   0.311   3.712
 1351TIP3    H1 3996   2.014   0.219   3.691
 1351TIP3    H2 3997   1.938   0.342   3.734
 1352TIP3   OH2 3998   0.853   6.659   0.509
 1352TIP3    H1 3999   0.825   6.747   0.484
 1352TIP3    H2 4000   0.772   6.613   0.529
 1353TIP3   OH2 4001   1.257   3.013   5.806
 1353TIP3    H1 4002   1.290   3.059   5.884
 1353TIP3    H2 4003   1.306   3.050   5.733
 1354TIP3   OH2 4004   2.535   3.626   2.267
 1354TIP3    H1 4005   2.618   3.579   2.261
 1354TIP3    H2 4006   2.518   3.656   2.177
 1355TIP3   OH2 4007   1.470   1.450   1.506
 1355TIP3    H1 4008   1.483   1.545   1.515
 1355TIP3    H2 4009   1.557   1.417   1.484
 1356TIP3   OH2 4010   5.773   4.681   1.336
 1356TIP3    H1 4011   5.822   4.752   1.294
 1356TIP3    H2 4012   5.757   4.712   1.424
 1357TIP3   OH2 4013   5.235   7.568   1.676
 1357TIP3    H1 4014   5.221   7.561   1.581
 1357TIP3    H2 4015   5.181   7.498   1.713
 1358TIP3   OH2 4016   2.819   0.257   0.077
 1358TIP3    H1 4017   2.898   0.255   0.023
 1358TIP3    H2 4018   2.778   0.341   0.056
 1359TIP3   OH2 4019   4.681   0.275   2.704
 1359TIP3    H1 4020   4.644   0.356   2.740
 1359TIP3    H2 4021   4.605   0.227   2.671
 1360TIP3   OH2 4022   6.578   0.080   6.513
 1360TIP3    H1 4023   6.577   0.128   6.430
 1360TIP3    H2 4024   6.639   0.007   6.497
 1361TIP3   OH2 4025   1.762   2.964   6.323
 1361TIP3    H1 4026   1.693   3.013   6.277
 1361TIP3    H2 4027   1.809   2.919   6.253
 1362TIP3   OH2 4028   2.967   5.926   5.116
 1362TIP3    H1 4029   2.879   5.958   5.100
 1362TIP3    H2 4030   2.959   5.869   5.192
 1363TIP3   OH2 4031   2.783   3.961   5.300
 1363TIP3    H1 4032   2.822   4.049   5.300
 1363TIP3    H2 4033   2.798   3.929   5.389
 1364TIP3   OH2 4034   8.194   5.676   3.317
 1364TIP3    H1 4035   8.205   5.741   3.248
 1364TIP3    H2 4036   8.261   5.610   3.298
 1365TIP3   OH2 4037   0.088   3.921   2.914
 1365TIP3    H1 4038   0.048   3.933   3.000
 1365TIP3    H2 4039   0.141   3.842   2.923
 1366TIP3   OH2 4040   7.105   0.344   5.757
 1366TIP3    H1 4041   7.065   0.430   5.761
 1366TIP3    H2 4042   7.143   0.339   5.670
 1367TIP3   OH2 4043   7.529   5.524   1.131
 1367TIP3    H1 4044   7.591   5.452   1.136
 1367TIP3    H2 4045   7.538   5.570   1.214
 1368TIP3   OH2 4046   4.386   7.040   6.136
 1368TIP3    H1 4047   4.407   7.132   6.155
 1368TIP3    H2 4048   4.298   7.043   6.099
 1369TIP3   OH2 4049   0.123   2.742   5.991
 1369TIP3    H1 4050   0.157   2.806   6.054
 1369TIP3    H2 4051   0.029   2.743   6.004
 1370TIP3   OH2 4052   2.087   1.427   6.029
 1370TIP3    H1 4053   2.019   1.493   6.028
 1370TIP3    H2 4054   2.157   1.465   6.083
 1371TIP3   OH2 4055   2.564   3.061   0.577
 1371TIP3    H1 4056   2.596   3.151   0.587
 1371TIP3    H2 4057   2.593   3.017   0.657
 1372TIP3   OH2 4058   3.076   3.412   1.002
 1372TIP3    H1 4059   3.042   3.418   0.912
 1372TIP3    H2 4060   3.126   3.492   1.014
 1373TIP3   OH2 4061   1.211   2.728   5.079
 1373TIP3    H1 4062   1.133   2.697   5.033
 1373TIP3    H2 4063   1.223   2.665   5.150
 1374TIP3   OH2 4064   4.296   4.144   5.468
 1374TIP3    H1 4065   4.299   4.169   5.376
 1374TIP3    H2 4066   4.204   4.122   5.484
 1375TIP3   OH2 4067   0.038   1.345   1.327
 1375TIP3    H1 4068  -0.005   1.378   1.406
 1375TIP3    H2 4069  -0.033   1.312   1.272
 1376TIP3   OH2 4070   4.035   5.019   5.823
 1376TIP3    H1 4071   3.966   5.084   5.828
 1376TIP3    H2 4072   3.989   4.935   5.822
 1377TIP3   OH2 4073   6.595   4.455   4.395
 1377TIP3    H1 4074   6.522   4.487   4.342
 1377TIP3    H2 4075   6.596   4.513   4.472
 1378TIP3   OH2 4076   0.119   1.328   5.273
 1378TIP3    H1 4077   0.064   1.364   5.204
 1378TIP3    H2 4078   0.201   1.376   5.266
 1379TIP3   OH2 4079   3.543   4.440   6.675
 1379TIP3    H1 4080   3.598   4.479   6.743
 1379TIP3    H2 4081   3.461   4.490   6.679
 1380TIP3   OH2 4082   2.157   1.442   6.313
 1380TIP3    H1 4083   2.063   1.433   6.328
 1380TIP3    H2 4084   2.184   1.515   6.368
 1381TIP3   OH2 4085   5.273   2.027   4.113
 1381TIP3    H1 4086   5.257   2.075   4.032
 1381TIP3    H2 4087   5.303   2.093   4.175
 1382TIP3   OH2 4088   3.498   3.932   0.033
 1382TIP3    H1 4089   3.444   4.007   0.007
 1382TIP3    H2 4090   3.455   3.857  -0.008
 1383TIP3   OH2 4091   2.032   4.897   6.775
 1383TIP3    H1 4092   2.099   4.870   6.712
 1383TIP3    H2 4093   2.011   4.987   6.749
 1384TIP3   OH2 4094   4.421   0.945   4.097
 1384TIP3    H1 4095   4.420   0.976   4.187
 1384TIP3    H2 4096   4.503   0.979   4.061
 1385TIP3   OH2 4097   7.062   4.558   0.314
 1385TIP3    H1 4098   7.128   4.627   0.307
 1385TIP3    H2 4099   7.087   4.509   0.392
 1386TIP3   OH2 4100   6.071   0.417   2.510
 1386TIP3    H1 4101   6.037   0.343   2.560
 1386TIP3    H2 4102   6.141   0.454   2.566
 1387TIP3   OH2 4103   2.183   2.858   0.557
 1387TIP3    H1 4104   2.093   2.855   0.524
 1387TIP3    H2 4105   2.236   2.829   0.483
 1388TIP3   OH2 4106   0.921   1.357   1.749
 1388TIP3    H1 4107   0.935   1.435   1.695
 1388TIP3    H2 4108   1.002   1.308   1.742
 1389TIP3   OH2 4109   3.650   5.954   5.443
 1389TIP3    H1 4110   3.626   5.896   5.370
 1389TIP3    H2 4111   3.730   5.997   5.413
 1390TIP3   OH2 4112   0.938   3.968   1.529
 1390TIP3    H1 4113   0.948   3.954   1.435
 1390TIP3    H2 4114   1.000   4.038   1.549
 1391TIP3   OH2 4115   4.453   7.259   0.991
 1391TIP3    H1 4116   4.411   7.337   0.956
 1391TIP3    H2 4117   4.545   7.282   1.000
 1392TIP3   OH2 4118   7.272   7.773   3.598
 1392TIP3    H1 4119   7.270   7.678   3.588
 1392TIP3    H2 4120   7.196   7.793   3.652
 1393TIP3   OH2 4121   0.062   4.200   2.634
 1393TIP3    H1 4122   0.150   4.197   2.596
 1393TIP3    H2 4123   0.005   4.225   2.561
 1394TIP3   OH2 4124   7.214   4.058   5.888
 1394TIP3    H1 4125   7.298   4.103   5.879
 1394TIP3    H2 4126   7.181   4.085   5.973
 1395TIP3   OH2 4127   2.468   7.302   5.475
 1395TIP3    H1 4128   2.430   7.220   5.443
 1395TIP3    H2 4129   2.496   7.283   5.564
 1396TIP3   OH2 4130   2.536   2.584   3.137
 1396TIP3    H1 4131   2.544   2.559   3.045
 1396TIP3    H2 4132   2.598   2.527   3.183
 1397TIP3   OH2 4133   4.019   1.394   1.280
 1397TIP3    H1 4134   4.073   1.362   1.207
 1397TIP3    H2 4135   3.972   1.317   1.312
 1398TIP3   OH2 4136   2.333   1.837   0.799
 1398TIP3    H1 4137   2.320   1.924   0.836
 1398TIP3    H2 4138   2.292   1.841   0.713
 1399TIP3   OH2 4139   0.668   4.084   4.068
 1399TIP3    H1 4140   0.689   3.991   4.064
 1399TIP3    H2 4141   0.653   4.102   4.161
 1400TIP3   OH2 4142   7.751   3.867   3.627
 1400TIP3    H1 4143   7.660   3.849   3.648
 1400TIP3    H2 4144   7.800   3.823   3.697
 1401TIP3   OH2 4145   2.733   4.043   1.677
 1401TIP3    H1 4146   2.746   4.137   1.690
 1401TIP3    H2 4147   2.641   4.028   1.696
 1402TIP3   OH2 4148   4.367   2.397   1.880
 1402TIP3    H1 4149   4.381   2.490   1.897
 1402TIP3    H2 4150   4.283   2.376   1.921
 1403TIP3   OH2 4151   0.382   6.023   6.018
 1403TIP3    H1 4152   0.358   6.115   6.013
 1403TIP3    H2 4153   0.448   6.012   5.949
 1404TIP3   OH2 4154   5.182   1.386   0.677
 1404TIP3    H1 4155   5.157   1.298   0.651
 1404TIP3    H2 4156   5.114   1.414   0.739
 1405TIP3   OH2 4157   3.021   1.672   4.388
 1405TIP3    H1 4158   2.962   1.604   4.356
 1405TIP3    H2 4159   3.001   1.681   4.481
 1406TIP3   OH2 4160   6.614   7.621   3.660
 1406TIP3    H1 4161   6.556   7.557   3.701
 1406TIP3    H2 4162   6.570   7.705   3.673
 1407TIP3   OH2 4163   3.281   6.379   2.394
 1407TIP3    H1 4164   3.229   6.456   2.416
 1407TIP3    H2 4165   3.303   6.390   2.301
 1408TIP3   OH2 4166   2.979   7.675   2.796
 1408TIP3    H1 4167   2.963   7.758   2.751
 1408TIP3    H2 4168   2.956   7.607   2.732
 1409TIP3   OH2 4169   2.573   7.733   6.209
 1409TIP3    H1 4170   2.537   7.721   6.121
 1409TIP3    H2 4171   2.498   7.763   6.262
 1410TIP3   OH2 4172   5.497   4.000   5.110
 1410TIP3    H1 4173   5.479   3.911   5.140
 1410TIP3    H2 4174   5.567   4.031   5.168
 1411TIP3   OH2 4175   6.630   2.492   0.819
 1411TIP3    H1 4176   6.625   2.551   0.744
 1411TIP3    H2 4177   6.680   2.417   0.788
 1412TIP3   OH2 4178   1.035   2.945   0.863
 1412TIP3    H1 4179   1.020   2.875   0.800
 1412TIP3    H2 4180   0.977   3.016   0.834
 1413TIP3   OH2 4181   0.146   1.083   5.409
 1413TIP3    H1 4182   0.131   1.009   5.350
 1413TIP3    H2 4183   0.179   1.153   5.352
 1414TIP3   OH2 4184   0.928   3.183   6.031
 1414TIP3    H1 4185   0.913   3.094   5.999
 1414TIP3    H2 4186   0.856   3.234   5.994
 1415TIP3   OH2 4187   1.686   4.357   5.196
 1415TIP3    H1 4188   1.689   4.430   5.258
 1415TIP3    H2 4189   1.745   4.291   5.233
 1416TIP3   OH2 4190   5.155   4.166   0.806
 1416TIP3    H1 4191   5.136   4.250   0.848
 1416TIP3    H2 4192   5.246   4.174   0.776
 1417TIP3   OH2 4193   5.216   0.291   0.972
 1417TIP3    H1 4194   5.274   0.253   1.038
 1417TIP3    H2 4195   5.128   0.264   0.997
 1418TIP3   OH2 4196   4.233   1.576   3.810
 1418TIP3    H1 4197   4.246   1.519   3.886
 1418TIP3    H2 4198   4.311   1.561   3.756
 1419TIP3   OH2 4199   7.584   3.194   1.866
 1419TIP3    H1 4200   7.534   3.114   1.853
 1419TIP3    H2 4201   7.662   3.166   1.915
 1420TIP3   OH2 4202   6.291   6.834   5.739
 1420TIP3    H1 4203   6.245   6.756   5.708
 1420TIP3    H2 4204   6.293   6.893   5.663
 1421TIP3   OH2 4205   2.027   0.053   2.774
 1421TIP3    H1 4206   1.968   0.038   2.847
 1421TIP3    H2 4207   2.076  -0.028   2.764
 1422TIP3   OH2 4208   0.092   4.485   3.954
 1422TIP3    H1 4209   0.137   4.488   4.038
 1422TIP3    H2 4210   0.161   4.497   3.889
 1423TIP3   OH2 4211   8.134   7.349   1.033
 1423TIP3    H1 4212   8.115   7.304   1.115
 1423TIP3    H2 4213   8.049   7.357   0.989
 1424TIP3   OH2 4214   2.509   0.766   4.963
 1424TIP3    H1 4215   2.603   0.780   4.948
 1424TIP3    H2 4216   2.466   0.825   4.902
 1425TIP3   OH2 4217   6.355   7.708   0.345
 1425TIP3    H1 4218   6.327   7.772   0.279
 1425TIP3    H2 4219   6.275   7.690   0.395
 1426TIP3   OH2 4220   1.243   5.780   1.275
 1426TIP3    H1 4221   1.309   5.779   1.344
 1426TIP3    H2 4222   1.279   5.725   1.205
 1427TIP3   OH2 4223   7.147   0.768   2.128
 1427TIP3    H1 4224   7.139   0.681   2.167
 1427TIP3    H2 4225   7.208   0.756   2.055
 1428TIP3   OH2 4226   8.124   6.136   1.425
 1428TIP3    H1 4227   8.184   6.209   1.409
 1428TIP3    H2 4228   8.097   6.108   1.337
 1429TIP3   OH2 4229   6.728   7.120   6.425
 1429TIP3    H1 4230   6.723   7.131   6.520
 1429TIP3    H2 4231   6.800   7.177   6.398
 1430TIP3   OH2 4232   2.510   3.460   0.217
 1430TIP3    H1 4233   2.465   3.468   0.302
 1430TIP3    H2 4234   2.552   3.545   0.205
 1431TIP3   OH2 4235   0.635   7.466   2.331
 1431TIP3    H1 4236   0.558   7.410   2.326
 1431TIP3    H2 4237   0.637   7.512   2.247
 1432TIP3   OH2 4238   5.893   5.315   3.763
 1432TIP3    H1 4239   5.870   5.372   3.837
 1432TIP3    H2 4240   5.987   5.328   3.752
 1433TIP3   OH2 4241   0.480   6.799   3.416
 1433TIP3    H1 4242   0.541   6.750   3.362
 1433TIP3    H2 4243   0.460   6.742   3.490
 1434TIP3   OH2 4244   3.716   6.233   4.725
 1434TIP3    H1 4245   3.781   6.271   4.785
 1434TIP3    H2 4246   3.651   6.192   4.782
 1435TIP3   OH2 4247   5.890   7.284   3.240
 1435TIP3    H1 4248   5.930   7.205   3.205
 1435TIP3    H2 4249   5.803   7.257   3.268
 1436TIP3   OH2 4250   6.333   4.784   5.335
 1436TIP3    H1 4251   6.267   4.794   5.404
 1436TIP3    H2 4252   6.398   4.851   5.356
 1437TIP3   OH2 4253   4.118   1.691   3.571
 1437TIP3    H1 4254   4.132   1.649   3.655
 1437TIP3    H2 4255   4.093   1.620   3.512
 1438TIP3   OH2 4256   4.211   1.809   2.044
 1438TIP3    H1 4257   4.297   1.799   2.003
 1438TIP3    H2 4258   4.165   1.872   1.989
 1439TIP3   OH2 4259   4.769   4.270   4.520
 1439TIP3    H1 4260   4.710   4.344   4.506
 1439TIP3    H2 4261   4.713   4.193   4.507
 1440TIP3   OH2 4262   8.050   6.636   5.395
 1440TIP3    H1 4263   8.104   6.610   5.320
 1440TIP3    H2 4264   8.112   6.666   5.460
 1441TIP3   OH2 4265   6.231   0.692   1.639
 1441TIP3    H1 4266   6.262   0.782   1.633
 1441TIP3    H2 4267   6.311   0.640   1.651
 1442TIP3   OH2 4268   5.737   4.587   3.111
 1442TIP3    H1 4269   5.798   4.563   3.181
 1442TIP3    H2 4270   5.790   4.588   3.032
 1443TIP3   OH2 4271   1.452   5.294   5.209
 1443TIP3    H1 4272   1.535   5.250   5.189
 1443TIP3    H2 4273   1.442   5.281   5.304
 1444TIP3   OH2 4274   2.597   3.260   2.953
 1444TIP3    H1 4275   2.677   3.310   2.938
 1444TIP3    H2 4276   2.548   3.310   3.018
 1445TIP3   OH2 4277   0.984   1.670   2.334
 1445TIP3    H1 4278   0.892   1.673   2.309
 1445TIP3    H2 4279   1.015   1.760   2.324
 1446TIP3   OH2 4280   4.225   7.643   3.923
 1446TIP3    H1 4281   4.143   7.595   3.916
 1446TIP3    H2 4282   4.221   7.686   4.008
 1447TIP3   OH2 4283   1.598   3.924   4.304
 1447TIP3    H1 4284   1.646   3.948   4.383
 1447TIP3    H2 4285   1.613   3.997   4.244
 1448TIP3   OH2 4286   7.257   5.655   4.506
 1448TIP3    H1 4287   7.293   5.574   4.471
 1448TIP3    H2 4288   7.188   5.680   4.444
 1449TIP3   OH2 4289   0.095   0.222   4.172
 1449TIP3    H1 4290   0.068   0.271   4.250
 1449TIP3    H2 4291   0.015   0.213   4.120
 1450TIP3   OH2 4292   6.177   0.957   6.179
 1450TIP3    H1 4293   6.247   0.988   6.237
 1450TIP3    H2 4294   6.220   0.895   6.120
 1451TIP3   OH2 4295   2.564   4.776   2.790
 1451TIP3    H1 4296   2.520   4.733   2.864
 1451TIP3    H2 4297   2.566   4.869   2.815
 1452TIP3   OH2 4298   0.849   5.209   4.637
 1452TIP3    H1 4299   0.837   5.117   4.660
 1452TIP3    H2 4300   0.928   5.235   4.683
 1453TIP3   OH2 4301   6.655   6.159   3.338
 1453TIP3    H1 4302   6.599   6.217   3.287
 1453TIP3    H2 4303   6.624   6.071   3.317
 1454TIP3   OH2 4304   7.804   6.801   0.219
 1454TIP3    H1 4305   7.842   6.729   0.168
 1454TIP3    H2 4306   7.879   6.854   0.246
 1455TIP3   OH2 4307   5.086   7.494   4.006
 1455TIP3    H1 4308   5.011   7.512   3.949
 1455TIP3    H2 4309   5.054   7.427   4.066
 1456TIP3   OH2 4310   8.024   1.452   4.563
 1456TIP3    H1 4311   7.954   1.517   4.566
 1456TIP3    H2 4312   8.093   1.489   4.618
 1457TIP3   OH2 4313   6.726   6.144   3.623
 1457TIP3    H1 4314   6.672   6.170   3.697
 1457TIP3    H2 4315   6.670   6.157   3.546
 1458TIP3   OH2 4316   4.511   5.720   0.930
 1458TIP3    H1 4317   4.456   5.736   0.854
 1458TIP3    H2 4318   4.598   5.703   0.894
 1459TIP3   OH2 4319   6.521   4.255   1.748
 1459TIP3    H1 4320   6.523   4.249   1.653
 1459TIP3    H2 4321   6.575   4.331   1.769
 1460TIP3   OH2 4322   2.022   5.121   1.929
 1460TIP3    H1 4323   2.087   5.073   1.879
 1460TIP3    H2 4324   2.071   5.161   2.001
 1461TIP3   OH2 4325   6.081   0.052   5.418
 1461TIP3    H1 4326   6.084   0.146   5.406
 1461TIP3    H2 4327   6.130   0.016   5.344
 1462TIP3   OH2 4328   0.977   2.554   1.244
 1462TIP3    H1 4329   0.987   2.599   1.160
 1462TIP3    H2 4330   1.054   2.498   1.250
 1463TIP3   OH2 4331   1.492   0.417  -0.012
 1463TIP3    H1 4332   1.403   0.390  -0.034
 1463TIP3    H2 4333   1.488   0.443   0.080
 1464TIP3   OH2 4334   5.434   7.292   2.653
 1464TIP3    H1 4335   5.448   7.383   2.629
 1464TIP3    H2 4336   5.339   7.283   2.661
 1465TIP3   OH2 4337   2.465   4.767   3.772
 1465TIP3    H1 4338   2.547   4.755   3.821
 1465TIP3    H2 4339   2.417   4.834   3.821
 1466TIP3   OH2 4340   2.245   5.138   2.186
 1466TIP3    H1 4341   2.283   5.063   2.231
 1466TIP3    H2 4342   2.321   5.186   2.152
 1467TIP3   OH2 4343   3.623   0.841   3.925
 1467TIP3    H1 4344   3.659   0.774   3.867
 1467TIP3    H2 4345   3.664   0.922   3.895
 1468TIP3   OH2 4346   7.501   1.287   1.475
 1468TIP3    H1 4347   7.463   1.235   1.546
 1468TIP3    H2 4348   7.525   1.370   1.517
 1469TIP3   OH2 4349   2.876   1.211   5.221
 1469TIP3    H1 4350   2.948   1.167   5.176
 1469TIP3    H2 4351   2.918   1.257   5.294
 1470TIP3   OH2 4352   1.103   0.230   3.305
 1470TIP3    H1 4353   1.032   0.170   3.326
 1470TIP3    H2 4354   1.102   0.235   3.209
 1471TIP3   OH2 4355   2.352   6.872   2.135
 1471TIP3    H1 4356   2.299   6.869   2.056
 1471TIP3    H2 4357   2.397   6.788   2.138
 1472TIP3   OH2 4358   6.808   5.887   5.300
 1472TIP3    H1 4359   6.891   5.928   5.275
 1472TIP3    H2 4360   6.832   5.825   5.369
 1473TIP3   OH2 4361   0.672   4.149   3.545
 1473TIP3    H1 4362   0.593   4.126   3.497
 1473TIP3    H2 4363   0.743   4.144   3.480
 1474TIP3   OH2 4364   5.777   2.824   4.026
 1474TIP3    H1 4365   5.791   2.732   4.048
 1474TIP3    H2 4366   5.814   2.873   4.100
 1475TIP3   OH2 4367   7.969   7.418   2.719
 1475TIP3    H1 4368   8.033   7.487   2.736
 1475TIP3    H2 4369   7.924   7.405   2.802
 1476TIP3   OH2 4370   6.040   4.980   5.444
 1476TIP3    H1 4371   6.021   5.058   5.496
 1476TIP3    H2 4372   6.087   5.013   5.367
 1477TIP3   OH2 4373   5.849   2.177   4.395
 1477TIP3    H1 4374   5.790   2.217   4.332
 1477TIP3    H2 4375   5.918   2.242   4.409
 1478TIP3   OH2 4376   5.779   0.938   6.148
 1478TIP3    H1 4377   5.711   0.988   6.103
 1478TIP3    H2 4378   5.732   0.864   6.186
 1479TIP3   OH2 4379   1.263   4.113   1.948
 1479TIP3    H1 4380   1.332   4.062   1.990
 1479TIP3    H2 4381   1.261   4.082   1.858
 1480TIP3   OH2 4382   0.249   3.046   0.067
 1480TIP3    H1 4383   0.177   2.994   0.103
 1480TIP3    H2 4384   0.207   3.124   0.032
 1481TIP3   OH2 4385   5.742   4.324   2.190
 1481TIP3    H1 4386   5.755   4.231   2.206
 1481TIP3    H2 4387   5.659   4.328   2.141
 1482TIP3   OH2 4388   6.969   3.679   1.939
 1482TIP3    H1 4389   6.951   3.772   1.931
 1482TIP3    H2 4390   7.027   3.659   1.866
 1483TIP3   OH2 4391   0.250   7.407   1.062
 1483TIP3    H1 4392   0.245   7.446   0.975
 1483TIP3    H2 4393   0.164   7.425   1.101
 1484TIP3   OH2 4394   7.185   0.041   4.969
 1484TIP3    H1 4395   7.159   0.127   5.004
 1484TIP3    H2 4396   7.124  -0.020   5.011
 1485TIP3   OH2 4397   2.800   1.335   4.888
 1485TIP3    H1 4398   2.761   1.264   4.838
 1485TIP3    H2 4399   2.726   1.380   4.928
 1486TIP3   OH2 4400   7.231   2.572   0.270
 1486TIP3    H1 4401   7.274   2.562   0.185
 1486TIP3    H2 4402   7.298   2.611   0.326
 1487TIP3   OH2 4403   2.355   2.149   4.320
 1487TIP3    H1 4404   2.406   2.113   4.247
 1487TIP3    H2 4405   2.389   2.104   4.397
 1488TIP3   OH2 4406   8.298   6.808   0.553
 1488TIP3    H1 4407   8.282   6.847   0.639
 1488TIP3    H2 4408   8.359   6.736   0.570
 1489TIP3   OH2 4409   3.265   3.989   5.738
 1489TIP3    H1 4410   3.211   4.032   5.804
 1489TIP3    H2 4411   3.261   4.046   5.662
 1490TIP3   OH2 4412   4.173   4.801   6.692
 1490TIP3    H1 4413   4.174   4.705   6.692
 1490TIP3    H2 4414   4.199   4.825   6.603
 1491TIP3   OH2 4415   2.708   1.055   1.008
 1491TIP3    H1 4416   2.776   1.020   1.065
 1491TIP3    H2 4417   2.752   1.121   0.956
 1492TIP3   OH2 4418   5.596   2.040   3.540
 1492TIP3    H1 4419   5.501   2.048   3.542
 1492TIP3    H2 4420   5.622   2.079   3.457
 1493TIP3   OH2 4421   3.751   0.884   5.165
 1493TIP3    H1 4422   3.700   0.819   5.116
 1493TIP3    H2 4423   3.704   0.966   5.153
 1494TIP3   OH2 4424   6.044   7.511   3.262
 1494TIP3    H1 4425   6.099   7.504   3.184
 1494TIP3    H2 4426   5.979   7.442   3.251
 1495TIP3   OH2 4427   3.298   2.129   3.552
 1495TIP3    H1 4428   3.380   2.131   3.502
 1495TIP3    H2 4429   3.264   2.041   3.538
 1496TIP3   OH2 4430   4.026   2.836   3.057
 1496TIP3    H1 4431   3.986   2.919   3.080
 1496TIP3    H2 4432   4.106   2.833   3.109
 1497TIP3   OH2 4433   3.998   5.943   6.328
 1497TIP3    H1 4434   3.932   5.886   6.368
 1497TIP3    H2 4435   4.035   5.891   6.256
 1498TIP3   OH2 4436   4.754   2.140   2.588
 1498TIP3    H1 4437   4.737   2.149   2.682
 1498TIP3    H2 4438   4.847   2.160   2.578
 1499TIP3   OH2 4439   4.324   4.111   4.287
 1499TIP3    H1 4440   4.327   4.202   4.259
 1499TIP3    H2 4441   4.311   4.115   4.382
 1500TIP3   OH2 4442   7.862   4.047   0.489
 1500TIP3    H1 4443   7.791   4.044   0.425
 1500TIP3    H2 4444   7.921   4.116   0.457
 1501TIP3   OH2 4445   6.157   4.747   5.573
 1501TIP3    H1 4446   6.094   4.808   5.535
 1501TIP3    H2 4447   6.169   4.779   5.663
 1502TIP3   OH2 4448   4.189   7.103   2.658
 1502TIP3    H1 4449   4.162   7.027   2.710
 1502TIP3    H2 4450   4.152   7.178   2.705
 1503TIP3   OH2 4451   3.746   5.743   2.885
 1503TIP3    H1 4452   3.837   5.767   2.870
 1503TIP3    H2 4453   3.749   5.678   2.955
 1504TIP3   OH2 4454   5.677   1.145   0.093
 1504TIP3    H1 4455   5.723   1.062   0.082
 1504TIP3    H2 4456   5.744   1.207   0.120
 1505TIP3   OH2 4457   7.473   0.448   5.490
 1505TIP3    H1 4458   7.473   0.465   5.585
 1505TIP3    H2 4459   7.500   0.356   5.483
 1506TIP3   OH2 4460   1.321   3.560   6.202
 1506TIP3    H1 4461   1.261   3.510   6.257
 1506TIP3    H2 4462   1.271   3.638   6.178
 1507TIP3   OH2 4463   7.543   6.640   0.655
 1507TIP3    H1 4464   7.456   6.610   0.626
 1507TIP3    H2 4465   7.595   6.560   0.660
 1508TIP3   OH2 4466   3.237   0.621   1.137
 1508TIP3    H1 4467   3.162   0.633   1.078
 1508TIP3    H2 4468   3.198   0.613   1.224
 1509TIP3   OH2 4469   5.372   1.486   3.570
 1509TIP3    H1 4470   5.400   1.547   3.638
 1509TIP3    H2 4471   5.416   1.404   3.592
 1510TIP3   OH2 4472   0.707   5.821   2.653
 1510TIP3    H1 4473   0.782   5.880   2.664
 1510TIP3    H2 4474   0.633   5.869   2.690
 1511TIP3   OH2 4475   7.458   6.088   5.347
 1511TIP3    H1 4476   7.435   5.997   5.325
 1511TIP3    H2 4477   7.552   6.085   5.366
 1512TIP3   OH2 4478   8.186   3.564   1.039
 1512TIP3    H1 4479   8.259   3.512   1.005
 1512TIP3    H2 4480   8.111   3.505   1.037
 1513TIP3   OH2 4481   7.549   7.424   2.573
 1513TIP3    H1 4482   7.619   7.475   2.532
 1513TIP3    H2 4483   7.553   7.448   2.665
 1514TIP3   OH2 4484   2.879   3.985   2.781
 1514TIP3    H1 4485   2.935   4.063   2.782
 1514TIP3    H2 4486   2.933   3.917   2.822
 1515TIP3   OH2 4487   4.773   1.793   4.543
 1515TIP3    H1 4488   4.683   1.821   4.559
 1515TIP3    H2 4489   4.783   1.795   4.448
 1516TIP3   OH2 4490   1.809   7.764   2.682
 1516TIP3    H1 4491   1.748   7.836   2.667
 1516TIP3    H2 4492   1.756   7.685   2.671
 1517TIP3   OH2 4493   7.986   5.517   5.367
 1517TIP3    H1 4494   7.918   5.542   5.430
 1517TIP3    H2 4495   7.953   5.547   5.282
 1518TIP3   OH2 4496   7.054   7.243   4.131
 1518TIP3    H1 4497   7.143   7.279   4.136
 1518TIP3    H2 4498   7.067   7.148   4.130
 1519TIP3   OH2 4499   1.669   3.863   6.682
 1519TIP3    H1 4500   1.615   3.939   6.704
 1519TIP3    H2 4501   1.755   3.885   6.717
 1520TIP3   OH2 4502   2.355   2.353   2.686
 1520TIP3    H1 4503   2.277   2.375   2.635
 1520TIP3    H2 4504   2.416   2.317   2.622
 1521TIP3   OH2 4505   6.586   3.232   5.567
 1521TIP3    H1 4506   6.663   3.203   5.518
 1521TIP3    H2 4507   6.549   3.151   5.603
 1522TIP3   OH2 4508   3.918   1.894   2.149
 1522TIP3    H1 4509   3.957   1.982   2.145
 1522TIP3    H2 4510   3.828   1.906   2.118
 1523TIP3   OH2 4511   3.791   2.324   2.574
 1523TIP3    H1 4512   3.848   2.396   2.600
 1523TIP3    H2 4513   3.703   2.360   2.574
 1524TIP3   OH2 4514   5.688   4.582   1.064
 1524TIP3    H1 4515   5.749   4.609   1.133
 1524TIP3    H2 4516   5.686   4.486   1.071
 1525TIP3   OH2 4517   8.235   3.834   5.785
 1525TIP3    H1 4518   8.289   3.764   5.747
 1525TIP3    H2 4519   8.195   3.795   5.862
 1526TIP3   OH2 4520   1.916   3.289   5.674
 1526TIP3    H1 4521   1.952   3.201   5.671
 1526TIP3    H2 4522   1.992   3.346   5.663
 1527TIP3   OH2 4523   3.926   2.417   5.581
 1527TIP3    H1 4524   3.986   2.454   5.515
 1527TIP3    H2 4525   3.931   2.322   5.567
 1528TIP3   OH2 4526   2.147   7.212   1.151
 1528TIP3    H1 4527   2.168   7.130   1.107
 1528TIP3    H2 4528   2.053   7.206   1.169
 1529TIP3   OH2 4529   7.606   0.578   1.920
 1529TIP3    H1 4530   7.551   0.552   1.846
 1529TIP3    H2 4531   7.598   0.673   1.924
 1530TIP3   OH2 4532   8.164   2.880   0.380
 1530TIP3    H1 4533   8.098   2.939   0.416
 1530TIP3    H2 4534   8.139   2.793   0.411
 1531TIP3   OH2 4535   5.210   5.707   6.280
 1531TIP3    H1 4536   5.191   5.664   6.364
 1531TIP3    H2 4537   5.273   5.775   6.302
 1532TIP3   OH2 4538   4.755   2.546   5.149
 1532TIP3    H1 4539   4.689   2.476   5.157
 1532TIP3    H2 4540   4.786   2.559   5.239
 1533TIP3   OH2 4541   0.231   7.388   2.915
 1533TIP3    H1 4542   0.258   7.480   2.906
 1533TIP3    H2 4543   0.135   7.391   2.909
 1534TIP3   OH2 4544   2.490   6.626   5.019
 1534TIP3    H1 4545   2.482   6.718   5.047
 1534TIP3    H2 4546   2.521   6.631   4.929
 1535TIP3   OH2 4547   6.840   0.282   4.620
 1535TIP3    H1 4548   6.855   0.231   4.540
 1535TIP3    H2 4549   6.823   0.216   4.688
 1536TIP3   OH2 4550   5.886   6.853   5.607
 1536TIP3    H1 4551   5.865   6.928   5.664
 1536TIP3    H2 4552   5.919   6.893   5.527
 1537TIP3   OH2 4553   4.223   3.468   3.742
 1537TIP3    H1 4554   4.218   3.502   3.832
 1537TIP3    H2 4555   4.276   3.388   3.750
 1538TIP3   OH2 4556   4.802   6.928   6.628
 1538TIP3    H1 4557   4.751   6.859   6.587
 1538TIP3    H2 4558   4.737   6.988   6.664
 1539TIP3   OH2 4559   2.309   1.532   1.476
 1539TIP3    H1 4560   2.224   1.565   1.447
 1539TIP3    H2 4561   2.304   1.533   1.571
 1540TIP3   OH2 4562   0.678   6.045   6.472
 1540TIP3    H1 4563   0.663   6.121   6.417
 1540TIP3    H2 4564   0.640   5.972   6.423
 1541TIP3   OH2 4565   7.616   5.401   0.902
 1541TIP3    H1 4566   7.558   5.444   0.965
 1541TIP3    H2 4567   7.605   5.308   0.918
 1542TIP3   OH2 4568   3.242   2.795   4.452
 1542TIP3    H1 4569   3.275   2.849   4.523
 1542TIP3    H2 4570   3.151   2.823   4.440
 1543TIP3   OH2 4571   5.158   1.833   6.154
 1543TIP3    H1 4572   5.120   1.920   6.140
 1543TIP3    H2 4573   5.109   1.797   6.228
 1544TIP3   OH2 4574   7.497   5.486   2.964
 1544TIP3    H1 4575   7.521   5.428   2.891
 1544TIP3    H2 4576   7.573   5.544   2.974
 1545TIP3   OH2 4577   4.700   7.253   3.929
 1545TIP3    H1 4578   4.716   7.346   3.947
 1545TIP3    H2 4579   4.605   7.247   3.919
 1546TIP3   OH2 4580   4.335   4.690   5.154
 1546TIP3    H1 4581   4.250   4.697   5.110
 1546TIP3    H2 4582   4.375   4.611   5.117
 1547TIP3   OH2 4583   6.196   5.792   5.055
 1547TIP3    H1 4584   6.166   5.860   5.116
 1547TIP3    H2 4585   6.184   5.831   4.968
 1548TIP3   OH2 4586   0.661   5.238   5.367
 1548TIP3    H1 4587   0.712   5.270   5.441
 1548TIP3    H2 4588   0.577   5.212   5.406
 1549TIP3   OH2 4589   2.063   0.774   2.745
 1549TIP3    H1 4590   2.142   0.725   2.720
 1549TIP3    H2 4591   2.063   0.773   2.841
 1550TIP3   OH2 4592   6.339   2.075   2.332
 1550TIP3    H1 4593   6.294   2.109   2.410
 1550TIP3    H2 4594   6.431   2.096   2.347
 1551TIP3   OH2 4595   1.443   0.956   5.364
 1551TIP3    H1 4596   1.509   0.936   5.298
 1551TIP3    H2 4597   1.360   0.958   5.316
 1552TIP3   OH2 4598   7.242   6.617   5.342
 1552TIP3    H1 4599   7.238   6.661   5.258
 1552TIP3    H2 4600   7.310   6.551   5.332
 1553TIP3   OH2 4601   4.380   3.660   5.637
 1553TIP3    H1 4602   4.305   3.719   5.643
 1553TIP3    H2 4603   4.345   3.582   5.592
 1554TIP3   OH2 4604   2.875   6.881   3.383
 1554TIP3    H1 4605   2.936   6.864   3.312
 1554TIP3    H2 4606   2.801   6.925   3.341
 1555TIP3   OH2 4607   4.177   6.489   1.727
 1555TIP3    H1 4608   4.111   6.419   1.730
 1555TIP3    H2 4609   4.222   6.476   1.643
 1556TIP3   OH2 4610   6.206   5.721   0.684
 1556TIP3    H1 4611   6.132   5.671   0.650
 1556TIP3    H2 4612   6.279   5.698   0.627
 1557TIP3   OH2 4613   7.106   6.947   1.917
 1557TIP3    H1 4614   7.029   6.889   1.912
 1557TIP3    H2 4615   7.168   6.899   1.971
 1558TIP3   OH2 4616   7.038   0.438   4.804
 1558TIP3    H1 4617   7.004   0.381   4.735
 1558TIP3    H2 4618   7.081   0.509   4.756
 1559TIP3   OH2 4619   0.147   3.906   0.385
 1559TIP3    H1 4620   0.062   3.945   0.367
 1559TIP3    H2 4621   0.150   3.897   0.480
 1560TIP3   OH2 4622   4.388   6.762   4.598
 1560TIP3    H1 4623   4.331   6.698   4.555
 1560TIP3    H2 4624   4.476   6.731   4.580
 1561TIP3   OH2 4625   4.653   5.235   4.927
 1561TIP3    H1 4626   4.675   5.190   4.845
 1561TIP3    H2 4627   4.725   5.296   4.941
 1562TIP3   OH2 4628   7.201   2.606   2.424
 1562TIP3    H1 4629   7.218   2.640   2.336
 1562TIP3    H2 4630   7.194   2.512   2.412
 1563TIP3   OH2 4631   3.024   4.298   4.603
 1563TIP3    H1 4632   2.979   4.265   4.526
 1563TIP3    H2 4633   2.967   4.276   4.677
 1564TIP3   OH2 4634   6.957   3.763   4.732
 1564TIP3    H1 4635   6.985   3.839   4.680
 1564TIP3    H2 4636   6.964   3.793   4.822
 1565TIP3   OH2 4637   8.198   1.827   2.887
 1565TIP3    H1 4638   8.160   1.914   2.869
 1565TIP3    H2 4639   8.266   1.844   2.952
 1566TIP3   OH2 4640   3.130   3.661   3.780
 1566TIP3    H1 4641   3.089   3.597   3.837
 1566TIP3    H2 4642   3.106   3.634   3.691
 1567TIP3   OH2 4643   2.060   4.323   5.343
 1567TIP3    H1 4644   2.153   4.324   5.364
 1567TIP3    H2 4645   2.047   4.399   5.287
 1568TIP3   OH2 4646   4.461   0.101   0.769
 1568TIP3    H1 4647   4.401   0.131   0.838
 1568TIP3    H2 4648   4.493   0.017   0.801
 1569TIP3   OH2 4649   5.712   4.770   1.582
 1569TIP3    H1 4650   5.736   4.835   1.648
 1569TIP3    H2 4651   5.617   4.765   1.586
 1570TIP3   OH2 4652   4.045   5.275   5.233
 1570TIP3    H1 4653   4.107   5.209   5.266
 1570TIP3    H2 4654   3.990   5.226   5.172
 1571TIP3   OH2 4655   4.357   7.697   3.140
 1571TIP3    H1 4656   4.291   7.699   3.071
 1571TIP3    H2 4657   4.319   7.749   3.210
 1572TIP3   OH2 4658   3.512   2.246   1.734
 1572TIP3    H1 4659   3.585   2.299   1.703
 1572TIP3    H2 4660   3.490   2.190   1.660
 1573TIP3   OH2 4661   3.113   1.651   5.310
 1573TIP3    H1 4662   3.072   1.736   5.296
 1573TIP3    H2 4663   3.082   1.597   5.238
 1574TIP3   OH2 4664   1.333   1.277   5.623
 1574TIP3    H1 4665   1.339   1.216   5.696
 1574TIP3    H2 4666   1.399   1.246   5.560
 1575TIP3   OH2 4667   2.222   6.758   5.135
 1575TIP3    H1 4668   2.135   6.797   5.140
 1575TIP3    H2 4669   2.219   6.702   5.057
 1576TIP3   OH2 4670   1.155   6.446   2.394
 1576TIP3    H1 4671   1.187   6.523   2.442
 1576TIP3    H2 4672   1.060   6.453   2.399
 1577TIP3   OH2 4673   0.467   6.674   0.346
 1577TIP3    H1 4674   0.509   6.683   0.260
 1577TIP3    H2 4675   0.534   6.635   0.402
 1578TIP3   OH2 4676   3.906   1.518   4.338
 1578TIP3    H1 4677   3.822   1.543   4.299
 1578TIP3    H2 4678   3.968   1.522   4.265
 1579TIP3   OH2 4679   1.600   7.618   0.265
 1579TIP3    H1 4680   1.548   7.573   0.330
 1579TIP3    H2 4681   1.537   7.643   0.197
 1580TIP3   OH2 4682   6.775   6.622   1.444
 1580TIP3    H1 4683   6.736   6.709   1.448
 1580TIP3    H2 4684   6.799   6.609   1.353
 1581TIP3   OH2 4685   5.121   7.572   6.589
 1581TIP3    H1 4686   5.057   7.538   6.651
 1581TIP3    H2 4687   5.174   7.496   6.565
 1582TIP3   OH2 4688   2.970   6.766   5.297
 1582TIP3    H1 4689   2.992   6.858   5.284
 1582TIP3    H2 4690   2.887   6.768   5.344
 1583TIP3   OH2 4691   0.067   4.554   3.419
 1583TIP3    H1 4692   0.001   4.542   3.488
 1583TIP3    H2 4693   0.030   4.507   3.344
 1584TIP3   OH2 4694   1.390   2.930   5.394
 1584TIP3    H1 4695   1.329   2.979   5.338
 1584TIP3    H2 4696   1.381   2.839   5.366
 1585TIP3   OH2 4697   4.386   0.096   2.931
 1585TIP3    H1 4698   4.426   0.146   2.860
 1585TIP3    H2 4699   4.320   0.155   2.967
 1586TIP3   OH2 4700   2.842   7.636   4.416
 1586TIP3    H1 4701   2.911   7.650   4.352
 1586TIP3    H2 4702   2.809   7.548   4.398
 1587TIP3   OH2 4703   2.162   5.320   2.850
 1587TIP3    H1 4704   2.068   5.342   2.853
 1587TIP3    H2 4705   2.173   5.272   2.768
 1588TIP3   OH2 4706   2.996   7.828   0.227
 1588TIP3    H1 4707   2.997   7.734   0.207
 1588TIP3    H2 4708   3.086   7.847   0.254
 1589TIP3   OH2 4709   2.257   0.273   3.878
 1589TIP3    H1 4710   2.295   0.352   3.916
 1589TIP3    H2 4711   2.210   0.303   3.800
 1590TIP3   OH2 4712   6.331   7.154   3.740
 1590TIP3    H1 4713   6.266   7.133   3.673
 1590TIP3    H2 4714   6.296   7.115   3.820
 1591TIP3   OH2 4715   2.839   6.695   1.330
 1591TIP3    H1 4716   2.771   6.628   1.320
 1591TIP3    H2 4717   2.894   6.685   1.253
 1592TIP3   OH2 4718   0.527   2.290   6.120
 1592TIP3    H1 4719   0.531   2.195   6.124
 1592TIP3    H2 4720   0.618   2.317   6.107
 1593TIP3   OH2 4721   2.525   6.904   2.840
 1593TIP3    H1 4722   2.491   6.879   2.927
 1593TIP3    H2 4723   2.450   6.893   2.782
 1594TIP3   OH2 4724   6.049   0.430   3.516
 1594TIP3    H1 4725   6.124   0.450   3.573
 1594TIP3    H2 4726   6.069   0.344   3.480
 1595TIP3   OH2 4727   6.824   1.136   1.117
 1595TIP3    H1 4728   6.767   1.092   1.055
 1595TIP3    H2 4729   6.815   1.086   1.198
 1596TIP3   OH2 4730   6.342   4.443   1.087
 1596TIP3    H1 4731   6.434   4.443   1.114
 1596TIP3    H2 4732   6.293   4.462   1.168
 1597TIP3   OH2 4733   5.125   3.902   0.866
 1597TIP3    H1 4734   5.170   3.912   0.951
 1597TIP3    H2 4735   5.139   3.985   0.822
 1598TIP3   OH2 4736   6.938   5.133   2.014
 1598TIP3    H1 4737   6.896   5.198   1.957
 1598TIP3    H2 4738   6.865   5.095   2.063
 1599TIP3   OH2 4739   5.536   0.242   2.581
 1599TIP3    H1 4740   5.544   0.326   2.537
 1599TIP3    H2 4741   5.457   0.249   2.634
 1600TIP3   OH2 4742   0.548   1.072   4.851
 1600TIP3    H1 4743   0.536   0.984   4.886
 1600TIP3    H2 4744   0.498   1.128   4.911
 1601TIP3   OH2 4745   4.849   6.665   2.321
 1601TIP3    H1 4746   4.780   6.636   2.381
 1601TIP3    H2 4747   4.804   6.727   2.263
 1602TIP3   OH2 4748   4.381   0.771   4.937
 1602TIP3    H1 4749   4.411   0.711   4.869
 1602TIP3    H2 4750   4.285   0.763   4.934
 1603TIP3   OH2 4751   0.580   6.704   1.163
 1603TIP3    H1 4752   0.532   6.745   1.235
 1603TIP3    H2 4753   0.524   6.633   1.133
 1604TIP3   OH2 4754   2.501   4.707   2.141
 1604TIP3    H1 4755   2.419   4.683   2.098
 1604TIP3    H2 4756   2.516   4.637   2.205
 1605TIP3   OH2 4757   4.063   3.204   6.688
 1605TIP3    H1 4758   3.983   3.212   6.740
 1605TIP3    H2 4759   4.038   3.149   6.614
 1606TIP3   OH2 4760   3.287   6.870   1.008
 1606TIP3    H1 4761   3.251   6.849   0.922
 1606TIP3    H2 4762   3.376   6.901   0.991
 1607TIP3   OH2 4763   0.627   4.065   4.372
 1607TIP3    H1 4764   0.546   4.015   4.362
 1607TIP3    H2 4765   0.633   4.083   4.466
 1608TIP3   OH2 4766   0.280   0.709   0.074
 1608TIP3    H1 4767   0.372   0.729   0.056
 1608TIP3    H2 4768   0.282   0.631   0.129
 1609TIP3   OH2 4769   5.775   3.741   4.066
 1609TIP3    H1 4770   5.808   3.748   4.155
 1609TIP3    H2 4771   5.852   3.722   4.013
 1610TIP3   OH2 4772   4.162   0.500   4.507
 1610TIP3    H1 4773   4.152   0.594   4.522
 1610TIP3    H2 4774   4.195   0.467   4.591
 1611TIP3   OH2 4775   3.575   3.098   4.750
 1611TIP3    H1 4776   3.521   3.087   4.672
 1611TIP3    H2 4777   3.638   3.167   4.725
 1612TIP3   OH2 4778   1.493   5.546   3.682
 1612TIP3    H1 4779   1.506   5.496   3.762
 1612TIP3    H2 4780   1.552   5.620   3.689
 1613TIP3   OH2 4781   6.707   3.048   5.762
 1613TIP3    H1 4782   6.797   3.081   5.762
 1613TIP3    H2 4783   6.656   3.118   5.804
 1614TIP3   OH2 4784   7.011   2.184   5.302
 1614TIP3    H1 4785   7.051   2.159   5.385
 1614TIP3    H2 4786   6.962   2.107   5.274
 1615TIP3   OH2 4787   4.158   6.286   5.969
 1615TIP3    H1 4788   4.203   6.345   6.030
 1615TIP3    H2 4789   4.066   6.291   5.996
 1616TIP3   OH2 4790   4.966   2.707   6.142
 1616TIP3    H1 4791   5.060   2.720   6.129
 1616TIP3    H2 4792   4.951   2.615   6.118
 1617TIP3   OH2 4793   5.011   5.648   0.894
 1617TIP3    H1 4794   5.055   5.717   0.943
 1617TIP3    H2 4795   5.080   5.583   0.878
 1618TIP3   OH2 4796   7.665   2.734   1.454
 1618TIP3    H1 4797   7.639   2.643   1.462
 1618TIP3    H2 4798   7.749   2.731   1.407
 1619TIP3   OH2 4799   5.163   7.788   3.933
 1619TIP3    H1 4800   5.091   7.726   3.948
 1619TIP3    H2 4801   5.240   7.733   3.921
 1620TIP3   OH2 4802   1.857   7.408   0.402
 1620TIP3    H1 4803   1.812   7.432   0.482
 1620TIP3    H2 4804   1.810   7.455   0.333
 1621TIP3   OH2 4805   5.258   1.417   2.609
 1621TIP3    H1 4806   5.298   1.477   2.671
 1621TIP3    H2 4807   5.308   1.429   2.528
 1622TIP3   OH2 4808   5.829   7.767   2.924
 1622TIP3    H1 4809   5.804   7.848   2.970
 1622TIP3    H2 4810   5.821   7.699   2.991
 1623TIP3   OH2 4811   6.875   1.570   4.159
 1623TIP3    H1 4812   6.903   1.547   4.071
 1623TIP3    H2 4813   6.853   1.663   4.154
 1624TIP3   OH2 4814   7.863   3.556   4.496
 1624TIP3    H1 4815   7.900   3.640   4.523
 1624TIP3    H2 4816   7.811   3.576   4.419
 1625TIP3   OH2 4817   4.457   2.084   6.724
 1625TIP3    H1 4818   4.399   2.074   6.649
 1625TIP3    H2 4819   4.544   2.061   6.691
 1626TIP3   OH2 4820   0.476   3.124   0.259
 1626TIP3    H1 4821   0.404   3.110   0.197
 1626TIP3    H2 4822   0.511   3.036   0.275
 1627TIP3   OH2 4823   5.105   4.291   5.298
 1627TIP3    H1 4824   5.146   4.205   5.297
 1627TIP3    H2 4825   5.028   4.281   5.353
 1628TIP3   OH2 4826   0.396   6.294   3.599
 1628TIP3    H1 4827   0.388   6.206   3.636
 1628TIP3    H2 4828   0.484   6.296   3.561
 1629TIP3   OH2 4829   3.645   7.635   0.627
 1629TIP3    H1 4830   3.687   7.573   0.568
 1629TIP3    H2 4831   3.684   7.720   0.605
 1630TIP3   OH2 4832   1.958   7.102   2.712
 1630TIP3    H1 4833   1.866   7.089   2.689
 1630TIP3    H2 4834   2.003   7.029   2.668
 1631TIP3   OH2 4835   6.433   7.466   0.699
 1631TIP3    H1 4836   6.466   7.528   0.765
 1631TIP3    H2 4837   6.508   7.451   0.641
 1632TIP3   OH2 4838   5.978   2.858   1.020
 1632TIP3    H1 4839   5.987   2.825   1.109
 1632TIP3    H2 4840   5.902   2.812   0.985
 1633TIP3   OH2 4841   2.563   7.045   1.543
 1633TIP3    H1 4842   2.618   7.086   1.477
 1633TIP3    H2 4843   2.534   7.118   1.598
 1634TIP3   OH2 4844   0.401   5.783   2.833
 1634TIP3    H1 4845   0.390   5.814   2.743
 1634TIP3    H2 4846   0.421   5.862   2.883
 1635TIP3   OH2 4847   1.493   7.352   0.507
 1635TIP3    H1 4848   1.583   7.323   0.521
 1635TIP3    H2 4849   1.442   7.306   0.574
 1636TIP3   OH2 4850   7.078   2.270   0.130
 1636TIP3    H1 4851   7.026   2.203   0.087
 1636TIP3    H2 4852   7.162   2.268   0.085
 1637TIP3   OH2 4853   0.352   5.777   1.611
 1637TIP3    H1 4854   0.283   5.712   1.601
 1637TIP3    H2 4855   0.377   5.771   1.704
 1638TIP3   OH2 4856   8.164   1.730   3.687
 1638TIP3    H1 4857   8.098   1.790   3.721
 1638TIP3    H2 4858   8.202   1.776   3.612
 1639TIP3   OH2 4859   7.657   2.850   6.378
 1639TIP3    H1 4860   7.741   2.868   6.338
 1639TIP3    H2 4861   7.621   2.937   6.398
 1640TIP3   OH2 4862   4.856   4.170   0.061
 1640TIP3    H1 4863   4.948   4.149   0.044
 1640TIP3    H2 4864   4.807   4.106   0.010
 1641TIP3   OH2 4865   1.866   0.939   4.082
 1641TIP3    H1 4866   1.802   0.868   4.077
 1641TIP3    H2 4867   1.868   0.964   4.174
 1642TIP3   OH2 4868   6.643   0.594   5.157
 1642TIP3    H1 4869   6.650   0.577   5.063
 1642TIP3    H2 4870   6.674   0.513   5.198
 1643TIP3   OH2 4871   5.677   4.080   6.488
 1643TIP3    H1 4872   5.748   4.104   6.427
 1643TIP3    H2 4873   5.716   4.091   6.575
 1644TIP3   OH2 4874   4.652   5.479   5.572
 1644TIP3    H1 4875   4.695   5.396   5.553
 1644TIP3    H2 4876   4.686   5.506   5.657
 1645TIP3   OH2 4877   0.188   7.575   4.037
 1645TIP3    H1 4878   0.250   7.602   4.105
 1645TIP3    H2 4879   0.229   7.602   3.955
 1646TIP3   OH2 4880   0.506   3.068   2.468
 1646TIP3    H1 4881   0.508   3.134   2.537
 1646TIP3    H2 4882   0.413   3.063   2.444
 1647TIP3   OH2 4883   4.138   7.342   2.802
 1647TIP3    H1 4884   4.048   7.358   2.829
 1647TIP3    H2 4885   4.176   7.429   2.794
 1648TIP3   OH2 4886   7.659   6.995   4.916
 1648TIP3    H1 4887   7.742   6.962   4.882
 1648TIP3    H2 4888   7.677   7.086   4.939
 1649TIP3   OH2 4889   6.363   4.524   1.498
 1649TIP3    H1 4890   6.457   4.507   1.486
 1649TIP3    H2 4891   6.359   4.572   1.581
 1650TIP3   OH2 4892   5.286   1.122   1.354
 1650TIP3    H1 4893   5.272   1.126   1.260
 1650TIP3    H2 4894   5.282   1.029   1.376
 1651TIP3   OH2 4895   7.345   0.477   2.700
 1651TIP3    H1 4896   7.364   0.399   2.647
 1651TIP3    H2 4897   7.396   0.546   2.659
 1652TIP3   OH2 4898   0.148   7.142   4.811
 1652TIP3    H1 4899   0.086   7.196   4.860
 1652TIP3    H2 4900   0.200   7.205   4.761
 1653TIP3   OH2 4901   6.666   4.332   0.564
 1653TIP3    H1 4902   6.612   4.254   0.576
 1653TIP3    H2 4903   6.701   4.324   0.475
 1654TIP3   OH2 4904   3.865   4.264   4.938
 1654TIP3    H1 4905   3.888   4.356   4.951
 1654TIP3    H2 4906   3.788   4.267   4.881
 1655TIP3   OH2 4907   0.513   0.355   6.127
 1655TIP3    H1 4908   0.559   0.438   6.123
 1655TIP3    H2 4909   0.425   0.377   6.157
 1656TIP3   OH2 4910   7.423   0.606   0.290
 1656TIP3    H1 4911   7.416   0.553   0.210
 1656TIP3    H2 4912   7.494   0.566   0.339
 1657TIP3   OH2 4913   4.789   6.659   1.727
 1657TIP3    H1 4914   4.758   6.587   1.673
 1657TIP3    H2 4915   4.738   6.735   1.697
 1658TIP3   OH2 4916   6.055   3.580   0.953
 1658TIP3    H1 4917   5.991   3.627   1.006
 1658TIP3    H2 4918   6.105   3.528   1.016
 1659TIP3   OH2 4919   0.454   2.622   4.538
 1659TIP3    H1 4920   0.404   2.570   4.476
 1659TIP3    H2 4921   0.502   2.558   4.590
 1660TIP3   OH2 4922   6.475   0.524   0.784
 1660TIP3    H1 4923   6.491   0.594   0.720
 1660TIP3    H2 4924   6.532   0.452   0.756
 1661TIP3   OH2 4925   7.490   7.377   5.173
 1661TIP3    H1 4926   7.419   7.386   5.109
 1661TIP3    H2 4927   7.450   7.331   5.247
 1662TIP3   OH2 4928   5.080   5.873   1.024
 1662TIP3    H1 4929   5.171   5.875   1.054
 1662TIP3    H2 4930   5.042   5.954   1.059
 1663TIP3   OH2 4931   3.197   2.614   2.438
 1663TIP3    H1 4932   3.244   2.672   2.498
 1663TIP3    H2 4933   3.265   2.560   2.399
 1664TIP3   OH2 4934   2.964   3.573   2.398
 1664TIP3    H1 4935   2.966   3.562   2.493
 1664TIP3    H2 4936   2.992   3.664   2.384
 1665TIP3   OH2 4937   7.248   6.327   3.845
 1665TIP3    H1 4938   7.153   6.335   3.842
 1665TIP3    H2 4939   7.276   6.336   3.754
 1666TIP3   OH2 4940   5.910   2.549   2.187
 1666TIP3    H1 4941   5.833   2.517   2.235
 1666TIP3    H2 4942   5.875   2.578   2.103
 1667TIP3   OH2 4943   6.102   5.538   0.124
 1667TIP3    H1 4944   6.131   5.566   0.037
 1667TIP3    H2 4945   6.164   5.470   0.149
 1668TIP3   OH2 4946   6.521   3.644   1.248
 1668TIP3    H1 4947   6.516   3.568   1.190
 1668TIP3    H2 4948   6.567   3.711   1.197
 1669TIP3   OH2 4949   1.215   4.114   1.008
 1669TIP3    H1 4950   1.120   4.121   1.020
 1669TIP3    H2 4951   1.227   4.125   0.914
 1670TIP3   OH2 4952   1.883   0.033   4.319
 1670TIP3    H1 4953   1.890   0.122   4.354
 1670TIP3    H2 4954   1.964   0.019   4.271
 1671TIP3   OH2 4955   4.546   7.512   4.615
 1671TIP3    H1 4956   4.562   7.541   4.705
 1671TIP3    H2 4957   4.507   7.425   4.624
 1672TIP3   OH2 4958   4.153   0.642   0.541
 1672TIP3    H1 4959   4.150   0.645   0.636
 1672TIP3    H2 4960   4.208   0.716   0.516
 1673TIP3   OH2 4961   0.622   2.693   4.243
 1673TIP3    H1 4962   0.613   2.671   4.335
 1673TIP3    H2 4963   0.575   2.624   4.196
 1674TIP3   OH2 4964   3.753   3.339   2.925
 1674TIP3    H1 4965   3.808   3.371   2.996
 1674TIP3    H2 4966   3.792   3.375   2.845
 1675TIP3   OH2 4967   3.007   6.251   2.960
 1675TIP3    H1 4968   3.095   6.215   2.957
 1675TIP3    H2 4969   2.949   6.177   2.943
 1676TIP3   OH2 4970   8.021   3.574   0.651
 1676TIP3    H1 4971   7.981   3.646   0.603
 1676TIP3    H2 4972   7.984   3.495   0.611
 1677TIP3   OH2 4973   1.920   0.513   5.669
 1677TIP3    H1 4974   1.850   0.577   5.656
 1677TIP3    H2 4975   1.885   0.431   5.634
 1678TIP3   OH2 4976   3.118   1.507   5.585
 1678TIP3    H1 4977   3.181   1.540   5.649
 1678TIP3    H2 4978   3.038   1.491   5.635
 1679TIP3   OH2 4979   0.326   6.377   5.385
 1679TIP3    H1 4980   0.376   6.458   5.395
 1679TIP3    H2 4981   0.381   6.321   5.330
 1680TIP3   OH2 4982   3.609   3.002   5.698
 1680TIP3    H1 4983   3.640   3.084   5.736
 1680TIP3    H2 4984   3.520   3.023   5.668
 1681TIP3   OH2 4985   2.615   2.180   1.172
 1681TIP3    H1 4986   2.627   2.093   1.135
 1681TIP3    H2 4987   2.545   2.170   1.237
 1682TIP3   OH2 4988   7.953   5.430   4.067
 1682TIP3    H1 4989   8.038   5.424   4.110
 1682TIP3    H2 4990   7.973   5.454   3.977
 1683TIP3   OH2 4991   0.938   3.855   5.348
 1683TIP3    H1 4992   0.977   3.928   5.395
 1683TIP3    H2 4993   0.978   3.777   5.386
 1684TIP3   OH2 4994   5.098   0.367   6.792
 1684TIP3    H1 4995   5.112   0.355   6.699
 1684TIP3    H2 4996   5.076   0.279   6.825
 1685TIP3   OH2 4997   6.959   4.774   1.504
 1685TIP3    H1 4998   6.881   4.726   1.533
 1685TIP3    H2 4999   7.007   4.793   1.585
 1686TIP3   OH2 5000   1.021   0.449   4.543
 1686TIP3    H1 5001   1.017   0.433   4.637
 1686TIP3    H2 5002   1.024   0.544   4.534
 1687TIP3   OH2 5003   7.361   0.975   4.285
 1687TIP3    H1 5004   7.352   1.064   4.318
 1687TIP3    H2 5005   7.339   0.980   4.192
 1688TIP3   OH2 5006   3.455   1.428   6.460
 1688TIP3    H1 5007   3.516   1.496   6.490
 1688TIP3    H2 5008   3.483   1.408   6.371
 1689TIP3   OH2 5009   3.793   5.360   6.217
 1689TIP3    H1 5010   3.736   5.313   6.156
 1689TIP3    H2 5011   3.748   5.442   6.234
 1690TIP3   OH2 5012   6.459   1.328   1.850
 1690TIP3    H1 5013   6.486   1.275   1.925
 1690TIP3    H2 5014   6.531   1.319   1.787
 1691TIP3   OH2 5015   7.933   5.036   2.270
 1691TIP3    H1 5016   7.966   5.086   2.344
 1691TIP3    H2 5017   7.846   5.008   2.297
 1692TIP3   OH2 5018   0.704   3.004   1.826
 1692TIP3    H1 5019   0.765   3.066   1.865
 1692TIP3    H2 5020   0.708   3.021   1.732
 1693TIP3   OH2 5021   7.153   1.688   0.003
 1693TIP3    H1 5022   7.191   1.744   0.071
 1693TIP3    H2 5023   7.084   1.640   0.048
 1694TIP3   OH2 5024   3.167   2.723   5.864
 1694TIP3    H1 5025   3.186   2.737   5.957
 1694TIP3    H2 5026   3.246   2.679   5.830
 1695TIP3   OH2 5027   2.220   5.099   6.176
 1695TIP3    H1 5028   2.306   5.099   6.219
 1695TIP3    H2 5029   2.241   5.090   6.083
 1696TIP3   OH2 5030   4.317   4.982   3.394
 1696TIP3    H1 5031   4.318   5.077   3.401
 1696TIP3    H2 5032   4.342   4.952   3.482
 1697TIP3   OH2 5033   7.219   7.581   0.765
 1697TIP3    H1 5034   7.151   7.622   0.818
 1697TIP3    H2 5035   7.270   7.654   0.730
 1698TIP3   OH2 5036   1.597   4.709   2.635
 1698TIP3    H1 5037   1.599   4.686   2.728
 1698TIP3    H2 5038   1.606   4.804   2.634
 1699TIP3   OH2 5039   5.073   6.922   2.088
 1699TIP3    H1 5040   5.107   6.884   2.169
 1699TIP3    H2 5041   5.046   6.847   2.036
 1700TIP3   OH2 5042   5.223   5.268   6.203
 1700TIP3    H1 5043   5.255   5.284   6.114
 1700TIP3    H2 5044   5.273   5.329   6.258
 1701TIP3   OH2 5045   6.644   3.443   4.212
 1701TIP3    H1 5046   6.667   3.424   4.303
 1701TIP3    H2 5047   6.548   3.442   4.211
 1702TIP3   OH2 5048   5.806   3.935   4.654
 1702TIP3    H1 5049   5.812   3.851   4.698
 1702TIP3    H2 5050   5.724   3.931   4.605
 1703TIP3   OH2 5051   6.858   6.784   5.892
 1703TIP3    H1 5052   6.819   6.777   5.979
 1703TIP3    H2 5053   6.828   6.869   5.859
 1704TIP3   OH2 5054   3.240   5.213   6.457
 1704TIP3    H1 5055   3.319   5.245   6.499
 1704TIP3    H2 5056   3.175   5.282   6.472
 1705TIP3   OH2 5057   6.024   0.699   1.459
 1705TIP3    H1 5058   6.072   0.683   1.540
 1705TIP3    H2 5059   5.968   0.622   1.449
 1706TIP3   OH2 5060   1.291   1.718   5.103
 1706TIP3    H1 5061   1.298   1.787   5.169
 1706TIP3    H2 5062   1.268   1.764   5.022
 1707TIP3   OH2 5063   5.400   3.078   5.838
 1707TIP3    H1 5064   5.351   2.997   5.857
 1707TIP3    H2 5065   5.369   3.140   5.904
 1708TIP3   OH2 5066   4.391   5.182   6.511
 1708TIP3    H1 5067   4.486   5.175   6.519
 1708TIP3    H2 5068   4.365   5.243   6.580
 1709TIP3   OH2 5069   4.855   6.716   6.356
 1709TIP3    H1 5070   4.813   6.690   6.438
 1709TIP3    H2 5071   4.873   6.634   6.311
 1710TIP3   OH2 5072   2.492   6.807   5.662
 1710TIP3    H1 5073   2.512   6.725   5.707
 1710TIP3    H2 5074   2.463   6.866   5.732
 1711TIP3   OH2 5075   5.147   7.312   4.919
 1711TIP3    H1 5076   5.178   7.227   4.948
 1711TIP3    H2 5077   5.061   7.322   4.960
 1712TIP3   OH2 5078   2.084   7.716   5.194
 1712TIP3    H1 5079   2.063   7.786   5.132
 1712TIP3    H2 5080   2.090   7.637   5.140
 1713TIP3   OH2 5081   4.123   0.483   2.582
 1713TIP3    H1 5082   4.074   0.474   2.663
 1713TIP3    H2 5083   4.125   0.394   2.545
 1714TIP3   OH2 5084   6.803   0.419   1.843
 1714TIP3    H1 5085   6.782   0.406   1.751
 1714TIP3    H2 5086   6.877   0.360   1.860
 1715TIP3   OH2 5087   4.969   2.858   4.040
 1715TIP3    H1 5088   4.931   2.773   4.059
 1715TIP3    H2 5089   5.045   2.840   3.986
 1716TIP3   OH2 5090   0.883   4.951   0.311
 1716TIP3    H1 5091   0.944   4.914   0.247
 1716TIP3    H2 5092   0.797   4.940   0.270
 1717TIP3   OH2 5093   3.453   1.757   3.359
 1717TIP3    H1 5094   3.362   1.729   3.364
 1717TIP3    H2 5095   3.489   1.709   3.284
 1718TIP3   OH2 5096   1.911   7.336   2.810
 1718TIP3    H1 5097   1.946   7.251   2.783
 1718TIP3    H2 5098   1.970   7.400   2.769
 1719TIP3   OH2 5099   8.045   0.964   1.523
 1719TIP3    H1 5100   8.041   1.037   1.462
 1719TIP3    H2 5101   8.036   0.886   1.468
 1720TIP3   OH2 5102   1.389   4.838   4.071
 1720TIP3    H1 5103   1.309   4.806   4.112
 1720TIP3    H2 5104   1.380   4.814   3.979
 1721TIP3   OH2 5105   0.584   4.948   4.738
 1721TIP3    H1 5106   0.563   5.035   4.772
 1721TIP3    H2 5107   0.571   4.890   4.813
 1722TIP3   OH2 5108   0.571   2.003   0.145
 1722TIP3    H1 5109   0.626   2.064   0.096
 1722TIP3    H2 5110   0.619   1.920   0.143
 1723TIP3   OH2 5111   1.886   1.460   3.404
 1723TIP3    H1 5112   1.797   1.471   3.437
 1723TIP3    H2 5113   1.943   1.489   3.475
 1724TIP3   OH2 5114   0.406   1.031   2.607
 1724TIP3    H1 5115   0.458   1.110   2.591
 1724TIP3    H2 5116   0.470   0.965   2.632
 1725TIP3   OH2 5117   7.240   2.772   1.878
 1725TIP3    H1 5118   7.174   2.707   1.854
 1725TIP3    H2 5119   7.306   2.722   1.925
 1726TIP3   OH2 5120   3.227   6.660   5.244
 1726TIP3    H1 5121   3.139   6.676   5.277
 1726TIP3    H2 5122   3.219   6.666   5.149
 1727TIP3   OH2 5123   2.014   3.429   3.474
 1727TIP3    H1 5124   2.066   3.351   3.460
 1727TIP3    H2 5125   1.924   3.397   3.481
 1728TIP3   OH2 5126   7.569   2.272   5.678
 1728TIP3    H1 5127   7.505   2.214   5.719
 1728TIP3    H2 5128   7.600   2.222   5.602
 1729TIP3   OH2 5129   5.567   0.941   2.713
 1729TIP3    H1 5130   5.587   0.889   2.635
 1729TIP3    H2 5131   5.472   0.957   2.706
 1730TIP3   OH2 5132   3.789   1.024   3.799
 1730TIP3    H1 5133   3.765   0.962   3.730
 1730TIP3    H2 5134   3.882   1.007   3.815
 1731TIP3   OH2 5135   1.178   2.335   5.269
 1731TIP3    H1 5136   1.199   2.421   5.305
 1731TIP3    H2 5137   1.101   2.350   5.215
 1732TIP3   OH2 5138   6.953   4.434   5.194
 1732TIP3    H1 5139   6.949   4.388   5.278
 1732TIP3    H2 5140   6.915   4.372   5.131
 1733TIP3   OH2 5141   1.808   4.414   1.823
 1733TIP3    H1 5142   1.892   4.445   1.858
 1733TIP3    H2 5143   1.832   4.347   1.759
 1734TIP3   OH2 5144   4.740   0.506   6.834
 1734TIP3    H1 5145   4.792   0.470   6.762
 1734TIP3    H2 5146   4.706   0.589   6.800
 1735TIP3   OH2 5147   5.173   6.857   2.340
 1735TIP3    H1 5148   5.186   6.950   2.357
 1735TIP3    H2 5149   5.126   6.824   2.416
 1736TIP3   OH2 5150   5.015   5.645   2.768
 1736TIP3    H1 5151   4.929   5.672   2.735
 1736TIP3    H2 5152   5.077   5.708   2.731
 1737TIP3   OH2 5153   0.805   7.639   5.778
 1737TIP3    H1 5154   0.831   7.729   5.755
 1737TIP3    H2 5155   0.848   7.622   5.862
 1738TIP3   OH2 5156   0.887   3.526   4.118
 1738TIP3    H1 5157   0.949   3.591   4.085
 1738TIP3    H2 5158   0.812   3.578   4.147
 1739TIP3   OH2 5159   6.285   0.749   2.509
 1739TIP3    H1 5160   6.332   0.677   2.466
 1739TIP3    H2 5161   6.333   0.828   2.484
 1740TIP3   OH2 5162   1.649   6.865   6.267
 1740TIP3    H1 5163   1.667   6.771   6.269
 1740TIP3    H2 5164   1.718   6.901   6.211
 1741TIP3   OH2 5165   5.400   6.879   2.870
 1741TIP3    H1 5166   5.453   6.959   2.871
 1741TIP3    H2 5167   5.311   6.911   2.850
 1742TIP3   OH2 5168   0.756   7.407   5.157
 1742TIP3    H1 5169   0.768   7.397   5.252
 1742TIP3    H2 5170   0.781   7.322   5.121
 1743TIP3   OH2 5171   1.296   5.824   4.655
 1743TIP3    H1 5172   1.271   5.734   4.675
 1743TIP3    H2 5173   1.382   5.834   4.696
 1744TIP3   OH2 5174   4.821   7.728   5.869
 1744TIP3    H1 5175   4.871   7.808   5.853
 1744TIP3    H2 5176   4.731   7.759   5.884
 1745TIP3   OH2 5177   5.461   0.625   4.407
 1745TIP3    H1 5178   5.445   0.710   4.447
 1745TIP3    H2 5179   5.532   0.587   4.460
 1746TIP3   OH2 5180   1.302   1.405   6.024
 1746TIP3    H1 5181   1.353   1.397   6.104
 1746TIP3    H2 5182   1.368   1.421   5.956
 1747TIP3   OH2 5183   5.045   6.224   6.562
 1747TIP3    H1 5184   5.119   6.199   6.507
 1747TIP3    H2 5185   5.080   6.222   6.651
 1748TIP3   OH2 5186   5.626   7.576   1.227
 1748TIP3    H1 5187   5.711   7.600   1.188
 1748TIP3    H2 5188   5.648   7.553   1.318
 1749TIP3   OH2 5189   3.175   4.164   4.190
 1749TIP3    H1 5190   3.128   4.087   4.222
 1749TIP3    H2 5191   3.267   4.136   4.188
 1750TIP3   OH2 5192   3.444   7.321   2.720
 1750TIP3    H1 5193   3.425   7.387   2.653
 1750TIP3    H2 5194   3.361   7.312   2.768
 1751TIP3   OH2 5195   4.369   0.607   3.429
 1751TIP3    H1 5196   4.357   0.695   3.394
 1751TIP3    H2 5197   4.287   0.561   3.408
 1752TIP3   OH2 5198   0.391   5.986   2.113
 1752TIP3    H1 5199   0.433   5.948   2.190
 1752TIP3    H2 5200   0.452   6.053   2.083
 1753TIP3   OH2 5201   5.246   7.323   1.233
 1753TIP3    H1 5202   5.176   7.277   1.280
 1753TIP3    H2 5203   5.235   7.414   1.258
 1754TIP3   OH2 5204   5.976   7.845   0.495
 1754TIP3    H1 5205   6.000   7.761   0.457
 1754TIP3    H2 5206   5.901   7.826   0.552
 1755TIP3   OH2 5207   4.778   4.033   1.609
 1755TIP3    H1 5208   4.775   4.117   1.655
 1755TIP3    H2 5209   4.858   4.037   1.557
 1756TIP3   OH2 5210   6.480   1.295   2.272
 1756TIP3    H1 5211   6.473   1.265   2.181
 1756TIP3    H2 5212   6.403   1.258   2.315
 1757TIP3   OH2 5213   2.489   6.561   0.360
 1757TIP3    H1 5214   2.539   6.525   0.433
 1757TIP3    H2 5215   2.472   6.652   0.384
 1758TIP3   OH2 5216   1.546   4.423   4.947
 1758TIP3    H1 5217   1.557   4.517   4.932
 1758TIP3    H2 5218   1.567   4.411   5.040
 1759TIP3   OH2 5219   2.580   6.473   0.635
 1759TIP3    H1 5220   2.530   6.486   0.716
 1759TIP3    H2 5221   2.608   6.560   0.609
 1760TIP3   OH2 5222   4.843   5.961   6.222
 1760TIP3    H1 5223   4.850   5.935   6.131
 1760TIP3    H2 5224   4.850   6.056   6.221
 1761TIP3   OH2 5225   2.110   3.151   0.251
 1761TIP3    H1 5226   2.025   3.189   0.275
 1761TIP3    H2 5227   2.174   3.207   0.294
 1762TIP3   OH2 5228   6.786   5.645   2.012
 1762TIP3    H1 5229   6.722   5.677   1.949
 1762TIP3    H2 5230   6.770   5.696   2.091
 1763TIP3   OH2 5231   4.870   4.863   2.309
 1763TIP3    H1 5232   4.906   4.802   2.373
 1763TIP3    H2 5233   4.797   4.906   2.355
 1764TIP3   OH2 5234   5.346   2.593   3.977
 1764TIP3    H1 5235   5.377   2.679   3.948
 1764TIP3    H2 5236   5.421   2.535   3.966
 1765TIP3   OH2 5237   5.974   2.704   3.669
 1765TIP3    H1 5238   6.065   2.721   3.645
 1765TIP3    H2 5239   5.974   2.615   3.703
 1766TIP3   OH2 5240   5.206   5.758   3.110
 1766TIP3    H1 5241   5.295   5.793   3.120
 1766TIP3    H2 5242   5.150   5.829   3.141
 1767TIP3   OH2 5243   5.319   1.764   3.456
 1767TIP3    H1 5244   5.329   1.854   3.486
 1767TIP3    H2 5245   5.328   1.711   3.535
 1768TIP3   OH2 5246   4.912   7.796   1.802
 1768TIP3    H1 5247   4.993   7.766   1.844
 1768TIP3    H2 5248   4.843   7.766   1.861
 1769TIP3   OH2 5249   4.572   0.082   0.369
 1769TIP3    H1 5250   4.526   0.057   0.449
 1769TIP3    H2 5251   4.502   0.097   0.305
 1770TIP3   OH2 5252   5.470   1.258   6.367
 1770TIP3    H1 5253   5.505   1.245   6.455
 1770TIP3    H2 5254   5.380   1.288   6.381
 1771TIP3   OH2 5255   4.349   2.369   5.113
 1771TIP3    H1 5256   4.401   2.389   5.190
 1771TIP3    H2 5257   4.270   2.421   5.123
 1772TIP3   OH2 5258   4.717   1.543   3.748
 1772TIP3    H1 5259   4.785   1.488   3.708
 1772TIP3    H2 5260   4.761   1.585   3.822
 1773TIP3   OH2 5261   3.816   4.853   3.519
 1773TIP3    H1 5262   3.840   4.854   3.612
 1773TIP3    H2 5263   3.876   4.915   3.478
 1774TIP3   OH2 5264   3.552   2.203   6.349
 1774TIP3    H1 5265   3.519   2.227   6.262
 1774TIP3    H2 5266   3.527   2.112   6.360
 1775TIP3   OH2 5267   5.367   2.487   6.164
 1775TIP3    H1 5268   5.328   2.556   6.110
 1775TIP3    H2 5269   5.292   2.446   6.206
 1776TIP3   OH2 5270   3.949   5.956   4.100
 1776TIP3    H1 5271   3.996   6.036   4.078
 1776TIP3    H2 5272   3.985   5.930   4.185
 1777TIP3   OH2 5273   4.941   3.305   0.860
 1777TIP3    H1 5274   4.867   3.352   0.899
 1777TIP3    H2 5275   5.011   3.371   0.856
 1778TIP3   OH2 5276   7.652   1.071   6.141
 1778TIP3    H1 5277   7.586   1.051   6.075
 1778TIP3    H2 5278   7.603   1.111   6.213
 1779TIP3   OH2 5279   1.832   3.000   0.967
 1779TIP3    H1 5280   1.911   2.958   0.932
 1779TIP3    H2 5281   1.771   2.928   0.983
 1780TIP3   OH2 5282   4.271   2.957   1.634
 1780TIP3    H1 5283   4.278   3.045   1.598
 1780TIP3    H2 5284   4.331   2.956   1.709
 1781TIP3   OH2 5285   0.122   4.453   5.135
 1781TIP3    H1 5286   0.111   4.404   5.054
 1781TIP3    H2 5287   0.185   4.402   5.186
 1782TIP3   OH2 5288   0.256   2.753   0.274
 1782TIP3    H1 5289   0.243   2.788   0.362
 1782TIP3    H2 5290   0.182   2.788   0.224
 1783TIP3   OH2 5291   1.959   4.475   0.330
 1783TIP3    H1 5292   1.943   4.554   0.280
 1783TIP3    H2 5293   1.897   4.411   0.294
 1784TIP3   OH2 5294   3.848   4.590   2.252
 1784TIP3    H1 5295   3.797   4.651   2.198
 1784TIP3    H2 5296   3.841   4.626   2.341
 1785TIP3   OH2 5297   6.006   3.214   5.484
 1785TIP3    H1 5298   5.917   3.215   5.448
 1785TIP3    H2 5299   6.045   3.133   5.450
 1786TIP3   OH2 5300   6.630   4.590   0.235
 1786TIP3    H1 5301   6.674   4.628   0.312
 1786TIP3    H2 5302   6.651   4.650   0.164
 1787TIP3   OH2 5303   7.669   1.239   6.522
 1787TIP3    H1 5304   7.673   1.159   6.470
 1787TIP3    H2 5305   7.612   1.297   6.471
 1788TIP3   OH2 5306   7.563   0.836   4.387
 1788TIP3    H1 5307   7.498   0.896   4.350
 1788TIP3    H2 5308   7.631   0.829   4.321
 1789TIP3   OH2 5309   3.298   4.592   6.677
 1789TIP3    H1 5310   3.246   4.568   6.601
 1789TIP3    H2 5311   3.329   4.681   6.658
 1790TIP3   OH2 5312   4.026   6.977   6.603
 1790TIP3    H1 5313   3.958   7.042   6.584
 1790TIP3    H2 5314   3.986   6.917   6.665
 1791TIP3   OH2 5315   1.718   3.436   3.268
 1791TIP3    H1 5316   1.791   3.495   3.250
 1791TIP3    H2 5317   1.741   3.355   3.222
 1792TIP3   OH2 5318   2.626   3.668   3.098
 1792TIP3    H1 5319   2.721   3.670   3.087
 1792TIP3    H2 5320   2.592   3.652   3.010
 1793TIP3   OH2 5321   3.637   5.094   4.723
 1793TIP3    H1 5322   3.554   5.110   4.768
 1793TIP3    H2 5323   3.615   5.027   4.657
 1794TIP3   OH2 5324   1.065   1.965   5.833
 1794TIP3    H1 5325   1.011   1.887   5.844
 1794TIP3    H2 5326   1.155   1.932   5.829
 1795TIP3   OH2 5327   1.198   5.981   4.089
 1795TIP3    H1 5328   1.252   5.968   4.011
 1795TIP3    H2 5329   1.176   5.893   4.119
 1796TIP3   OH2 5330   3.037   1.287   5.434
 1796TIP3    H1 5331   3.064   1.207   5.479
 1796TIP3    H2 5332   3.088   1.356   5.476
 1797TIP3   OH2 5333   0.946   0.843   4.233
 1797TIP3    H1 5334   0.989   0.808   4.311
 1797TIP3    H2 5335   0.997   0.808   4.160
 1798TIP3   OH2 5336   7.014   6.318   5.895
 1798TIP3    H1 5337   7.008   6.413   5.884
 1798TIP3    H2 5338   7.060   6.306   5.978
 1799TIP3   OH2 5339   5.760   2.932   5.056
 1799TIP3    H1 5340   5.732   3.004   5.111
 1799TIP3    H2 5341   5.731   2.955   4.968
 1800TIP3   OH2 5342   5.451   5.699   4.910
 1800TIP3    H1 5343   5.360   5.669   4.908
 1800TIP3    H2 5344   5.467   5.732   4.822
 1801TIP3   OH2 5345   7.882   2.672   0.769
 1801TIP3    H1 5346   7.975   2.660   0.791
 1801TIP3    H2 5347   7.839   2.691   0.852
 1802TIP3   OH2 5348   2.516   7.514   1.349
 1802TIP3    H1 5349   2.435   7.467   1.332
 1802TIP3    H2 5350   2.489   7.606   1.358
 1803TIP3   OH2 5351   1.224   5.602   6.571
 1803TIP3    H1 5352   1.193   5.602   6.661
 1803TIP3    H2 5353   1.317   5.623   6.577
 1804TIP3   OH2 5354   1.172   6.278   4.612
 1804TIP3    H1 5355   1.166   6.220   4.688
 1804TIP3    H2 5356   1.191   6.365   4.650
 1805TIP3   OH2 5357   5.595   1.220   3.241
 1805TIP3    H1 5358   5.606   1.142   3.186
 1805TIP3    H2 5359   5.585   1.185   3.329
 1806TIP3   OH2 5360   7.528   7.409   2.086
 1806TIP3    H1 5361   7.460   7.434   2.149
 1806TIP3    H2 5362   7.604   7.461   2.110
 1807TIP3   OH2 5363   5.204   2.820   0.809
 1807TIP3    H1 5364   5.128   2.863   0.848
 1807TIP3    H2 5365   5.237   2.883   0.746
 1808TIP3   OH2 5366   3.661   3.683   1.275
 1808TIP3    H1 5367   3.578   3.696   1.229
 1808TIP3    H2 5368   3.713   3.760   1.253
 1809TIP3   OH2 5369   7.823   5.191   4.002
 1809TIP3    H1 5370   7.757   5.138   4.047
 1809TIP3    H2 5371   7.832   5.269   4.056
 1810TIP3   OH2 5372   6.999   2.061   4.322
 1810TIP3    H1 5373   6.983   1.976   4.364
 1810TIP3    H2 5374   7.093   2.065   4.309
 1811TIP3   OH2 5375   6.812   6.463   2.769
 1811TIP3    H1 5376   6.832   6.540   2.716
 1811TIP3    H2 5377   6.892   6.411   2.767
 1812TIP3   OH2 5378   5.190   2.102   0.960
 1812TIP3    H1 5379   5.117   2.163   0.964
 1812TIP3    H2 5380   5.257   2.149   0.909
 1813TIP3   OH2 5381   1.466   6.343   2.698
 1813TIP3    H1 5382   1.376   6.375   2.695
 1813TIP3    H2 5383   1.492   6.355   2.789
 1814TIP3   OH2 5384   4.211   5.545   1.626
 1814TIP3    H1 5385   4.247   5.568   1.540
 1814TIP3    H2 5386   4.179   5.455   1.615
 1815TIP3   OH2 5387   0.218   1.249   3.745
 1815TIP3    H1 5388   0.305   1.260   3.783
 1815TIP3    H2 5389   0.168   1.202   3.812
 1816TIP3   OH2 5390   2.644   0.782   4.632
 1816TIP3    H1 5391   2.661   0.806   4.542
 1816TIP3    H2 5392   2.725   0.742   4.662
 1817TIP3   OH2 5393   4.544   3.609   1.757
 1817TIP3    H1 5394   4.544   3.703   1.776
 1817TIP3    H2 5395   4.492   3.570   1.826
 1818TIP3   OH2 5396   6.490   6.428   2.365
 1818TIP3    H1 5397   6.424   6.364   2.338
 1818TIP3    H2 5398   6.566   6.375   2.390
 1819TIP3   OH2 5399   2.808   4.986   4.592
 1819TIP3    H1 5400   2.743   4.940   4.538
 1819TIP3    H2 5401   2.846   4.918   4.647
 1820TIP3   OH2 5402   7.353   3.741   0.438
 1820TIP3    H1 5403   7.304   3.750   0.520
 1820TIP3    H2 5404   7.445   3.739   0.466
 1821TIP3   OH2 5405   2.697   2.730   2.649
 1821TIP3    H1 5406   2.776   2.742   2.701
 1821TIP3    H2 5407   2.664   2.644   2.676
 1822TIP3   OH2 5408   5.853   5.503   5.732
 1822TIP3    H1 5409   5.942   5.477   5.707
 1822TIP3    H2 5410   5.859   5.597   5.745
 1823TIP3   OH2 5411   2.144   0.092   2.441
 1823TIP3    H1 5412   2.067   0.117   2.491
 1823TIP3    H2 5413   2.176   0.174   2.403
 1824TIP3   OH2 5414   3.353   6.086   1.188
 1824TIP3    H1 5415   3.287   6.052   1.249
 1824TIP3    H2 5416   3.317   6.169   1.157
 1825TIP3   OH2 5417   3.538   0.990   6.403
 1825TIP3    H1 5418   3.483   1.023   6.332
 1825TIP3    H2 5419   3.586   1.067   6.433
 1826TIP3   OH2 5420   1.057   7.112   3.463
 1826TIP3    H1 5421   1.106   7.030   3.457
 1826TIP3    H2 5422   0.965   7.087   3.452
 1827TIP3   OH2 5423   3.259   5.619   4.075
 1827TIP3    H1 5424   3.316   5.629   4.151
 1827TIP3    H2 5425   3.171   5.637   4.108
 1828TIP3   OH2 5426   7.629   0.481   5.768
 1828TIP3    H1 5427   7.545   0.482   5.815
 1828TIP3    H2 5428   7.690   0.525   5.827
 1829TIP3   OH2 5429   2.276   1.200   4.778
 1829TIP3    H1 5430   2.243   1.164   4.860
 1829TIP3    H2 5431   2.370   1.214   4.793
 1830TIP3   OH2 5432   1.705   4.323   3.073
 1830TIP3    H1 5433   1.754   4.256   3.024
 1830TIP3    H2 5434   1.716   4.298   3.165
 1831TIP3   OH2 5435   7.375   3.522   4.536
 1831TIP3    H1 5436   7.395   3.613   4.558
 1831TIP3    H2 5437   7.453   3.473   4.563
 1832TIP3   OH2 5438   2.533   3.510   5.919
 1832TIP3    H1 5439   2.438   3.528   5.918
 1832TIP3    H2 5440   2.564   3.554   5.997
 1833TIP3   OH2 5441   1.425   7.594   6.227
 1833TIP3    H1 5442   1.436   7.629   6.316
 1833TIP3    H2 5443   1.445   7.668   6.169
 1834TIP3   OH2 5444   1.758   2.626   0.362
 1834TIP3    H1 5445   1.798   2.587   0.284
 1834TIP3    H2 5446   1.664   2.611   0.350
 1835TIP3   OH2 5447   3.251   4.273   3.487
 1835TIP3    H1 5448   3.335   4.280   3.442
 1835TIP3    H2 5449   3.209   4.197   3.447
 1836TIP3   OH2 5450   3.443   5.654   3.041
 1836TIP3    H1 5451   3.391   5.725   3.079
 1836TIP3    H2 5452   3.509   5.634   3.107
 1837TIP3   OH2 5453   1.776   2.470   3.096
 1837TIP3    H1 5454   1.848   2.516   3.139
 1837TIP3    H2 5455   1.817   2.425   3.022
 1838TIP3   OH2 5456   2.743   7.403   4.282
 1838TIP3    H1 5457   2.820   7.347   4.269
 1838TIP3    H2 5458   2.677   7.365   4.224
 1839TIP3   OH2 5459   2.621   0.631   6.230
 1839TIP3    H1 5460   2.694   0.670   6.278
 1839TIP3    H2 5461   2.661   0.595   6.151
 1840TIP3   OH2 5462   1.145   7.096   2.803
 1840TIP3    H1 5463   1.075   7.138   2.854
 1840TIP3    H2 5464   1.124   7.116   2.712
 1841TIP3   OH2 5465   1.740   7.262   0.622
 1841TIP3    H1 5466   1.748   7.337   0.680
 1841TIP3    H2 5467   1.726   7.187   0.680
 1842TIP3   OH2 5468   7.405   6.362   5.955
 1842TIP3    H1 5469   7.496   6.350   5.981
 1842TIP3    H2 5470   7.403   6.448   5.913
 1843TIP3   OH2 5471   5.911   1.382   3.166
 1843TIP3    H1 5472   5.906   1.473   3.197
 1843TIP3    H2 5473   5.908   1.329   3.246
 1844TIP3   OH2 5474   1.085   5.300   1.504
 1844TIP3    H1 5475   1.099   5.297   1.410
 1844TIP3    H2 5476   1.008   5.355   1.515
 1845TIP3   OH2 5477   4.156   7.863   1.072
 1845TIP3    H1 5478   4.130   7.878   0.981
 1845TIP3    H2 5479   4.115   7.780   1.096
 1846TIP3   OH2 5480   0.090   4.091   3.610
 1846TIP3    H1 5481   0.110   4.012   3.560
 1846TIP3    H2 5482   0.175   4.135   3.619
 1847TIP3   OH2 5483   0.082   1.680   2.634
 1847TIP3    H1 5484  -0.011   1.671   2.612
 1847TIP3    H2 5485   0.086   1.661   2.727
 1848TIP3   OH2 5486   7.715   5.554   4.125
 1848TIP3    H1 5487   7.795   5.504   4.115
 1848TIP3    H2 5488   7.712   5.611   4.049
 1849TIP3   OH2 5489   1.700   0.760   6.703
 1849TIP3    H1 5490   1.731   0.812   6.628
 1849TIP3    H2 5491   1.769   0.771   6.769
 1850TIP3   OH2 5492   5.187   5.500   3.249
 1850TIP3    H1 5493   5.282   5.491   3.250
 1850TIP3    H2 5494   5.166   5.524   3.159
 1851TIP3   OH2 5495   7.733   6.883   4.103
 1851TIP3    H1 5496   7.809   6.937   4.124
 1851TIP3    H2 5497   7.684   6.935   4.040
 1852TIP3   OH2 5498   8.241   6.218   2.948
 1852TIP3    H1 5499   8.216   6.267   2.870
 1852TIP3    H2 5500   8.164   6.163   2.967
 1853TIP3   OH2 5501   1.436   2.665   4.622
 1853TIP3    H1 5502   1.436   2.713   4.705
 1853TIP3    H2 5503   1.451   2.733   4.556
 1854TIP3   OH2 5504   7.463   6.195   1.026
 1854TIP3    H1 5505   7.455   6.285   0.997
 1854TIP3    H2 5506   7.556   6.184   1.048
 1855TIP3   OH2 5507   0.906   5.181   0.523
 1855TIP3    H1 5508   0.822   5.189   0.567
 1855TIP3    H2 5509   0.892   5.116   0.455
 1856TIP3   OH2 5510   4.851   1.315   1.768
 1856TIP3    H1 5511   4.887   1.369   1.698
 1856TIP3    H2 5512   4.859   1.225   1.735
 1857TIP3   OH2 5513   2.650   6.410   0.175
 1857TIP3    H1 5514   2.592   6.456   0.235
 1857TIP3    H2 5515   2.621   6.319   0.179
 1858TIP3   OH2 5516   6.992   1.716   6.654
 1858TIP3    H1 5517   7.003   1.695   6.561
 1858TIP3    H2 5518   7.027   1.639   6.700
 1859TIP3   OH2 5519   0.438   3.894   3.729
 1859TIP3    H1 5520   0.476   3.892   3.641
 1859TIP3    H2 5521   0.440   3.803   3.757
 1860TIP3   OH2 5522   7.675   0.901   1.377
 1860TIP3    H1 5523   7.717   0.986   1.371
 1860TIP3    H2 5524   7.743   0.842   1.410
 1861TIP3   OH2 5525   6.380   3.729   5.558
 1861TIP3    H1 5526   6.299   3.708   5.513
 1861TIP3    H2 5527   6.431   3.648   5.557
 1862TIP3   OH2 5528   6.109   3.056   2.734
 1862TIP3    H1 5529   6.123   3.030   2.825
 1862TIP3    H2 5530   6.181   3.116   2.715
 1863TIP3   OH2 5531   8.256   4.450   2.966
 1863TIP3    H1 5532   8.312   4.487   2.898
 1863TIP3    H2 5533   8.271   4.355   2.961
 1864TIP3   OH2 5534   1.862   3.796   3.678
 1864TIP3    H1 5535   1.885   3.837   3.761
 1864TIP3    H2 5536   1.805   3.860   3.635
 1865TIP3   OH2 5537   2.780   5.260   1.465
 1865TIP3    H1 5538   2.704   5.207   1.491
 1865TIP3    H2 5539   2.753   5.350   1.484
 1866TIP3   OH2 5540   5.090   5.378   1.591
 1866TIP3    H1 5541   5.104   5.292   1.632
 1866TIP3    H2 5542   5.029   5.422   1.650
 1867TIP3   OH2 5543   4.325   6.905   6.674
 1867TIP3    H1 5544   4.249   6.961   6.689
 1867TIP3    H2 5545   4.342   6.911   6.580
 1868TIP3   OH2 5546   6.752   5.618   6.106
 1868TIP3    H1 5547   6.739   5.691   6.166
 1868TIP3    H2 5548   6.708   5.644   6.025
 1869TIP3   OH2 5549   6.112   7.537   5.511
 1869TIP3    H1 5550   6.078   7.449   5.497
 1869TIP3    H2 5551   6.079   7.562   5.598
 1870TIP3   OH2 5552   6.331   0.115   0.366
 1870TIP3    H1 5553   6.378   0.097   0.285
 1870TIP3    H2 5554   6.239   0.118   0.341
 1871TIP3   OH2 5555   0.240   3.775   1.589
 1871TIP3    H1 5556   0.206   3.702   1.537
 1871TIP3    H2 5557   0.289   3.827   1.527
 1872TIP3   OH2 5558   3.268   2.624   2.805
 1872TIP3    H1 5559   3.341   2.665   2.759
 1872TIP3    H2 5560   3.258   2.538   2.763
 1873TIP3   OH2 5561   0.131   1.958   4.939
 1873TIP3    H1 5562   0.172   2.041   4.914
 1873TIP3    H2 5563   0.200   1.893   4.926
 1874TIP3   OH2 5564   6.998   7.678   0.914
 1874TIP3    H1 5565   7.006   7.768   0.882
 1874TIP3    H2 5566   6.971   7.688   1.005
 1875TIP3   OH2 5567   0.563   4.799   3.850
 1875TIP3    H1 5568   0.549   4.734   3.919
 1875TIP3    H2 5569   0.547   4.883   3.892
 1876TIP3   OH2 5570   6.615   3.762   2.236
 1876TIP3    H1 5571   6.534   3.711   2.241
 1876TIP3    H2 5572   6.685   3.698   2.246
 1877TIP3   OH2 5573   5.693   6.915   1.009
 1877TIP3    H1 5574   5.718   6.996   1.053
 1877TIP3    H2 5575   5.759   6.851   1.036
 1878TIP3   OH2 5576   4.010   0.023   5.026
 1878TIP3    H1 5577   4.033   0.082   4.954
 1878TIP3    H2 5578   3.971  -0.053   4.984
 1879TIP3   OH2 5579   8.127   5.974   0.271
 1879TIP3    H1 5580   8.095   5.888   0.299
 1879TIP3    H2 5581   8.080   5.992   0.190
 1880TIP3   OH2 5582   3.033   0.416   2.529
 1880TIP3    H1 5583   3.003   0.349   2.591
 1880TIP3    H2 5584   3.052   0.367   2.449
 1881TIP3   OH2 5585   2.872   1.765   1.011
 1881TIP3    H1 5586   2.884   1.671   0.998
 1881TIP3    H2 5587   2.948   1.804   0.969
 1882TIP3   OH2 5588   6.569   6.928   2.114
 1882TIP3    H1 5589   6.484   6.947   2.154
 1882TIP3    H2 5590   6.552   6.922   2.020
 1883TIP3   OH2 5591   6.317   5.121   2.523
 1883TIP3    H1 5592   6.380   5.170   2.470
 1883TIP3    H2 5593   6.327   5.156   2.611
 1884TIP3   OH2 5594   7.313   6.318   3.011
 1884TIP3    H1 5595   7.304   6.230   2.975
 1884TIP3    H2 5596   7.406   6.326   3.032
 1885TIP3   OH2 5597   7.078   6.999   0.020
 1885TIP3    H1 5598   7.033   7.081   0.041
 1885TIP3    H2 5599   7.019   6.931   0.050
 1886TIP3   OH2 5600   2.152   0.552   3.446
 1886TIP3    H1 5601   2.167   0.582   3.535
 1886TIP3    H2 5602   2.221   0.595   3.395
 1887TIP3   OH2 5603   1.644   1.182   1.388
 1887TIP3    H1 5604   1.729   1.172   1.345
 1887TIP3    H2 5605   1.664   1.177   1.482
 1888TIP3   OH2 5606   5.433   5.052   5.329
 1888TIP3    H1 5607   5.442   4.993   5.403
 1888TIP3    H2 5608   5.427   4.994   5.253
 1889TIP3   OH2 5609   7.685   4.219   5.026
 1889TIP3    H1 5610   7.633   4.298   5.041
 1889TIP3    H2 5611   7.776   4.248   5.031
 1890TIP3   OH2 5612   6.054   2.031   3.263
 1890TIP3    H1 5613   6.129   1.973   3.249
 1890TIP3    H2 5614   6.024   2.011   3.352
 1891TIP3   OH2 5615   1.436   7.295   0.932
 1891TIP3    H1 5616   1.406   7.233   0.866
 1891TIP3    H2 5617   1.418   7.252   1.016
 1892TIP3   OH2 5618   1.057   0.528   1.412
 1892TIP3    H1 5619   1.063   0.471   1.335
 1892TIP3    H2 5620   0.973   0.572   1.402
 1893TIP3   OH2 5621   8.060   7.564   6.082
 1893TIP3    H1 5622   8.141   7.524   6.051
 1893TIP3    H2 5623   8.090   7.636   6.138
 1894TIP3   OH2 5624   3.401   2.464   2.326
 1894TIP3    H1 5625   3.378   2.375   2.351
 1894TIP3    H2 5626   3.480   2.454   2.273
 1895TIP3   OH2 5627   0.465   2.692   6.452
 1895TIP3    H1 5628   0.497   2.622   6.396
 1895TIP3    H2 5629   0.534   2.705   6.517
 1896TIP3   OH2 5630   5.742   6.678   3.269
 1896TIP3    H1 5631   5.810   6.620   3.303
 1896TIP3    H2 5632   5.770   6.765   3.295
 1897TIP3   OH2 5633   4.353   4.478   2.735
 1897TIP3    H1 5634   4.393   4.393   2.717
 1897TIP3    H2 5635   4.368   4.493   2.828
 1898TIP3   OH2 5636   7.170   5.908   6.561
 1898TIP3    H1 5637   7.196   5.906   6.653
 1898TIP3    H2 5638   7.179   6.000   6.536
 1899TIP3   OH2 5639   4.792   2.359   1.628
 1899TIP3    H1 5640   4.749   2.273   1.624
 1899TIP3    H2 5641   4.862   2.348   1.692
 1900TIP3   OH2 5642   5.956   6.053   5.825
 1900TIP3    H1 5643   5.910   6.085   5.902
 1900TIP3    H2 5644   5.954   6.126   5.763
 1901TIP3   OH2 5645   2.949   4.824   0.066
 1901TIP3    H1 5646   2.981   4.834  -0.024
 1901TIP3    H2 5647   2.925   4.912   0.093
 1902TIP3   OH2 5648   3.056   7.297   2.892
 1902TIP3    H1 5649   3.037   7.370   2.950
 1902TIP3    H2 5650   3.007   7.315   2.812
 1903TIP3   OH2 5651   0.102   4.466   2.477
 1903TIP3    H1 5652   0.144   4.385   2.448
 1903TIP3    H2 5653   0.049   4.494   2.402
 1904TIP3   OH2 5654   5.662   5.106   5.948
 1904TIP3    H1 5655   5.622   5.027   5.912
 1904TIP3    H2 5656   5.682   5.084   6.039
 1905TIP3   OH2 5657   3.088   3.500   3.561
 1905TIP3    H1 5658   3.040   3.457   3.491
 1905TIP3    H2 5659   3.142   3.431   3.599
 1906TIP3   OH2 5660   2.990   2.396   5.838
 1906TIP3    H1 5661   3.018   2.322   5.785
 1906TIP3    H2 5662   3.071   2.436   5.869
 1907TIP3   OH2 5663   6.772   4.207   2.000
 1907TIP3    H1 5664   6.749   4.228   2.090
 1907TIP3    H2 5665   6.716   4.133   1.976
 1908TIP3   OH2 5666   1.075   5.757   1.016
 1908TIP3    H1 5667   1.098   5.850   1.018
 1908TIP3    H2 5668   1.061   5.738   0.923
 1909TIP3   OH2 5669   4.118   7.567   0.438
 1909TIP3    H1 5670   4.160   7.575   0.524
 1909TIP3    H2 5671   4.177   7.613   0.378
 1910TIP3   OH2 5672   5.567   0.807   5.530
 1910TIP3    H1 5673   5.475   0.781   5.527
 1910TIP3    H2 5674   5.583   0.829   5.621
 1911TIP3   OH2 5675   6.158   1.658   6.540
 1911TIP3    H1 5676   6.219   1.587   6.559
 1911TIP3    H2 5677   6.203   1.737   6.568
 1912TIP3   OH2 5678   0.892   5.204   3.328
 1912TIP3    H1 5679   0.856   5.289   3.353
 1912TIP3    H2 5680   0.863   5.191   3.238
 1913TIP3   OH2 5681   2.146   5.617   1.347
 1913TIP3    H1 5682   2.173   5.629   1.256
 1913TIP3    H2 5683   2.151   5.522   1.361
 1914TIP3   OH2 5684   3.078   2.550   6.663
 1914TIP3    H1 5685   3.135   2.500   6.605
 1914TIP3    H2 5686   3.115   2.537   6.750
 1915TIP3   OH2 5687   6.996   1.865   2.841
 1915TIP3    H1 5688   7.011   1.803   2.913
 1915TIP3    H2 5689   6.957   1.941   2.884
 1916TIP3   OH2 5690   6.506   4.400   2.788
 1916TIP3    H1 5691   6.570   4.470   2.773
 1916TIP3    H2 5692   6.423   4.446   2.799
 1917TIP3   OH2 5693   1.803   6.485   6.809
 1917TIP3    H1 5694   1.763   6.570   6.793
 1917TIP3    H2 5695   1.794   6.437   6.727
 1918TIP3   OH2 5696   4.267   2.072   6.076
 1918TIP3    H1 5697   4.209   2.148   6.073
 1918TIP3    H2 5698   4.231   2.017   6.146
 1919TIP3   OH2 5699   7.267   1.992   4.630
 1919TIP3    H1 5700   7.311   2.073   4.603
 1919TIP3    H2 5701   7.256   1.943   4.549
 1920TIP3   OH2 5702   4.284   2.588   5.376
 1920TIP3    H1 5703   4.255   2.665   5.423
 1920TIP3    H2 5704   4.376   2.578   5.400
 1921TIP3   OH2 5705   0.132   6.094   2.154
 1921TIP3    H1 5706   0.218   6.052   2.159
 1921TIP3    H2 5707   0.086   6.047   2.085
 1922TIP3   OH2 5708   4.929   3.894   6.538
 1922TIP3    H1 5709   4.860   3.850   6.489
 1922TIP3    H2 5710   4.896   3.899   6.627
 1923TIP3   OH2 5711   6.882   5.405   6.711
 1923TIP3    H1 5712   6.922   5.418   6.625
 1923TIP3    H2 5713   6.921   5.324   6.744
 1924TIP3   OH2 5714   5.384   6.150   1.886
 1924TIP3    H1 5715   5.331   6.229   1.898
 1924TIP3    H2 5716   5.351   6.110   1.806
 1925TIP3   OH2 5717   1.747   1.398   5.322
 1925TIP3    H1 5718   1.755   1.347   5.242
 1925TIP3    H2 5719   1.837   1.425   5.343
 1926TIP3   OH2 5720   5.134   5.946   0.016
 1926TIP3    H1 5721   5.066   5.879   0.023
 1926TIP3    H2 5722   5.143   5.980   0.105
 1927TIP3   OH2 5723   1.654   5.016   5.642
 1927TIP3    H1 5724   1.679   4.979   5.727
 1927TIP3    H2 5725   1.597   5.090   5.664
 1928TIP3   OH2 5726   7.962   5.739   0.355
 1928TIP3    H1 5727   7.992   5.668   0.298
 1928TIP3    H2 5728   7.881   5.706   0.394
 1929TIP3   OH2 5729   3.638   7.197   0.712
 1929TIP3    H1 5730   3.580   7.261   0.670
 1929TIP3    H2 5731   3.647   7.127   0.648
 1930TIP3   OH2 5732   6.862   2.989   0.020
 1930TIP3    H1 5733   6.795   3.058   0.021
 1930TIP3    H2 5734   6.938   3.030  -0.020
 1931TIP3   OH2 5735   6.802   7.478   0.845
 1931TIP3    H1 5736   6.860   7.402   0.839
 1931TIP3    H2 5737   6.862   7.553   0.852
 1932TIP3   OH2 5738   1.703   5.432   3.156
 1932TIP3    H1 5739   1.662   5.513   3.186
 1932TIP3    H2 5740   1.792   5.458   3.132
 1933TIP3   OH2 5741   2.001   5.573   1.828
 1933TIP3    H1 5742   1.934   5.506   1.819
 1933TIP3    H2 5743   2.053   5.566   1.748
 1934TIP3   OH2 5744   6.993   6.734   0.459
 1934TIP3    H1 5745   7.044   6.686   0.524
 1934TIP3    H2 5746   7.029   6.706   0.375
 1935TIP3   OH2 5747   3.119   4.923   2.580
 1935TIP3    H1 5748   3.177   4.984   2.534
 1935TIP3    H2 5749   3.062   4.888   2.511
 1936TIP3   OH2 5750   7.205   6.244   6.112
 1936TIP3    H1 5751   7.273   6.278   6.054
 1936TIP3    H2 5752   7.235   6.267   6.200
 1937TIP3   OH2 5753   7.637   3.656   1.839
 1937TIP3    H1 5754   7.668   3.569   1.866
 1937TIP3    H2 5755   7.564   3.637   1.780
 1938TIP3   OH2 5756   6.979   3.878   2.356
 1938TIP3    H1 5757   7.024   3.823   2.420
 1938TIP3    H2 5758   6.889   3.844   2.356
 1939TIP3   OH2 5759   7.683   2.642   0.062
 1939TIP3    H1 5760   7.748   2.572   0.069
 1939TIP3    H2 5761   7.726   2.709   0.009
 1940TIP3   OH2 5762   0.350   4.239   3.624
 1940TIP3    H1 5763   0.414   4.195   3.567
 1940TIP3    H2 5764   0.386   4.231   3.712
 1941TIP3   OH2 5765   7.545   4.945   6.117
 1941TIP3    H1 5766   7.463   4.992   6.103
 1941TIP3    H2 5767   7.608   4.990   6.062
 1942TIP3   OH2 5768   3.325   6.994   1.808
 1942TIP3    H1 5769   3.331   7.048   1.887
 1942TIP3    H2 5770   3.405   7.014   1.759
 1943TIP3   OH2 5771   6.430   1.769   0.898
 1943TIP3    H1 5772   6.498   1.701   0.897
 1943TIP3    H2 5773   6.348   1.720   0.907
 1944TIP3   OH2 5774   1.982   1.747   3.062
 1944TIP3    H1 5775   1.996   1.791   3.146
 1944TIP3    H2 5776   2.059   1.691   3.051
 1945TIP3   OH2 5777   7.899   1.696   4.495
 1945TIP3    H1 5778   7.975   1.673   4.442
 1945TIP3    H2 5779   7.824   1.678   4.437
 1946TIP3   OH2 5780   2.491   7.617   5.531
 1946TIP3    H1 5781   2.489   7.521   5.533
 1946TIP3    H2 5782   2.544   7.642   5.606
 1947TIP3   OH2 5783   3.727   7.131   0.266
 1947TIP3    H1 5784   3.724   7.214   0.219
 1947TIP3    H2 5785   3.635   7.110   0.283
 1948TIP3   OH2 5786   7.249   0.173   3.607
 1948TIP3    H1 5787   7.222   0.263   3.628
 1948TIP3    H2 5788   7.202   0.119   3.671
 1949TIP3   OH2 5789   8.058   0.376   1.825
 1949TIP3    H1 5790   7.969   0.341   1.823
 1949TIP3    H2 5791   8.110   0.307   1.866
 1950TIP3   OH2 5792   1.332   2.519   3.252
 1950TIP3    H1 5793   1.330   2.546   3.160
 1950TIP3    H2 5794   1.408   2.461   3.258
 1951TIP3   OH2 5795   7.643   4.667   0.695
 1951TIP3    H1 5796   7.734   4.696   0.702
 1951TIP3    H2 5797   7.633   4.602   0.764
 1952TIP3   OH2 5798   6.893   0.098   4.398
 1952TIP3    H1 5799   6.902   0.124   4.306
 1952TIP3    H2 5800   6.967   0.040   4.414
 1953TIP3   OH2 5801   4.023   3.776   6.530
 1953TIP3    H1 5802   4.070   3.859   6.529
 1953TIP3    H2 5803   3.993   3.766   6.620
 1954TIP3   OH2 5804   1.489   2.864   1.946
 1954TIP3    H1 5805   1.465   2.956   1.933
 1954TIP3    H2 5806   1.548   2.864   2.020
 1955TIP3   OH2 5807   7.199   4.104   6.403
 1955TIP3    H1 5808   7.144   4.182   6.406
 1955TIP3    H2 5809   7.288   4.138   6.391
 1956TIP3   OH2 5810   7.609   2.635   4.971
 1956TIP3    H1 5811   7.700   2.645   4.999
 1956TIP3    H2 5812   7.569   2.719   4.992
 1957TIP3   OH2 5813   0.663   6.311   6.012
 1957TIP3    H1 5814   0.735   6.258   5.977
 1957TIP3    H2 5815   0.692   6.402   6.000
 1958TIP3   OH2 5816   8.267   6.797   3.589
 1958TIP3    H1 5817   8.327   6.800   3.664
 1958TIP3    H2 5818   8.245   6.704   3.581
 1959TIP3   OH2 5819   4.880   6.728   2.747
 1959TIP3    H1 5820   4.825   6.649   2.748
 1959TIP3    H2 5821   4.926   6.725   2.663
 1960TIP3   OH2 5822   6.319   1.174   5.252
 1960TIP3    H1 5823   6.374   1.251   5.238
 1960TIP3    H2 5824   6.340   1.146   5.341
 1961TIP3   OH2 5825   5.224   2.396   1.040
 1961TIP3    H1 5826   5.231   2.366   0.950
 1961TIP3    H2 5827   5.314   2.413   1.067
 1962TIP3   OH2 5828   6.423   0.566   2.285
 1962TIP3    H1 5829   6.433   0.609   2.200
 1962TIP3    H2 5830   6.503   0.588   2.333
 1963TIP3   OH2 5831   1.310   6.221   2.143
 1963TIP3    H1 5832   1.325   6.314   2.159
 1963TIP3    H2 5833   1.216   6.214   2.127
 1964TIP3   OH2 5834   4.382   0.607   4.675
 1964TIP3    H1 5835   4.416   0.671   4.612
 1964TIP3    H2 5836   4.459   0.560   4.706
 1965TIP3   OH2 5837   0.296   4.707   2.685
 1965TIP3    H1 5838   0.282   4.753   2.767
 1965TIP3    H2 5839   0.231   4.636   2.686
 1966TIP3   OH2 5840   4.502   1.968   0.730
 1966TIP3    H1 5841   4.513   1.990   0.638
 1966TIP3    H2 5842   4.443   2.036   0.764
 1967TIP3   OH2 5843   6.674   2.632   5.816
 1967TIP3    H1 5844   6.715   2.570   5.756
 1967TIP3    H2 5845   6.644   2.704   5.761
 1968TIP3   OH2 5846   8.323   4.263   1.689
 1968TIP3    H1 5847   8.245   4.306   1.723
 1968TIP3    H2 5848   8.290   4.184   1.646
 1969TIP3   OH2 5849   5.443   1.259   6.078
 1969TIP3    H1 5850   5.447   1.297   6.166
 1969TIP3    H2 5851   5.409   1.329   6.023
 1970TIP3   OH2 5852   0.373   2.885   4.252
 1970TIP3    H1 5853   0.453   2.833   4.242
 1970TIP3    H2 5854   0.327   2.874   4.168
 1971TIP3   OH2 5855   0.741   1.682   3.304
 1971TIP3    H1 5856   0.709   1.709   3.390
 1971TIP3    H2 5857   0.837   1.683   3.313
 1972TIP3   OH2 5858   5.263   1.062   5.517
 1972TIP3    H1 5859   5.241   1.111   5.596
 1972TIP3    H2 5860   5.253   0.970   5.542
 1973TIP3   OH2 5861   0.760   3.097   4.622
 1973TIP3    H1 5862   0.758   3.005   4.648
 1973TIP3    H2 5863   0.850   3.125   4.638
 1974TIP3   OH2 5864   0.865   4.934   4.767
 1974TIP3    H1 5865   0.892   4.847   4.795
 1974TIP3    H2 5866   0.774   4.923   4.739
 1975TIP3   OH2 5867   5.623   5.952   0.936
 1975TIP3    H1 5868   5.584   5.904   0.863
 1975TIP3    H2 5869   5.713   5.969   0.908
 1976TIP3   OH2 5870   3.786   0.507   2.708
 1976TIP3    H1 5871   3.698   0.477   2.732
 1976TIP3    H2 5872   3.773   0.598   2.681
 1977TIP3   OH2 5873   6.493   4.584   5.564
 1977TIP3    H1 5874   6.468   4.676   5.565
 1977TIP3    H2 5875   6.585   4.583   5.589
 1978TIP3   OH2 5876   1.761   6.535   4.735
 1978TIP3    H1 5877   1.808   6.462   4.775
 1978TIP3    H2 5878   1.819   6.566   4.665
 1979TIP3   OH2 5879   2.130   2.097   2.387
 1979TIP3    H1 5880   2.137   2.085   2.292
 1979TIP3    H2 5881   2.170   2.018   2.424
 1980TIP3   OH2 5882   2.855   0.433   1.505
 1980TIP3    H1 5883   2.902   0.428   1.589
 1980TIP3    H2 5884   2.771   0.472   1.528
 1981TIP3   OH2 5885   2.042   1.567   5.647
 1981TIP3    H1 5886   2.087   1.648   5.624
 1981TIP3    H2 5887   2.043   1.515   5.567
 1982TIP3   OH2 5888   8.210   0.769   3.395
 1982TIP3    H1 5889   8.197   0.832   3.466
 1982TIP3    H2 5890   8.276   0.809   3.339
 1983TIP3   OH2 5891   2.334   5.014   5.559
 1983TIP3    H1 5892   2.338   4.939   5.619
 1983TIP3    H2 5893   2.414   5.005   5.506
 1984TIP3   OH2 5894   6.919   0.959   3.999
 1984TIP3    H1 5895   6.836   0.996   4.029
 1984TIP3    H2 5896   6.975   0.962   4.076
 1985TIP3   OH2 5897   4.703   4.258   1.816
 1985TIP3    H1 5898   4.624   4.298   1.780
 1985TIP3    H2 5899   4.775   4.307   1.776
 1986TIP3   OH2 5900   0.533   7.831   5.922
 1986TIP3    H1 5901   0.576   7.912   5.948
 1986TIP3    H2 5902   0.605   7.772   5.898
 1987TIP3   OH2 5903   5.438   7.773   4.232
 1987TIP3    H1 5904   5.450   7.721   4.153
 1987TIP3    H2 5905   5.347   7.756   4.259
 1988TIP3   OH2 5906   4.696   4.806   3.302
 1988TIP3    H1 5907   4.782   4.794   3.261
 1988TIP3    H2 5908   4.639   4.834   3.231
 1989TIP3   OH2 5909   1.672   2.648   1.667
 1989TIP3    H1 5910   1.658   2.741   1.683
 1989TIP3    H2 5911   1.726   2.618   1.740
 1990TIP3   OH2 5912   1.623   6.023   3.639
 1990TIP3    H1 5913   1.548   6.054   3.589
 1990TIP3    H2 5914   1.688   6.093   3.630
 1991TIP3   OH2 5915   3.220   4.192   5.962
 1991TIP3    H1 5916   3.253   4.142   6.036
 1991TIP3    H2 5917   3.125   4.190   5.973
 1992TIP3   OH2 5918   3.242   3.487   2.620
 1992TIP3    H1 5919   3.212   3.568   2.579
 1992TIP3    H2 5920   3.335   3.482   2.598
 1993TIP3   OH2 5921   7.279   2.315   4.201
 1993TIP3    H1 5922   7.311   2.317   4.111
 1993TIP3    H2 5923   7.248   2.404   4.219
 1994TIP3   OH2 5924   0.210   4.969   0.015
 1994TIP3    H1 5925   0.221   4.909   0.089
 1994TIP3    H2 5926   0.205   5.056   0.055
 1995TIP3   OH2 5927   6.601   3.164   1.226
 1995TIP3    H1 5928   6.642   3.172   1.140
 1995TIP3    H2 5929   6.517   3.209   1.218
 1996TIP3   OH2 5930   7.138   6.678   0.725
 1996TIP3    H1 5931   7.198   6.703   0.654
 1996TIP3    H2 5932   7.126   6.584   0.715
 1997TIP3   OH2 5933   0.722   1.463   0.917
 1997TIP3    H1 5934   0.686   1.397   0.858
 1997TIP3    H2 5935   0.646   1.496   0.965
 1998TIP3   OH2 5936   3.372   7.052   6.183
 1998TIP3    H1 5937   3.369   7.148   6.189
 1998TIP3    H2 5938   3.435   7.027   6.250
 1999TIP3   OH2 5939   0.669   2.846   0.717
 1999TIP3    H1 5940   0.648   2.927   0.671
 1999TIP3    H2 5941   0.710   2.874   0.798
 2000TIP3   OH2 5942   3.597   2.794   5.153
 2000TIP3    H1 5943   3.628   2.705   5.168
 2000TIP3    H2 5944   3.563   2.822   5.238
 2001TIP3   OH2 5945   3.535   1.479   2.259
 2001TIP3    H1 5946   3.556   1.523   2.342
 2001TIP3    H2 5947   3.555   1.387   2.275
 2002TIP3   OH2 5948   3.925   0.241   1.603
 2002TIP3    H1 5949   3.907   0.209   1.515
 2002TIP3    H2 5950   3.881   0.326   1.607
 2003TIP3   OH2 5951   3.408   4.712   0.347
 2003TIP3    H1 5952   3.410   4.625   0.387
 2003TIP3    H2 5953   3.322   4.716   0.304
 2004TIP3   OH2 5954   0.835   2.565   1.879
 2004TIP3    H1 5955   0.786   2.642   1.909
 2004TIP3    H2 5956   0.927   2.590   1.890
 2005TIP3   OH2 5957   4.534   0.753   5.681
 2005TIP3    H1 5958   4.485   0.726   5.603
 2005TIP3    H2 5959   4.624   0.723   5.665
 2006TIP3   OH2 5960   0.718   7.410   1.741
 2006TIP3    H1 5961   0.686   7.320   1.741
 2006TIP3    H2 5962   0.691   7.445   1.826
 2007TIP3   OH2 5963   2.474   0.832   0.221
 2007TIP3    H1 5964   2.549   0.873   0.178
 2007TIP3    H2 5965   2.509   0.802   0.305
 2008TIP3   OH2 5966   2.443   0.706   1.749
 2008TIP3    H1 5967   2.512   0.657   1.793
 2008TIP3    H2 5968   2.368   0.647   1.748
 2009TIP3   OH2 5969   5.781   2.079   1.868
 2009TIP3    H1 5970   5.764   2.114   1.955
 2009TIP3    H2 5971   5.850   2.135   1.833
 2010TIP3   OH2 5972   2.259   0.015   5.977
 2010TIP3    H1 5973   2.329   0.077   5.994
 2010TIP3    H2 5974   2.231  -0.014   6.064
 2011TIP3   OH2 5975   3.879   0.523   0.082
 2011TIP3    H1 5976   3.809   0.493   0.024
 2011TIP3    H2 5977   3.834   0.574   0.150
 2012TIP3   OH2 5978   2.971   6.648   6.137
 2012TIP3    H1 5979   2.987   6.644   6.043
 2012TIP3    H2 5980   3.046   6.697   6.172
 2013TIP3   OH2 5981   0.498   5.664   4.681
 2013TIP3    H1 5982   0.549   5.614   4.617
 2013TIP3    H2 5983   0.426   5.701   4.631
 2014TIP3   OH2 5984   6.466   0.083   1.861
 2014TIP3    H1 5985   6.488  -0.010   1.852
 2014TIP3    H2 5986   6.371   0.084   1.874
 2015TIP3   OH2 5987   4.447   1.751   1.923
 2015TIP3    H1 5988   4.474   1.674   1.873
 2015TIP3    H2 5989   4.494   1.824   1.883
 2016TIP3   OH2 5990   1.627   4.033   3.417
 2016TIP3    H1 5991   1.532   4.034   3.415
 2016TIP3    H2 5992   1.650   3.942   3.439
 2017TIP3   OH2 5993   1.585   5.665   6.235
 2017TIP3    H1 5994   1.593   5.579   6.277
 2017TIP3    H2 5995   1.493   5.673   6.213
 2018TIP3   OH2 5996   1.133   6.632   1.910
 2018TIP3    H1 5997   1.074   6.560   1.931
 2018TIP3    H2 5998   1.075   6.706   1.891
 2019TIP3   OH2 5999   4.346   7.257   5.836
 2019TIP3    H1 6000   4.381   7.291   5.753
 2019TIP3    H2 6001   4.261   7.221   5.813
 2020TIP3   OH2 6002   6.742   0.702   1.835
 2020TIP3    H1 6003   6.747   0.618   1.881
 2020TIP3    H2 6004   6.741   0.678   1.742
 2021TIP3   OH2 6005   8.243   6.066   2.335
 2021TIP3    H1 6006   8.268   6.099   2.422
 2021TIP3    H2 6007   8.322   6.077   2.282
 2022TIP3   OH2 6008   3.464   2.723   0.971
 2022TIP3    H1 6009   3.470   2.680   0.885
 2022TIP3    H2 6010   3.499   2.811   0.956
 2023TIP3   OH2 6011   6.504   5.960   6.741
 2023TIP3    H1 6012   6.410   5.948   6.727
 2023TIP3    H2 6013   6.543   5.950   6.654
 2024TIP3   OH2 6014   4.179   2.687   1.963
 2024TIP3    H1 6015   4.221   2.732   2.037
 2024TIP3    H2 6016   4.141   2.608   2.002
 2025TIP3   OH2 6017   7.709   0.546   3.034
 2025TIP3    H1 6018   7.622   0.512   3.051
 2025TIP3    H2 6019   7.698   0.641   3.031
 2026TIP3   OH2 6020   0.427   3.536   3.404
 2026TIP3    H1 6021   0.344   3.548   3.450
 2026TIP3    H2 6022   0.451   3.445   3.421
 2027TIP3   OH2 6023   7.919   0.419   1.324
 2027TIP3    H1 6024   7.897   0.349   1.385
 2027TIP3    H2 6025   8.010   0.441   1.345
 2028TIP3   OH2 6026   0.521   4.842   4.461
 2028TIP3    H1 6027   0.571   4.889   4.395
 2028TIP3    H2 6028   0.556   4.874   4.545
 2029TIP3   OH2 6029   6.456   4.390   0.229
 2029TIP3    H1 6030   6.513   4.467   0.231
 2029TIP3    H2 6031   6.430   4.378   0.320
 2030TIP3   OH2 6032   6.138   3.017   0.874
 2030TIP3    H1 6033   6.085   3.089   0.842
 2030TIP3    H2 6034   6.080   2.968   0.933
 2031TIP3   OH2 6035   7.822   3.250   4.189
 2031TIP3    H1 6036   7.876   3.327   4.173
 2031TIP3    H2 6037   7.863   3.181   4.137
 2032TIP3   OH2 6038   3.524   1.094   5.750
 2032TIP3    H1 6039   3.513   1.023   5.686
 2032TIP3    H2 6040   3.619   1.105   5.757
 2033TIP3   OH2 6041   3.556   5.113   0.518
 2033TIP3    H1 6042   3.621   5.183   0.515
 2033TIP3    H2 6043   3.563   5.071   0.432
 2034TIP3   OH2 6044   1.612   3.022   2.148
 2034TIP3    H1 6045   1.611   3.095   2.086
 2034TIP3    H2 6046   1.624   3.063   2.233
 2035TIP3   OH2 6047   1.403   6.391   5.072
 2035TIP3    H1 6048   1.314   6.379   5.037
 2035TIP3    H2 6049   1.449   6.440   5.004
 2036TIP3   OH2 6050   6.676   1.644   3.664
 2036TIP3    H1 6051   6.586   1.617   3.649
 2036TIP3    H2 6052   6.671   1.739   3.672
 2037TIP3   OH2 6053   7.801   5.574   5.612
 2037TIP3    H1 6054   7.784   5.542   5.701
 2037TIP3    H2 6055   7.815   5.668   5.622
 2038TIP3   OH2 6056   4.266   5.013   5.987
 2038TIP3    H1 6057   4.255   5.086   6.048
 2038TIP3    H2 6058   4.196   5.025   5.923
 2039TIP3   OH2 6059   0.070   3.672   6.232
 2039TIP3    H1 6060   0.031   3.744   6.281
 2039TIP3    H2 6061   0.163   3.674   6.256
 2040TIP3   OH2 6062   4.498   3.749   0.333
 2040TIP3    H1 6063   4.507   3.773   0.425
 2040TIP3    H2 6064   4.568   3.798   0.289
 2041TIP3   OH2 6065   3.237   4.169   5.522
 2041TIP3    H1 6066   3.207   4.244   5.471
 2041TIP3    H2 6067   3.234   4.095   5.461
 2042TIP3   OH2 6068   8.141   2.696   0.814
 2042TIP3    H1 6069   8.157   2.788   0.794
 2042TIP3    H2 6070   8.228   2.656   0.818
 2043TIP3   OH2 6071   3.014   6.289   5.195
 2043TIP3    H1 6072   2.990   6.362   5.252
 2043TIP3    H2 6073   3.082   6.242   5.243
 2044TIP3   OH2 6074   3.624   6.489   0.291
 2044TIP3    H1 6075   3.604   6.396   0.285
 2044TIP3    H2 6076   3.684   6.506   0.218
 2045TIP3   OH2 6077   7.907   3.723   3.795
 2045TIP3    H1 6078   7.886   3.632   3.815
 2045TIP3    H2 6079   7.941   3.758   3.878
 2046TIP3   OH2 6080   4.155   0.649   6.111
 2046TIP3    H1 6081   4.192   0.683   6.030
 2046TIP3    H2 6082   4.211   0.685   6.180
 2047TIP3   OH2 6083   7.728   6.236   1.351
 2047TIP3    H1 6084   7.791   6.183   1.400
 2047TIP3    H2 6085   7.739   6.208   1.260
 2048TIP3   OH2 6086   4.908   7.683   3.868
 2048TIP3    H1 6087   4.816   7.656   3.865
 2048TIP3    H2 6088   4.907   7.773   3.835
 2049TIP3   OH2 6089   2.035   5.317   3.174
 2049TIP3    H1 6090   2.104   5.381   3.192
 2049TIP3    H2 6091   1.969   5.366   3.124
 2050TIP3   OH2 6092   6.327   1.760   2.440
 2050TIP3    H1 6093   6.408   1.777   2.392
 2050TIP3    H2 6094   6.318   1.834   2.499
 2051TIP3   OH2 6095   2.512   0.813   4.084
 2051TIP3    H1 6096   2.514   0.893   4.135
 2051TIP3    H2 6097   2.420   0.787   4.082
 2052TIP3   OH2 6098   7.825   6.172   4.400
 2052TIP3    H1 6099   7.787   6.224   4.329
 2052TIP3    H2 6100   7.859   6.094   4.357
 2053TIP3   OH2 6101   1.642   2.759   6.726
 2053TIP3    H1 6102   1.576   2.699   6.761
 2053TIP3    H2 6103   1.702   2.775   6.800
 2054TIP3   OH2 6104   3.104   5.231   0.796
 2054TIP3    H1 6105   3.172   5.291   0.827
 2054TIP3    H2 6106   3.141   5.191   0.717
 2055TIP3   OH2 6107   1.939   3.926   6.821
 2055TIP3    H1 6108   1.959   4.016   6.795
 2055TIP3    H2 6109   2.025   3.884   6.828
 2056TIP3   OH2 6110   7.577   2.974   4.821
 2056TIP3    H1 6111   7.536   2.925   4.750
 2056TIP3    H2 6112   7.551   2.927   4.900
 2057TIP3   OH2 6113   7.933   3.516   5.273
 2057TIP3    H1 6114   7.981   3.558   5.201
 2057TIP3    H2 6115   7.851   3.486   5.232
 2058TIP3   OH2 6116   7.860   3.422   6.303
 2058TIP3    H1 6117   7.889   3.455   6.389
 2058TIP3    H2 6118   7.940   3.419   6.251
 2059TIP3   OH2 6119   0.667   6.370   5.420
 2059TIP3    H1 6120   0.642   6.360   5.328
 2059TIP3    H2 6121   0.717   6.451   5.423
 2060TIP3   OH2 6122   5.239   5.673   1.665
 2060TIP3    H1 6123   5.263   5.682   1.757
 2060TIP3    H2 6124   5.162   5.616   1.666
 2061TIP3   OH2 6125   2.701   3.846   4.130
 2061TIP3    H1 6126   2.763   3.773   4.128
 2061TIP3    H2 6127   2.714   3.887   4.215
 2062TIP3   OH2 6128   6.059   4.793   1.718
 2062TIP3    H1 6129   6.040   4.777   1.626
 2062TIP3    H2 6130   6.006   4.870   1.740
 2063TIP3   OH2 6131   6.743   1.061   6.254
 2063TIP3    H1 6132   6.788   0.984   6.219
 2063TIP3    H2 6133   6.814   1.125   6.268
 2064TIP3   OH2 6134   4.576   2.810   3.247
 2064TIP3    H1 6135   4.606   2.857   3.170
 2064TIP3    H2 6136   4.482   2.827   3.250
 2065TIP3   OH2 6137   0.125   5.034   3.614
 2065TIP3    H1 6138   0.209   5.049   3.655
 2065TIP3    H2 6139   0.062   5.078   3.671
 2066TIP3   OH2 6140   0.815   2.113   3.029
 2066TIP3    H1 6141   0.754   2.184   3.009
 2066TIP3    H2 6142   0.861   2.142   3.107
 2067TIP3   OH2 6143   5.320   1.746   5.966
 2067TIP3    H1 6144   5.242   1.760   6.021
 2067TIP3    H2 6145   5.393   1.763   6.025
 2068TIP3   OH2 6146   3.804   2.216   2.312
 2068TIP3    H1 6147   3.741   2.267   2.261
 2068TIP3    H2 6148   3.776   2.228   2.403
 2069TIP3   OH2 6149   2.994   6.276   2.356
 2069TIP3    H1 6150   3.056   6.346   2.339
 2069TIP3    H2 6151   2.969   6.244   2.269
 2070TIP3   OH2 6152   3.931   6.477   0.859
 2070TIP3    H1 6153   3.917   6.570   0.841
 2070TIP3    H2 6154   3.919   6.468   0.953
 2071TIP3   OH2 6155   4.511   1.494   1.847
 2071TIP3    H1 6156   4.584   1.495   1.910
 2071TIP3    H2 6157   4.450   1.429   1.882
 2072TIP3   OH2 6158   7.970   4.012   5.207
 2072TIP3    H1 6159   7.994   4.097   5.171
 2072TIP3    H2 6160   7.978   3.951   5.134
 2073TIP3   OH2 6161   4.434   4.669   3.346
 2073TIP3    H1 6162   4.471   4.753   3.374
 2073TIP3    H2 6163   4.341   4.687   3.333
 2074TIP3   OH2 6164   0.688   2.423   1.692
 2074TIP3    H1 6165   0.761   2.472   1.729
 2074TIP3    H2 6166   0.724   2.383   1.612
 2075TIP3   OH2 6167   1.357   7.749   2.547
 2075TIP3    H1 6168   1.288   7.692   2.513
 2075TIP3    H2 6169   1.421   7.689   2.585
 2076TIP3   OH2 6170   2.759   3.294   0.395
 2076TIP3    H1 6171   2.676   3.309   0.439
 2076TIP3    H2 6172   2.769   3.199   0.392
 2077TIP3   OH2 6173   0.984   1.665   4.490
 2077TIP3    H1 6174   1.056   1.666   4.553
 2077TIP3    H2 6175   1.027   1.661   4.405
 2078TIP3   OH2 6176   6.089   0.783   6.361
 2078TIP3    H1 6177   6.036   0.727   6.305
 2078TIP3    H2 6178   6.108   0.860   6.308
 2079TIP3   OH2 6179   4.551   7.291   2.689
 2079TIP3    H1 6180   4.508   7.269   2.606
 2079TIP3    H2 6181   4.636   7.325   2.663
 2080TIP3   OH2 6182   4.893   3.421   6.361
 2080TIP3    H1 6183   4.895   3.446   6.453
 2080TIP3    H2 6184   4.804   3.442   6.333
 2081TIP3   OH2 6185   2.468   6.786   3.433
 2081TIP3    H1 6186   2.488   6.879   3.429
 2081TIP3    H2 6187   2.391   6.776   3.378
 2082TIP3   OH2 6188   5.863   0.359   6.220
 2082TIP3    H1 6189   5.882   0.282   6.167
 2082TIP3    H2 6190   5.910   0.345   6.302
 2083TIP3   OH2 6191   6.851   3.929   1.152
 2083TIP3    H1 6192   6.835   3.891   1.066
 2083TIP3    H2 6193   6.843   3.855   1.213
 2084TIP3   OH2 6194   6.757   5.438   3.720
 2084TIP3    H1 6195   6.805   5.518   3.743
 2084TIP3    H2 6196   6.688   5.468   3.660
 2085TIP3   OH2 6197   5.660   4.263   5.714
 2085TIP3    H1 6198   5.613   4.222   5.787
 2085TIP3    H2 6199   5.686   4.190   5.659
 2086TIP3   OH2 6200   1.128   3.168   6.504
 2086TIP3    H1 6201   1.145   3.227   6.430
 2086TIP3    H2 6202   1.132   3.080   6.466
 2087TIP3   OH2 6203   3.401   5.307   5.582
 2087TIP3    H1 6204   3.330   5.327   5.642
 2087TIP3    H2 6205   3.461   5.380   5.591
 2088TIP3   OH2 6206   6.617   2.920   5.990
 2088TIP3    H1 6207   6.625   2.941   5.897
 2088TIP3    H2 6208   6.707   2.906   6.020
 2089TIP3   OH2 6209   5.869   6.698   5.852
 2089TIP3    H1 6210   5.842   6.700   5.761
 2089TIP3    H2 6211   5.787   6.703   5.902
 2090TIP3   OH2 6212   0.805   2.664   6.344
 2090TIP3    H1 6213   0.749   2.589   6.325
 2090TIP3    H2 6214   0.768   2.735   6.291
 2091TIP3   OH2 6215   7.571   1.433   6.052
 2091TIP3    H1 6216   7.650   1.483   6.032
 2091TIP3    H2 6217   7.543   1.398   5.968
 2092TIP3   OH2 6218   6.431   3.572   2.286
 2092TIP3    H1 6219   6.346   3.617   2.286
 2092TIP3    H2 6220   6.409   3.480   2.300
 2093TIP3   OH2 6221   4.890   5.114   2.202
 2093TIP3    H1 6222   4.849   5.135   2.118
 2093TIP3    H2 6223   4.846   5.035   2.231
 2094TIP3   OH2 6224   2.012   6.818   3.191
 2094TIP3    H1 6225   1.929   6.866   3.198
 2094TIP3    H2 6226   2.012   6.783   3.102
 2095TIP3   OH2 6227   1.328   4.860   0.628
 2095TIP3    H1 6228   1.305   4.822   0.712
 2095TIP3    H2 6229   1.261   4.828   0.568
 2096TIP3   OH2 6230   2.535   7.745   4.657
 2096TIP3    H1 6231   2.624   7.779   4.646
 2096TIP3    H2 6232   2.514   7.766   4.748
 2097TIP3   OH2 6233   5.935   3.445   6.780
 2097TIP3    H1 6234   5.890   3.526   6.806
 2097TIP3    H2 6235   6.002   3.431   6.847
 2098TIP3   OH2 6236   0.358   5.727   6.014
 2098TIP3    H1 6237   0.321   5.686   5.936
 2098TIP3    H2 6238   0.385   5.814   5.984
 2099TIP3   OH2 6239   5.478   6.222   6.349
 2099TIP3    H1 6240   5.491   6.312   6.321
 2099TIP3    H2 6241   5.490   6.223   6.444
 2100TIP3   OH2 6242   3.069   6.421   3.613
 2100TIP3    H1 6243   2.992   6.367   3.595
 2100TIP3    H2 6244   3.054   6.501   3.563
 2101TIP3   OH2 6245   1.287   2.189   5.062
 2101TIP3    H1 6246   1.231   2.241   5.004
 2101TIP3    H2 6247   1.272   2.226   5.149
 2102TIP3   OH2 6248   3.091   3.218   4.995
 2102TIP3    H1 6249   3.174   3.265   4.990
 2102TIP3    H2 6250   3.083   3.173   4.912
 2103TIP3   OH2 6251   2.376   2.704   3.558
 2103TIP3    H1 6252   2.371   2.799   3.563
 2103TIP3    H2 6253   2.464   2.686   3.525
 2104TIP3   OH2 6254   0.280   2.137   5.446
 2104TIP3    H1 6255   0.314   2.208   5.502
 2104TIP3    H2 6256   0.340   2.064   5.461
 2105TIP3   OH2 6257   7.585   5.412   2.723
 2105TIP3    H1 6258   7.577   5.354   2.648
 2105TIP3    H2 6259   7.628   5.490   2.689
 2106TIP3   OH2 6260   2.007   0.586   3.959
 2106TIP3    H1 6261   1.948   0.656   3.988
 2106TIP3    H2 6262   1.953   0.534   3.900
 2107TIP3   OH2 6263   7.488   5.787   4.583
 2107TIP3    H1 6264   7.419   5.852   4.570
 2107TIP3    H2 6265   7.455   5.707   4.541
 2108TIP3   OH2 6266   5.102   1.828   1.698
 2108TIP3    H1 6267   5.165   1.896   1.673
 2108TIP3    H2 6268   5.119   1.756   1.638
 2109TIP3   OH2 6269   5.739   0.782   0.566
 2109TIP3    H1 6270   5.831   0.792   0.590
 2109TIP3    H2 6271   5.741   0.727   0.487
 2110TIP3   OH2 6272   5.356   5.174   4.571
 2110TIP3    H1 6273   5.418   5.245   4.560
 2110TIP3    H2 6274   5.316   5.163   4.484
 2111TIP3   OH2 6275   0.151   3.502   0.891
 2111TIP3    H1 6276   0.185   3.591   0.878
 2111TIP3    H2 6277   0.202   3.448   0.831
 2112TIP3   OH2 6278   1.168   4.479   4.227
 2112TIP3    H1 6279   1.138   4.389   4.216
 2112TIP3    H2 6280   1.263   4.472   4.236
 2113TIP3   OH2 6281   4.425   4.873   2.514
 2113TIP3    H1 6282   4.468   4.951   2.479
 2113TIP3    H2 6283   4.387   4.831   2.437
 2114TIP3   OH2 6284   3.715   0.982   4.859
 2114TIP3    H1 6285   3.809   0.985   4.843
 2114TIP3    H2 6286   3.687   0.900   4.817
 2115TIP3   OH2 6287   7.508   2.774   4.640
 2115TIP3    H1 6288   7.430   2.767   4.584
 2115TIP3    H2 6289   7.488   2.717   4.714
 2116TIP3   OH2 6290   5.983   5.895   0.453
 2116TIP3    H1 6291   6.079   5.895   0.447
 2116TIP3    H2 6292   5.954   5.845   0.377
 2117TIP3   OH2 6293   2.649   1.740   1.295
 2117TIP3    H1 6294   2.568   1.770   1.335
 2117TIP3    H2 6295   2.718   1.791   1.338
 2118TIP3   OH2 6296   4.273   5.786   6.268
 2118TIP3    H1 6297   4.300   5.801   6.178
 2118TIP3    H2 6298   4.302   5.864   6.316
 2119TIP3   OH2 6299   6.763   6.954   3.792
 2119TIP3    H1 6300   6.764   6.859   3.801
 2119TIP3    H2 6301   6.821   6.986   3.861
 2120TIP3   OH2 6302   6.504   0.073   0.165
 2120TIP3    H1 6303   6.574   0.015   0.192
 2120TIP3    H2 6304   6.538   0.118   0.087
 2121TIP3   OH2 6305   1.905   6.837   5.574
 2121TIP3    H1 6306   1.898   6.744   5.554
 2121TIP3    H2 6307   1.815   6.867   5.584
 2122TIP3   OH2 6308   1.839   6.285   2.509
 2122TIP3    H1 6309   1.799   6.353   2.454
 2122TIP3    H2 6310   1.925   6.271   2.471
 2123TIP3   OH2 6311   3.323   0.477   2.267
 2123TIP3    H1 6312   3.229   0.492   2.256
 2123TIP3    H2 6313   3.354   0.553   2.315
 2124TIP3   OH2 6314   6.299   5.620   4.463
 2124TIP3    H1 6315   6.229   5.637   4.400
 2124TIP3    H2 6316   6.329   5.532   4.443
 2125TIP3   OH2 6317   5.565   1.379   0.160
 2125TIP3    H1 6318   5.541   1.437   0.087
 2125TIP3    H2 6319   5.570   1.292   0.120
 2126TIP3   OH2 6320   8.080   3.213   4.462
 2126TIP3    H1 6321   8.084   3.145   4.395
 2126TIP3    H2 6322   8.107   3.293   4.417
 2127TIP3   OH2 6323   6.993   5.749   1.096
 2127TIP3    H1 6324   7.057   5.744   1.167
 2127TIP3    H2 6325   6.962   5.660   1.085
 2128TIP3   OH2 6326   3.127   7.080   3.795
 2128TIP3    H1 6327   3.033   7.073   3.808
 2128TIP3    H2 6328   3.137   7.102   3.702
 2129TIP3   OH2 6329   5.480   4.106   4.150
 2129TIP3    H1 6330   5.390   4.097   4.180
 2129TIP3    H2 6331   5.532   4.061   4.217
 2130TIP3   OH2 6332   5.224   4.303   5.873
 2130TIP3    H1 6333   5.194   4.308   5.783
 2130TIP3    H2 6334   5.270   4.386   5.888
 2131TIP3   OH2 6335   7.335   5.444   4.742
 2131TIP3    H1 6336   7.276   5.369   4.752
 2131TIP3    H2 6337   7.288   5.503   4.683
 2132TIP3   OH2 6338   1.231   1.971   4.300
 2132TIP3    H1 6339   1.241   1.905   4.368
 2132TIP3    H2 6340   1.156   2.024   4.327
 2133TIP3   OH2 6341   7.140   4.408   0.522
 2133TIP3    H1 6342   7.062   4.374   0.565
 2133TIP3    H2 6343   7.198   4.333   0.513
 2134TIP3   OH2 6344   4.320   5.671   1.408
 2134TIP3    H1 6345   4.290   5.757   1.378
 2134TIP3    H2 6346   4.368   5.635   1.333
 2135TIP3   OH2 6347   7.482   6.990   4.722
 2135TIP3    H1 6348   7.539   6.999   4.646
 2135TIP3    H2 6349   7.541   6.995   4.797
 2136TIP3   OH2 6350   2.133   3.797   2.710
 2136TIP3    H1 6351   2.098   3.790   2.799
 2136TIP3    H2 6352   2.167   3.886   2.705
 2137TIP3   OH2 6353   1.379   4.010   0.751
 2137TIP3    H1 6354   1.361   4.053   0.668
 2137TIP3    H2 6355   1.452   4.060   0.789
 2138TIP3   OH2 6356   7.647   1.490   6.349
 2138TIP3    H1 6357   7.581   1.557   6.366
 2138TIP3    H2 6358   7.615   1.443   6.272
 2139TIP3   OH2 6359   5.562   1.047   5.972
 2139TIP3    H1 6360   5.548   1.082   5.884
 2139TIP3    H2 6361   5.512   1.106   6.029
 2140TIP3   OH2 6362   7.767   6.549   6.169
 2140TIP3    H1 6363   7.787   6.565   6.262
 2140TIP3    H2 6364   7.756   6.637   6.132
 2141TIP3   OH2 6365   7.953   6.176   2.925
 2141TIP3    H1 6366   7.889   6.229   2.973
 2141TIP3    H2 6367   7.949   6.210   2.836
 2142TIP3   OH2 6368   6.997   2.108   0.559
 2142TIP3    H1 6369   6.971   2.155   0.638
 2142TIP3    H2 6370   6.994   2.174   0.490
 2143TIP3   OH2 6371   2.727   4.502   4.845
 2143TIP3    H1 6372   2.752   4.534   4.758
 2143TIP3    H2 6373   2.775   4.420   4.855
 2144TIP3   OH2 6374   5.886   0.797   1.229
 2144TIP3    H1 6375   5.896   0.749   1.312
 2144TIP3    H2 6376   5.880   0.889   1.255
 2145TIP3   OH2 6377   4.875   1.393   6.724
 2145TIP3    H1 6378   4.827   1.360   6.648
 2145TIP3    H2 6379   4.808   1.429   6.781
 2146TIP3   OH2 6380   3.817   4.596   1.501
 2146TIP3    H1 6381   3.825   4.663   1.433
 2146TIP3    H2 6382   3.905   4.562   1.512
 2147TIP3   OH2 6383   4.783   1.184   6.072
 2147TIP3    H1 6384   4.866   1.230   6.058
 2147TIP3    H2 6385   4.799   1.127   6.148
 2148TIP3   OH2 6386   3.712   4.624   5.841
 2148TIP3    H1 6387   3.637   4.597   5.789
 2148TIP3    H2 6388   3.675   4.650   5.925
 2149TIP3   OH2 6389   2.486   1.627   1.115
 2149TIP3    H1 6390   2.537   1.626   1.035
 2149TIP3    H2 6391   2.551   1.638   1.185
 2150TIP3   OH2 6392   7.137   5.823   2.803
 2150TIP3    H1 6393   7.128   5.798   2.711
 2150TIP3    H2 6394   7.176   5.746   2.845
 2151TIP3   OH2 6395   4.916   3.078   3.622
 2151TIP3    H1 6396   4.887   2.993   3.588
 2151TIP3    H2 6397   4.879   3.142   3.561
 2152TIP3   OH2 6398   7.641   0.787   0.172
 2152TIP3    H1 6399   7.558   0.747   0.199
 2152TIP3    H2 6400   7.614   0.866   0.125
 2153TIP3   OH2 6401   6.066   1.953   6.086
 2153TIP3    H1 6402   5.973   1.976   6.091
 2153TIP3    H2 6403   6.082   1.903   6.166
 2154TIP3   OH2 6404   3.783   3.847   5.540
 2154TIP3    H1 6405   3.718   3.802   5.486
 2154TIP3    H2 6406   3.806   3.925   5.490
 2155TIP3   OH2 6407   7.471   2.338   3.464
 2155TIP3    H1 6408   7.401   2.372   3.520
 2155TIP3    H2 6409   7.547   2.333   3.522
 2156TIP3   OH2 6410  -0.030   5.323   3.503
 2156TIP3    H1 6411  -0.006   5.394   3.442
 2156TIP3    H2 6412  -0.038   5.246   3.447
 2157TIP3   OH2 6413   2.065   1.867   0.182
 2157TIP3    H1 6414   1.976   1.899   0.193
 2157TIP3    H2 6415   2.117   1.918   0.245
 2158TIP3   OH2 6416   3.829   1.153   5.903
 2158TIP3    H1 6417   3.827   1.109   5.818
 2158TIP3    H2 6418   3.914   1.129   5.940
 2159TIP3   OH2 6419   5.024   4.740   1.011
 2159TIP3    H1 6420   4.970   4.811   1.047
 2159TIP3    H2 6421   5.109   4.749   1.054
 2160TIP3   OH2 6422   6.831   2.539   2.568
 2160TIP3    H1 6423   6.918   2.506   2.549
 2160TIP3    H2 6424   6.783   2.529   2.485
 2161TIP3   OH2 6425   7.872   4.873   5.570
 2161TIP3    H1 6426   7.777   4.865   5.559
 2161TIP3    H2 6427   7.884   4.890   5.664
 2162TIP3   OH2 6428   4.180   1.554   2.480
 2162TIP3    H1 6429   4.224   1.486   2.428
 2162TIP3    H2 6430   4.149   1.617   2.416
 2163TIP3   OH2 6431   3.125   2.427   4.809
 2163TIP3    H1 6432   3.126   2.485   4.734
 2163TIP3    H2 6433   3.090   2.480   4.881
 2164TIP3   OH2 6434   0.268   3.422   2.543
 2164TIP3    H1 6435   0.241   3.335   2.513
 2164TIP3    H2 6436   0.214   3.482   2.491
 2165TIP3   OH2 6437   5.609   3.216   2.229
 2165TIP3    H1 6438   5.634   3.291   2.175
 2165TIP3    H2 6439   5.594   3.145   2.167
 2166TIP3   OH2 6440   5.688   7.384   0.144
 2166TIP3    H1 6441   5.672   7.379   0.238
 2166TIP3    H2 6442   5.628   7.319   0.106
 2167TIP3   OH2 6443   6.818   1.816   1.720
 2167TIP3    H1 6444   6.895   1.759   1.708
 2167TIP3    H2 6445   6.770   1.777   1.793
 2168TIP3   OH2 6446   1.842   7.009   6.112
 2168TIP3    H1 6447   1.885   6.971   6.036
 2168TIP3    H2 6448   1.764   7.052   6.077
 2169TIP3   OH2 6449   1.006   5.560   3.740
 2169TIP3    H1 6450   0.943   5.488   3.727
 2169TIP3    H2 6451   1.090   5.523   3.715
 2170TIP3   OH2 6452   4.934   2.557   3.975
 2170TIP3    H1 6453   4.902   2.537   4.063
 2170TIP3    H2 6454   5.009   2.499   3.963
 2171TIP3   OH2 6455   2.873   6.669   2.201
 2171TIP3    H1 6456   2.893   6.761   2.219
 2171TIP3    H2 6457   2.860   6.665   2.106
 2172TIP3   OH2 6458   0.369   5.276   2.256
 2172TIP3    H1 6459   0.395   5.192   2.217
 2172TIP3    H2 6460   0.388   5.265   2.350
 2173TIP3   OH2 6461   4.784   6.666   3.295
 2173TIP3    H1 6462   4.748   6.742   3.250
 2173TIP3    H2 6463   4.721   6.596   3.280
 2174TIP3   OH2 6464   3.149   3.564   4.798
 2174TIP3    H1 6465   3.162   3.629   4.867
 2174TIP3    H2 6466   3.216   3.497   4.816
 2175TIP3   OH2 6467   1.869   0.207   0.637
 2175TIP3    H1 6468   1.871   0.288   0.587
 2175TIP3    H2 6469   1.825   0.230   0.719
 2176TIP3   OH2 6470   2.071   5.052   5.768
 2176TIP3    H1 6471   1.996   5.095   5.810
 2176TIP3    H2 6472   2.102   5.114   5.703
 2177TIP3   OH2 6473   2.155   1.780   6.073
 2177TIP3    H1 6474   2.185   1.728   5.998
 2177TIP3    H2 6475   2.232   1.789   6.129
 2178TIP3   OH2 6476   5.631   7.185   0.654
 2178TIP3    H1 6477   5.591   7.135   0.725
 2178TIP3    H2 6478   5.678   7.256   0.698
 2179TIP3   OH2 6479   6.294   6.938   2.153
 2179TIP3    H1 6480   6.249   6.912   2.073
 2179TIP3    H2 6481   6.278   6.866   2.214
 2180TIP3   OH2 6482   8.107   3.308   0.313
 2180TIP3    H1 6483   8.194   3.337   0.287
 2180TIP3    H2 6484   8.096   3.223   0.269
 2181TIP3   OH2 6485   5.932   0.218   5.675
 2181TIP3    H1 6486   6.014   0.245   5.634
 2181TIP3    H2 6487   5.918   0.282   5.745
 2182TIP3   OH2 6488   7.180   7.258   1.645
 2182TIP3    H1 6489   7.093   7.226   1.670
 2182TIP3    H2 6490   7.162   7.318   1.572
 2183TIP3   OH2 6491   0.585   5.384   4.212
 2183TIP3    H1 6492   0.650   5.331   4.258
 2183TIP3    H2 6493   0.523   5.410   4.280
 2184TIP3   OH2 6494   8.146   3.647   4.997
 2184TIP3    H1 6495   8.110   3.597   4.924
 2184TIP3    H2 6496   8.203   3.585   5.043
 2185TIP3   OH2 6497   3.065   5.742   4.508
 2185TIP3    H1 6498   3.046   5.818   4.563
 2185TIP3    H2 6499   3.007   5.674   4.541
 2186TIP3   OH2 6500   6.550   5.374   3.224
 2186TIP3    H1 6501   6.513   5.397   3.309
 2186TIP3    H2 6502   6.612   5.303   3.244
 2187TIP3   OH2 6503   7.775   4.988   3.577
 2187TIP3    H1 6504   7.848   5.015   3.633
 2187TIP3    H2 6505   7.817   4.964   3.494
 2188TIP3   OH2 6506   5.892   6.191   4.676
 2188TIP3    H1 6507   5.819   6.253   4.674
 2188TIP3    H2 6508   5.870   6.125   4.610
 2189TIP3   OH2 6509   1.692   5.166   3.820
 2189TIP3    H1 6510   1.713   5.214   3.900
 2189TIP3    H2 6511   1.597   5.165   3.816
 2190TIP3   OH2 6512   3.003   2.558   4.568
 2190TIP3    H1 6513   2.928   2.548   4.627
 2190TIP3    H2 6514   2.981   2.634   4.514
 2191TIP3   OH2 6515   1.188   2.945   6.102
 2191TIP3    H1 6516   1.110   2.972   6.055
 2191TIP3    H2 6517   1.243   3.023   6.106
 2192TIP3   OH2 6518   4.225   7.508   5.724
 2192TIP3    H1 6519   4.311   7.547   5.743
 2192TIP3    H2 6520   4.185   7.497   5.811
 2193TIP3   OH2 6521   3.233   2.878   6.102
 2193TIP3    H1 6522   3.299   2.881   6.033
 2193TIP3    H2 6523   3.283   2.888   6.183
 2194TIP3   OH2 6524   2.761   7.612   3.328
 2194TIP3    H1 6525   2.682   7.645   3.284
 2194TIP3    H2 6526   2.742   7.520   3.347
 2195TIP3   OH2 6527   5.441   1.115   2.398
 2195TIP3    H1 6528   5.426   1.105   2.492
 2195TIP3    H2 6529   5.428   1.209   2.381
 2196TIP3   OH2 6530   0.312   7.715   2.399
 2196TIP3    H1 6531   0.275   7.803   2.391
 2196TIP3    H2 6532   0.239   7.660   2.426
 2197TIP3   OH2 6533   2.592   1.372   6.231
 2197TIP3    H1 6534   2.687   1.364   6.230
 2197TIP3    H2 6535   2.560   1.282   6.231
 2198TIP3   OH2 6536   2.670   2.129   5.652
 2198TIP3    H1 6537   2.646   2.086   5.570
 2198TIP3    H2 6538   2.737   2.072   5.690
 2199TIP3   OH2 6539   4.162   0.729   4.308
 2199TIP3    H1 6540   4.120   0.643   4.314
 2199TIP3    H2 6541   4.158   0.751   4.215
 2200TIP3   OH2 6542   1.095   2.022   2.621
 2200TIP3    H1 6543   1.189   2.016   2.635
 2200TIP3    H2 6544   1.056   1.991   2.703
 2201TIP3   OH2 6545   6.077   7.311   2.312
 2201TIP3    H1 6546   5.991   7.272   2.295
 2201TIP3    H2 6547   6.066   7.358   2.395
 2202TIP3   OH2 6548   3.604   0.884   5.536
 2202TIP3    H1 6549   3.652   0.813   5.493
 2202TIP3    H2 6550   3.572   0.939   5.465
 2203TIP3   OH2 6551   3.458   1.520   1.988
 2203TIP3    H1 6552   3.369   1.553   1.980
 2203TIP3    H2 6553   3.469   1.501   2.081
 2204TIP3   OH2 6554   4.470   7.261   4.685
 2204TIP3    H1 6555   4.549   7.276   4.736
 2204TIP3    H2 6556   4.472   7.168   4.663
 2205TIP3   OH2 6557   2.380   1.699   5.826
 2205TIP3    H1 6558   2.416   1.779   5.865
 2205TIP3    H2 6559   2.391   1.632   5.894
 2206TIP3   OH2 6560   5.246   3.918   1.110
 2206TIP3    H1 6561   5.243   3.860   1.186
 2206TIP3    H2 6562   5.339   3.933   1.094
 2207TIP3   OH2 6563   1.563   3.961   5.199
 2207TIP3    H1 6564   1.620   3.890   5.231
 2207TIP3    H2 6565   1.570   3.956   5.104
 2208TIP3   OH2 6566   6.636   7.353   2.308
 2208TIP3    H1 6567   6.695   7.428   2.317
 2208TIP3    H2 6568   6.692   7.282   2.277
 2209TIP3   OH2 6569   3.610   4.873   4.173
 2209TIP3    H1 6570   3.539   4.809   4.180
 2209TIP3    H2 6571   3.679   4.839   4.229
 2210TIP3   OH2 6572   3.987   6.020   0.798
 2210TIP3    H1 6573   3.983   5.966   0.719
 2210TIP3    H2 6574   3.931   6.095   0.779
 2211TIP3   OH2 6575   2.342   3.193   5.483
 2211TIP3    H1 6576   2.385   3.258   5.539
 2211TIP3    H2 6577   2.257   3.232   5.461
 2212TIP3   OH2 6578   7.491   4.730   1.539
 2212TIP3    H1 6579   7.480   4.637   1.559
 2212TIP3    H2 6580   7.465   4.738   1.447
 2213TIP3   OH2 6581   6.120   7.573   0.414
 2213TIP3    H1 6582   6.149   7.512   0.347
 2213TIP3    H2 6583   6.041   7.533   0.450
 2214TIP3   OH2 6584   5.857   0.450   1.394
 2214TIP3    H1 6585   5.884   0.390   1.464
 2214TIP3    H2 6586   5.872   0.401   1.313
 2215TIP3   OH2 6587   8.065   5.676   6.634
 2215TIP3    H1 6588   8.105   5.596   6.668
 2215TIP3    H2 6589   8.138   5.724   6.594
 2216TIP3   OH2 6590   6.862   1.045  -0.006
 2216TIP3    H1 6591   6.823   1.132  -0.016
 2216TIP3    H2 6592   6.929   1.056   0.061
 2217TIP3   OH2 6593   4.401   0.102   1.814
 2217TIP3    H1 6594   4.358   0.029   1.859
 2217TIP3    H2 6595   4.492   0.072   1.803
 2218TIP3   OH2 6596   4.493   0.710   3.998
 2218TIP3    H1 6597   4.415   0.659   3.978
 2218TIP3    H2 6598   4.461   0.794   4.031
 2219TIP3   OH2 6599   2.614   3.778   5.526
 2219TIP3    H1 6600   2.660   3.705   5.566
 2219TIP3    H2 6601   2.583   3.830   5.600
 2220TIP3   OH2 6602   0.709   0.056   1.914
 2220TIP3    H1 6603   0.692  -0.033   1.942
 2220TIP3    H2 6604   0.629   0.083   1.869
 2221TIP3   OH2 6605   1.125   3.561   6.386
 2221TIP3    H1 6606   1.079   3.480   6.365
 2221TIP3    H2 6607   1.055   3.627   6.392
 2222TIP3   OH2 6608   0.764   4.077   2.750
 2222TIP3    H1 6609   0.782   4.170   2.731
 2222TIP3    H2 6610   0.719   4.078   2.834
 2223TIP3   OH2 6611   1.408   1.795   6.417
 2223TIP3    H1 6612   1.400   1.704   6.386
 2223TIP3    H2 6613   1.466   1.837   6.353
 2224TIP3   OH2 6614   4.842   2.033   5.569
 2224TIP3    H1 6615   4.924   2.061   5.609
 2224TIP3    H2 6616   4.789   2.112   5.565
 2225TIP3   OH2 6617   2.345   3.004   6.560
 2225TIP3    H1 6618   2.432   3.044   6.548
 2225TIP3    H2 6619   2.354   2.950   6.639
 2226TIP3   OH2 6620   3.908   2.074   6.229
 2226TIP3    H1 6621   3.883   2.140   6.293
 2226TIP3    H2 6622   4.003   2.084   6.219
 2227TIP3   OH2 6623   6.222   1.357   3.262
 2227TIP3    H1 6624   6.256   1.267   3.263
 2227TIP3    H2 6625   6.127   1.346   3.251
 2228TIP3   OH2 6626   5.678   4.593   4.786
 2228TIP3    H1 6627   5.727   4.510   4.785
 2228TIP3    H2 6628   5.732   4.651   4.840
 2229TIP3   OH2 6629   6.703   3.139   2.882
 2229TIP3    H1 6630   6.633   3.155   2.945
 2229TIP3    H2 6631   6.776   3.191   2.913
 2230TIP3   OH2 6632   4.821   0.637   2.165
 2230TIP3    H1 6633   4.747   0.669   2.218
 2230TIP3    H2 6634   4.829   0.702   2.095
 2231TIP3   OH2 6635   3.648   0.662   0.743
 2231TIP3    H1 6636   3.671   0.750   0.712
 2231TIP3    H2 6637   3.601   0.623   0.669
 2232TIP3   OH2 6638   5.976   2.661   4.977
 2232TIP3    H1 6639   6.021   2.741   4.953
 2232TIP3    H2 6640   5.988   2.603   4.902
 2233TIP3   OH2 6641   3.953   3.336   1.664
 2233TIP3    H1 6642   4.000   3.420   1.665
 2233TIP3    H2 6643   4.012   3.278   1.616
 2234TIP3   OH2 6644   4.378   1.922   2.400
 2234TIP3    H1 6645   4.344   2.009   2.380
 2234TIP3    H2 6646   4.458   1.914   2.348
 2235TIP3   OH2 6647   7.282   0.320   0.641
 2235TIP3    H1 6648   7.365   0.291   0.680
 2235TIP3    H2 6649   7.235   0.364   0.712
 2236TIP3   OH2 6650   3.823   0.953   6.562
 2236TIP3    H1 6651   3.840   0.952   6.468
 2236TIP3    H2 6652   3.793   1.042   6.580
 2237TIP3   OH2 6653   7.137   7.419   3.711
 2237TIP3    H1 6654   7.230   7.408   3.691
 2237TIP3    H2 6655   7.106   7.331   3.733
 2238TIP3   OH2 6656   7.942   6.374   6.041
 2238TIP3    H1 6657   7.919   6.467   6.043
 2238TIP3    H2 6658   8.036   6.372   6.056
 2239TIP3   OH2 6659   0.707   5.960   3.654
 2239TIP3    H1 6660   0.618   5.987   3.677
 2239TIP3    H2 6661   0.716   5.985   3.562
 2240TIP3   OH2 6662   4.379   7.299   4.950
 2240TIP3    H1 6663   4.422   7.226   4.906
 2240TIP3    H2 6664   4.309   7.259   5.001
 2241TIP3   OH2 6665   6.476   0.683   5.372
 2241TIP3    H1 6666   6.537   0.629   5.322
 2241TIP3    H2 6667   6.413   0.714   5.307
 2242TIP3   OH2 6668   1.988   5.582   2.475
 2242TIP3    H1 6669   2.043   5.656   2.450
 2242TIP3    H2 6670   1.953   5.548   2.393
 2243TIP3   OH2 6671   0.538   0.129   3.059
 2243TIP3    H1 6672   0.443   0.121   3.068
 2243TIP3    H2 6673   0.572   0.047   3.095
 2244TIP3   OH2 6674   3.849   2.141   3.083
 2244TIP3    H1 6675   3.924   2.085   3.063
 2244TIP3    H2 6676   3.887   2.226   3.101
 2245TIP3   OH2 6677   1.910   6.446   6.122
 2245TIP3    H1 6678   1.952   6.528   6.150
 2245TIP3    H2 6679   1.951   6.426   6.038
 2246TIP3   OH2 6680   6.724  -0.061   2.788
 2246TIP3    H1 6681   6.754   0.028   2.774
 2246TIP3    H2 6682   6.635  -0.052   2.822
 2247TIP3   OH2 6683   3.048   0.898   6.753
 2247TIP3    H1 6684   3.051   0.978   6.806
 2247TIP3    H2 6685   3.121   0.908   6.691
 2248TIP3   OH2 6686   0.759   6.231   4.021
 2248TIP3    H1 6687   0.670   6.204   3.998
 2248TIP3    H2 6688   0.754   6.254   4.114
 2249TIP3   OH2 6689   8.171   2.126   2.847
 2249TIP3    H1 6690   8.248   2.109   2.792
 2249TIP3    H2 6691   8.206   2.169   2.925
 2250TIP3   OH2 6692   7.682   4.012   6.027
 2250TIP3    H1 6693   7.634   4.095   6.037
 2250TIP3    H2 6694   7.762   4.037   5.981
 2251TIP3   OH2 6695   5.581   7.037   6.485
 2251TIP3    H1 6696   5.636   7.028   6.406
 2251TIP3    H2 6697   5.627   6.987   6.552
 2252TIP3   OH2 6698   4.538   2.266   4.072
 2252TIP3    H1 6699   4.576   2.308   3.995
 2252TIP3    H2 6700   4.445   2.290   4.070
 2253TIP3   OH2 6701   7.521   4.167   0.538
 2253TIP3    H1 6702   7.520   4.120   0.621
 2253TIP3    H2 6703   7.567   4.249   0.558
 2254TIP3   OH2 6704   8.081   0.098   0.620
 2254TIP3    H1 6705   8.034   0.171   0.580
 2254TIP3    H2 6706   8.041   0.088   0.707
 2255TIP3   OH2 6707   2.699   0.051   1.254
 2255TIP3    H1 6708   2.753  -0.028   1.247
 2255TIP3    H2 6709   2.632   0.041   1.187
 2256TIP3   OH2 6710   2.388   3.590   4.474
 2256TIP3    H1 6711   2.339   3.671   4.464
 2256TIP3    H2 6712   2.322   3.521   4.469
 2257TIP3   OH2 6713   6.491   1.861   1.630
 2257TIP3    H1 6714   6.562   1.920   1.604
 2257TIP3    H2 6715   6.508   1.780   1.582
 2258TIP3   OH2 6716   4.852   0.097   6.638
 2258TIP3    H1 6717   4.777   0.050   6.676
 2258TIP3    H2 6718   4.920   0.090   6.705
 2259TIP3   OH2 6719   1.259   1.940   4.844
 2259TIP3    H1 6720   1.261   2.012   4.781
 2259TIP3    H2 6721   1.263   1.982   4.929
 2260TIP3   OH2 6722   0.846   6.580   5.452
 2260TIP3    H1 6723   0.887   6.632   5.521
 2260TIP3    H2 6724   0.918   6.558   5.393
 2261TIP3   OH2 6725   3.131   1.189   5.140
 2261TIP3    H1 6726   3.143   1.122   5.073
 2261TIP3    H2 6727   3.220   1.208   5.171
 2262TIP3   OH2 6728   1.500   6.001   2.436
 2262TIP3    H1 6729   1.541   6.022   2.520
 2262TIP3    H2 6730   1.437   5.932   2.456
 2263TIP3   OH2 6731   6.550   2.716   3.818
 2263TIP3    H1 6732   6.457   2.719   3.799
 2263TIP3    H2 6733   6.556   2.736   3.912
 2264TIP3   OH2 6734   5.285   0.960   2.678
 2264TIP3    H1 6735   5.263   0.922   2.763
 2264TIP3    H2 6736   5.202   0.963   2.631
 2265TIP3   OH2 6737   0.084   3.607   4.284
 2265TIP3    H1 6738   0.145   3.678   4.304
 2265TIP3    H2 6739   0.140   3.529   4.282
 2266TIP3   OH2 6740   6.575   6.159   4.508
 2266TIP3    H1 6741   6.622   6.236   4.476
 2266TIP3    H2 6742   6.613   6.143   4.595
 2267TIP3   OH2 6743   5.209   7.540   0.015
 2267TIP3    H1 6744   5.302   7.558   0.001
 2267TIP3    H2 6745   5.200   7.535   0.110
 2268TIP3   OH2 6746   0.459   5.171   4.850
 2268TIP3    H1 6747   0.366   5.178   4.871
 2268TIP3    H2 6748   0.503   5.176   4.935
 2269TIP3   OH2 6749   5.824   1.201   4.289
 2269TIP3    H1 6750   5.883   1.184   4.215
 2269TIP3    H2 6751   5.764   1.268   4.256
 2270TIP3   OH2 6752   7.055   4.233   4.729
 2270TIP3    H1 6753   6.973   4.202   4.768
 2270TIP3    H2 6754   7.030   4.261   4.641
 2271TIP3   OH2 6755   6.812   3.241   4.975
 2271TIP3    H1 6756   6.747   3.229   5.045
 2271TIP3    H2 6757   6.897   3.232   5.019
 2272TIP3   OH2 6758   6.131   4.437   0.635
 2272TIP3    H1 6759   6.211   4.436   0.688
 2272TIP3    H2 6760   6.162   4.438   0.544
 2273TIP3   OH2 6761   7.657   6.495   5.499
 2273TIP3    H1 6762   7.727   6.477   5.436
 2273TIP3    H2 6763   7.664   6.589   5.515
 2274TIP3   OH2 6764   1.100   6.137   5.162
 2274TIP3    H1 6765   1.049   6.160   5.085
 2274TIP3    H2 6766   1.185   6.110   5.127
 2275TIP3   OH2 6767   3.914   4.425   5.803
 2275TIP3    H1 6768   3.836   4.480   5.815
 2275TIP3    H2 6769   3.945   4.447   5.715
 2276TIP3   OH2 6770   0.838   4.336   2.654
 2276TIP3    H1 6771   0.749   4.357   2.680
 2276TIP3    H2 6772   0.887   4.417   2.666
 2277TIP3   OH2 6773   8.255   0.951   5.540
 2277TIP3    H1 6774   8.304   1.023   5.502
 2277TIP3    H2 6775   8.300   0.872   5.509
 2278TIP3   OH2 6776   1.714   4.962   6.443
 2278TIP3    H1 6777   1.659   4.886   6.459
 2278TIP3    H2 6778   1.722   5.006   6.529
 2279TIP3   OH2 6779   6.266   2.188   4.016
 2279TIP3    H1 6780   6.305   2.101   4.026
 2279TIP3    H2 6781   6.334   2.248   4.047
 2280TIP3   OH2 6782   0.833   0.406   2.943
 2280TIP3    H1 6783   0.752   0.400   2.994
 2280TIP3    H2 6784   0.892   0.343   2.985
 2281TIP3   OH2 6785   0.333   2.808   0.526
 2281TIP3    H1 6786   0.420   2.794   0.488
 2281TIP3    H2 6787   0.314   2.727   0.573
 2282TIP3   OH2 6788   8.019   4.570   3.411
 2282TIP3    H1 6789   7.972   4.490   3.433
 2282TIP3    H2 6790   8.104   4.540   3.379
 2283TIP3   OH2 6791   2.589   2.941   2.240
 2283TIP3    H1 6792   2.630   3.010   2.188
 2283TIP3    H2 6793   2.632   2.946   2.325
 2284TIP3   OH2 6794   2.137   1.774   4.709
 2284TIP3    H1 6795   2.158   1.684   4.735
 2284TIP3    H2 6796   2.042   1.775   4.700
 2285TIP3   OH2 6797   2.615   3.415   4.511
 2285TIP3    H1 6798   2.651   3.460   4.587
 2285TIP3    H2 6799   2.533   3.461   4.492
 2286TIP3   OH2 6800   7.216   6.212   5.579
 2286TIP3    H1 6801   7.310   6.224   5.586
 2286TIP3    H2 6802   7.180   6.301   5.573
 2287TIP3   OH2 6803   2.892   7.204   6.794
 2287TIP3    H1 6804   2.798   7.208   6.808
 2287TIP3    H2 6805   2.914   7.289   6.756
 2288TIP3   OH2 6806   7.324   4.732   5.580
 2288TIP3    H1 6807   7.238   4.690   5.574
 2288TIP3    H2 6808   7.383   4.661   5.604
 2289TIP3   OH2 6809   0.119   6.313   0.486
 2289TIP3    H1 6810   0.115   6.223   0.455
 2289TIP3    H2 6811   0.029   6.333   0.515
 2290TIP3   OH2 6812   4.529   2.645   5.544
 2290TIP3    H1 6813   4.617   2.617   5.519
 2290TIP3    H2 6814   4.494   2.570   5.592
 2291TIP3   OH2 6815   5.906   2.708   2.502
 2291TIP3    H1 6816   5.849   2.660   2.561
 2291TIP3    H2 6817   5.995   2.692   2.534
 2292TIP3   OH2 6818   5.014   5.910   2.659
 2292TIP3    H1 6819   4.933   5.961   2.656
 2292TIP3    H2 6820   5.053   5.920   2.572
 2293TIP3   OH2 6821   5.039   4.003   2.658
 2293TIP3    H1 6822   5.083   4.053   2.727
 2293TIP3    H2 6823   4.950   3.991   2.691
 2294TIP3   OH2 6824   0.279   0.874   3.437
 2294TIP3    H1 6825   0.370   0.892   3.461
 2294TIP3    H2 6826   0.229   0.894   3.516
 2295TIP3   OH2 6827   3.016   2.610   1.750
 2295TIP3    H1 6828   3.048   2.621   1.661
 2295TIP3    H2 6829   2.976   2.694   1.772
 2296TIP3   OH2 6830   4.728   6.306   5.917
 2296TIP3    H1 6831   4.644   6.265   5.899
 2296TIP3    H2 6832   4.723   6.391   5.874
 2297TIP3   OH2 6833   4.843   3.157   1.817
 2297TIP3    H1 6834   4.911   3.188   1.877
 2297TIP3    H2 6835   4.785   3.232   1.805
 2298TIP3   OH2 6836   2.405   3.956   0.789
 2298TIP3    H1 6837   2.352   3.877   0.790
 2298TIP3    H2 6838   2.398   3.989   0.699
 2299TIP3   OH2 6839   1.899   1.189   1.312
 2299TIP3    H1 6840   1.960   1.262   1.299
 2299TIP3    H2 6841   1.954   1.117   1.343
 2300TIP3   OH2 6842   5.618   2.698   4.338
 2300TIP3    H1 6843   5.634   2.677   4.430
 2300TIP3    H2 6844   5.591   2.790   4.340
 2301TIP3   OH2 6845   6.562   0.667   6.323
 2301TIP3    H1 6846   6.634   0.604   6.316
 2301TIP3    H2 6847   6.505   0.647   6.248
 2302TIP3   OH2 6848   4.817   5.587   2.045
 2302TIP3    H1 6849   4.755   5.582   2.118
 2302TIP3    H2 6850   4.879   5.516   2.061
 2303TIP3   OH2 6851   3.102   3.167   6.784
 2303TIP3    H1 6852   3.045   3.241   6.763
 2303TIP3    H2 6853   3.086   3.104   6.713
 2304TIP3   OH2 6854   3.050   0.515   2.239
 2304TIP3    H1 6855   3.045   0.550   2.150
 2304TIP3    H2 6856   2.981   0.450   2.244
 2305TIP3   OH2 6857   5.340   4.909   0.795
 2305TIP3    H1 6858   5.330   4.998   0.829
 2305TIP3    H2 6859   5.352   4.854   0.872
 2306TIP3   OH2 6860   1.290   0.304   2.926
 2306TIP3    H1 6861   1.358   0.267   2.870
 2306TIP3    H2 6862   1.240   0.362   2.869
 2307TIP3   OH2 6863   6.205   6.446   3.355
 2307TIP3    H1 6864   6.269   6.403   3.299
 2307TIP3    H2 6865   6.252   6.465   3.436
 2308TIP3   OH2 6866   7.422   6.382   4.614
 2308TIP3    H1 6867   7.486   6.421   4.674
 2308TIP3    H2 6868   7.344   6.370   4.668
 2309TIP3   OH2 6869   2.789   3.338   4.794
 2309TIP3    H1 6870   2.805   3.310   4.704
 2309TIP3    H2 6871   2.856   3.404   4.811
 2310TIP3   OH2 6872   7.071   6.280   2.764
 2310TIP3    H1 6873   7.085   6.359   2.816
 2310TIP3    H2 6874   7.120   6.212   2.810
 2311TIP3   OH2 6875   5.717   3.690   6.326
 2311TIP3    H1 6876   5.691   3.780   6.345
 2311TIP3    H2 6877   5.635   3.645   6.306
 2312TIP3   OH2 6878   5.964   3.043   2.209
 2312TIP3    H1 6879   6.009   3.045   2.293
 2312TIP3    H2 6880   5.951   3.135   2.186
 2313TIP3   OH2 6881   1.070   1.920   5.263
 2313TIP3    H1 6882   1.154   1.966   5.268
 2313TIP3    H2 6883   1.090   1.832   5.294
 2314TIP3   OH2 6884   6.577   1.351   0.510
 2314TIP3    H1 6885   6.620   1.342   0.425
 2314TIP3    H2 6886   6.616   1.282   0.564
 2315TIP3   OH2 6887   7.842   1.353   3.531
 2315TIP3    H1 6888   7.889   1.273   3.509
 2315TIP3    H2 6889   7.909   1.411   3.568
 2316TIP3   OH2 6890   4.385   1.778   3.572
 2316TIP3    H1 6891   4.396   1.850   3.634
 2316TIP3    H2 6892   4.291   1.774   3.557
 2317TIP3   OH2 6893   6.230   0.801   3.362
 2317TIP3    H1 6894   6.190   0.736   3.304
 2317TIP3    H2 6895   6.316   0.765   3.383
 2318TIP3   OH2 6896   2.954   7.502   3.693
 2318TIP3    H1 6897   2.970   7.466   3.780
 2318TIP3    H2 6898   2.987   7.592   3.698
 2319TIP3   OH2 6899   2.963   3.845   4.763
 2319TIP3    H1 6900   2.894   3.886   4.817
 2319TIP3    H2 6901   3.009   3.787   4.824
 2320TIP3   OH2 6902   0.077   0.184   0.560
 2320TIP3    H1 6903  -0.004   0.140   0.584
 2320TIP3    H2 6904   0.145   0.136   0.607
 2321TIP3   OH2 6905   7.737   7.514   1.230
 2321TIP3    H1 6906   7.708   7.423   1.240
 2321TIP3    H2 6907   7.790   7.531   1.308
 2322TIP3   OH2 6908   0.745   6.338   5.148
 2322TIP3    H1 6909   0.756   6.283   5.071
 2322TIP3    H2 6910   0.834   6.351   5.181
 2323TIP3   OH2 6911   3.241   5.646   5.161
 2323TIP3    H1 6912   3.272   5.619   5.247
 2323TIP3    H2 6913   3.156   5.686   5.178
 2324TIP3   OH2 6914   5.623   7.611   5.186
 2324TIP3    H1 6915   5.653   7.561   5.262
 2324TIP3    H2 6916   5.702   7.649   5.149
 2325TIP3   OH2 6917   1.316   1.044   6.492
 2325TIP3    H1 6918   1.246   1.090   6.538
 2325TIP3    H2 6919   1.345   0.977   6.554
 2326TIP3   OH2 6920   3.373   6.896   5.724
 2326TIP3    H1 6921   3.319   6.886   5.646
 2326TIP3    H2 6922   3.447   6.950   5.696
 2327TIP3   OH2 6923   7.629   4.943   5.057
 2327TIP3    H1 6924   7.590   5.016   5.008
 2327TIP3    H2 6925   7.559   4.877   5.062
 2328TIP3   OH2 6926   0.108   6.393   4.220
 2328TIP3    H1 6927   0.038   6.457   4.213
 2328TIP3    H2 6928   0.186   6.438   4.186
 2329TIP3   OH2 6929   3.124   4.426   5.450
 2329TIP3    H1 6930   3.211   4.422   5.411
 2329TIP3    H2 6931   3.102   4.519   5.450
 2330TIP3   OH2 6932   5.895   3.774   5.421
 2330TIP3    H1 6933   5.857   3.780   5.333
 2330TIP3    H2 6934   5.858   3.693   5.457
 2331TIP3   OH2 6935   4.905   5.870   5.189
 2331TIP3    H1 6936   4.989   5.871   5.235
 2331TIP3    H2 6937   4.919   5.812   5.114
 2332TIP3   OH2 6938   3.392   4.731   4.250
 2332TIP3    H1 6939   3.398   4.659   4.313
 2332TIP3    H2 6940   3.305   4.721   4.211
 2333TIP3   OH2 6941   5.541   4.512   0.648
 2333TIP3    H1 6942   5.551   4.444   0.582
 2333TIP3    H2 6943   5.496   4.584   0.604
 2334TIP3   OH2 6944   2.066   4.173   0.052
 2334TIP3    H1 6945   2.067   4.106   0.120
 2334TIP3    H2 6946   1.980   4.163   0.009
 2335TIP3   OH2 6947   0.773   7.147   1.238
 2335TIP3    H1 6948   0.862   7.128   1.208
 2335TIP3    H2 6949   0.717   7.098   1.179
 2336TIP3   OH2 6950   0.418   2.998   1.845
 2336TIP3    H1 6951   0.509   3.023   1.857
 2336TIP3    H2 6952   0.414   2.961   1.757
 2337TIP3   OH2 6953   6.427   7.544   5.215
 2337TIP3    H1 6954   6.408   7.584   5.130
 2337TIP3    H2 6955   6.522   7.536   5.217
 2338TIP3   OH2 6956   2.023   4.040   1.772
 2338TIP3    H1 6957   2.002   3.961   1.723
 2338TIP3    H2 6958   1.983   4.111   1.721
 2339TIP3   OH2 6959   5.095   5.118   2.571
 2339TIP3    H1 6960   5.019   5.153   2.525
 2339TIP3    H2 6961   5.063   5.103   2.661
 2340TIP3   OH2 6962   8.269   3.956   4.844
 2340TIP3    H1 6963   8.201   3.907   4.797
 2340TIP3    H2 6964   8.346   3.951   4.787
 2341TIP3   OH2 6965   0.519   0.297   5.041
 2341TIP3    H1 6966   0.583   0.257   4.981
 2341TIP3    H2 6967   0.567   0.367   5.085
 2342TIP3   OH2 6968   0.080   1.977   3.919
 2342TIP3    H1 6969   0.128   2.060   3.915
 2342TIP3    H2 6970   0.098   1.934   3.836
 2343TIP3   OH2 6971   0.450   2.116   3.889
 2343TIP3    H1 6972   0.396   2.195   3.881
 2343TIP3    H2 6973   0.494   2.126   3.973
 2344TIP3   OH2 6974   4.254   3.010   2.859
 2344TIP3    H1 6975   4.191   3.071   2.820
 2344TIP3    H2 6976   4.239   3.018   2.953
 2345TIP3   OH2 6977   3.938   0.917   3.399
 2345TIP3    H1 6978   3.953   0.999   3.350
 2345TIP3    H2 6979   4.011   0.861   3.374
 2346TIP3   OH2 6980   8.048   4.542   4.961
 2346TIP3    H1 6981   8.113   4.583   4.904
 2346TIP3    H2 6982   7.979   4.608   4.971
 2347TIP3   OH2 6983   2.087   6.756   1.668
 2347TIP3    H1 6984   2.116   6.716   1.750
 2347TIP3    H2 6985   2.155   6.732   1.604
 2348TIP3   OH2 6986   4.590   6.104   4.004
 2348TIP3    H1 6987   4.516   6.056   4.041
 2348TIP3    H2 6988   4.667   6.060   4.041
 2349TIP3   OH2 6989   3.166   2.141   6.723
 2349TIP3    H1 6990   3.135   2.053   6.745
 2349TIP3    H2 6991   3.110   2.200   6.774
 2350TIP3   OH2 6992   5.695   2.116   6.583
 2350TIP3    H1 6993   5.674   2.208   6.565
 2350TIP3    H2 6994   5.621   2.067   6.548
 2351TIP3   OH2 6995   2.527  -0.079   0.512
 2351TIP3    H1 6996   2.495   0.011   0.518
 2351TIP3    H2 6997   2.575  -0.082   0.429
 2352TIP3   OH2 6998   2.021   4.547   1.488
 2352TIP3    H1 6999   2.012   4.478   1.422
 2352TIP3    H2 7000   2.104   4.590   1.468
 2353TIP3   OH2 7001   7.132   2.362   2.396
 2353TIP3    H1 7002   7.141   2.298   2.467
 2353TIP3    H2 7003   7.218   2.362   2.353
 2354TIP3   OH2 7004   3.399   2.523   4.245
 2354TIP3    H1 7005   3.311   2.516   4.207
 2354TIP3    H2 7006   3.384   2.524   4.339
 2355TIP3   OH2 7007   2.233   5.861   3.200
 2355TIP3    H1 7008   2.280   5.931   3.246
 2355TIP3    H2 7009   2.284   5.782   3.221
 2356TIP3   OH2 7010   3.078   0.389   5.907
 2356TIP3    H1 7011   3.074   0.313   5.849
 2356TIP3    H2 7012   3.062   0.354   5.995
 2357TIP3   OH2 7013   1.836   4.438   6.816
 2357TIP3    H1 7014   1.765   4.421   6.755
 2357TIP3    H2 7015   1.878   4.517   6.783
 2358TIP3   OH2 7016   8.087   3.805   4.440
 2358TIP3    H1 7017   8.157   3.849   4.392
 2358TIP3    H2 7018   8.014   3.800   4.377
 2359TIP3   OH2 7019   6.938   4.947   5.283
 2359TIP3    H1 7020   6.962   4.857   5.305
 2359TIP3    H2 7021   7.004   5.001   5.327
 2360TIP3   OH2 7022   3.588   6.647   5.886
 2360TIP3    H1 7023   3.613   6.579   5.823
 2360TIP3    H2 7024   3.632   6.726   5.855
 2361TIP3   OH2 7025   3.191   4.855   0.838
 2361TIP3    H1 7026   3.096   4.865   0.836
 2361TIP3    H2 7027   3.217   4.896   0.921
 2362TIP3   OH2 7028   1.103   4.393   2.432
 2362TIP3    H1 7029   1.047   4.455   2.479
 2362TIP3    H2 7030   1.068   4.392   2.343
 2363TIP3   OH2 7031   4.131   4.000   3.333
 2363TIP3    H1 7032   4.160   3.991   3.242
 2363TIP3    H2 7033   4.199   4.051   3.376
 2364TIP3   OH2 7034   6.251   6.096   2.924
 2364TIP3    H1 7035   6.192   6.035   2.968
 2364TIP3    H2 7036   6.334   6.049   2.919
 2365TIP3   OH2 7037   4.246   1.128   4.544
 2365TIP3    H1 7038   4.178   1.080   4.591
 2365TIP3    H2 7039   4.256   1.209   4.594
 2366TIP3   OH2 7040   1.733   6.653   6.441
 2366TIP3    H1 7041   1.716   6.699   6.524
 2366TIP3    H2 7042   1.829   6.652   6.434
 2367TIP3   OH2 7043   4.600   5.988   6.668
 2367TIP3    H1 7044   4.565   5.903   6.695
 2367TIP3    H2 7045   4.692   5.985   6.693
 2368TIP3   OH2 7046   2.124   1.425   2.144
 2368TIP3    H1 7047   2.156   1.515   2.147
 2368TIP3    H2 7048   2.130   1.400   2.052
 2369TIP3   OH2 7049   2.672   5.199   2.660
 2369TIP3    H1 7050   2.699   5.178   2.570
 2369TIP3    H2 7051   2.737   5.263   2.689
 2370TIP3   OH2 7052   4.417   5.518   6.497
 2370TIP3    H1 7053   4.406   5.541   6.405
 2370TIP3    H2 7054   4.328   5.510   6.531
 2371TIP3   OH2 7055   6.239   3.565   5.005
 2371TIP3    H1 7056   6.286   3.633   4.958
 2371TIP3    H2 7057   6.308   3.508   5.039
 2372TIP3   OH2 7058   4.378   7.315   6.092
 2372TIP3    H1 7059   4.362   7.286   6.002
 2372TIP3    H2 7060   4.393   7.409   6.084
 2373TIP3   OH2 7061   7.862   0.951   2.700
 2373TIP3    H1 7062   7.784   0.905   2.669
 2373TIP3    H2 7063   7.837   1.044   2.699
 2374TIP3   OH2 7064   0.967   1.324   5.315
 2374TIP3    H1 7065   0.992   1.340   5.406
 2374TIP3    H2 7066   1.048   1.337   5.265
 2375TIP3   OH2 7067   6.356   4.658   0.324
 2375TIP3    H1 7068   6.290   4.727   0.324
 2375TIP3    H2 7069   6.433   4.699   0.284
 2376TIP3   OH2 7070   1.261   3.955   3.534
 2376TIP3    H1 7071   1.250   4.049   3.549
 2376TIP3    H2 7072   1.193   3.914   3.586
 2377TIP3   OH2 7073   3.208   6.995   6.611
 2377TIP3    H1 7074   3.278   6.937   6.580
 2377TIP3    H2 7075   3.172   6.950   6.687
 2378TIP3   OH2 7076   0.464   7.229   1.027
 2378TIP3    H1 7077   0.548   7.248   0.985
 2378TIP3    H2 7078   0.413   7.309   1.016
 2379TIP3   OH2 7079   5.156   1.769   0.730
 2379TIP3    H1 7080   5.240   1.773   0.685
 2379TIP3    H2 7081   5.111   1.694   0.690
 2380TIP3   OH2 7082   0.751   0.043   4.301
 2380TIP3    H1 7083   0.845   0.027   4.305
 2380TIP3    H2 7084   0.742   0.121   4.247
 2381TIP3   OH2 7085   2.905   1.480   6.728
 2381TIP3    H1 7086   2.945   1.430   6.657
 2381TIP3    H2 7087   2.874   1.414   6.790
 2382TIP3   OH2 7088   4.248   5.659   3.400
 2382TIP3    H1 7089   4.210   5.592   3.343
 2382TIP3    H2 7090   4.251   5.738   3.347
 2383TIP3   OH2 7091   1.862   6.712   4.327
 2383TIP3    H1 7092   1.843   6.730   4.419
 2383TIP3    H2 7093   1.865   6.616   4.321
 2384TIP3   OH2 7094   7.357   0.084   6.102
 2384TIP3    H1 7095   7.424   0.052   6.163
 2384TIP3    H2 7096   7.368   0.180   6.104
 2385TIP3   OH2 7097   4.183   4.308   1.466
 2385TIP3    H1 7098   4.235   4.388   1.466
 2385TIP3    H2 7099   4.193   4.273   1.377
 2386TIP3   OH2 7100   2.535   3.138   5.302
 2386TIP3    H1 7101   2.461   3.177   5.350
 2386TIP3    H2 7102   2.499   3.117   5.216
 2387TIP3   OH2 7103   8.150   0.770   2.349
 2387TIP3    H1 7104   8.076   0.715   2.324
 2387TIP3    H2 7105   8.139   0.785   2.443
 2388TIP3   OH2 7106   1.682   2.930   5.797
 2388TIP3    H1 7107   1.610   2.928   5.861
 2388TIP3    H2 7108   1.645   2.887   5.720
 2389TIP3   OH2 7109   8.275   7.397   2.939
 2389TIP3    H1 7110   8.250   7.312   2.976
 2389TIP3    H2 7111   8.193   7.446   2.933
 2390TIP3   OH2 7112   7.079   2.836   2.556
 2390TIP3    H1 7113   7.078   2.798   2.643
 2390TIP3    H2 7114   7.122   2.770   2.501
 2391TIP3   OH2 7115   1.710   4.096   3.682
 2391TIP3    H1 7116   1.682   4.118   3.593
 2391TIP3    H2 7117   1.751   4.176   3.715
 2392TIP3   OH2 7118   2.680   5.980   5.005
 2392TIP3    H1 7119   2.633   6.049   4.958
 2392TIP3    H2 7120   2.716   5.924   4.936
 2393TIP3   OH2 7121   3.689   5.510   1.312
 2393TIP3    H1 7122   3.694   5.605   1.302
 2393TIP3    H2 7123   3.683   5.476   1.223
 2394TIP3   OH2 7124   3.827   7.647   3.899
 2394TIP3    H1 7125   3.898   7.587   3.878
 2394TIP3    H2 7126   3.863   7.705   3.966
 2395TIP3   OH2 7127   2.356   2.623   0.453
 2395TIP3    H1 7128   2.293   2.665   0.394
 2395TIP3    H2 7129   2.311   2.544   0.483
 2396TIP3   OH2 7130   5.336   2.584   2.817
 2396TIP3    H1 7131   5.269   2.610   2.754
 2396TIP3    H2 7132   5.376   2.667   2.844
 2397TIP3   OH2 7133   1.999   6.013   5.310
 2397TIP3    H1 7134   1.951   6.096   5.313
 2397TIP3    H2 7135   1.939   5.953   5.265
 2398TIP3   OH2 7136   6.671   0.607   0.281
 2398TIP3    H1 7137   6.747   0.648   0.238
 2398TIP3    H2 7138   6.628   0.557   0.211
 2399TIP3   OH2 7139   1.165   3.925   4.742
 2399TIP3    H1 7140   1.175   3.835   4.775
 2399TIP3    H2 7141   1.211   3.979   4.806
 2400TIP3   OH2 7142   1.597   4.323   6.065
 2400TIP3    H1 7143   1.684   4.283   6.061
 2400TIP3    H2 7144   1.596   4.369   6.149
 2401TIP3   OH2 7145   1.403   6.744   2.222
 2401TIP3    H1 7146   1.461   6.801   2.271
 2401TIP3    H2 7147   1.448   6.730   2.138
 2402TIP3   OH2 7148   7.867   1.562   1.236
 2402TIP3    H1 7149   7.818   1.619   1.294
 2402TIP3    H2 7150   7.953   1.554   1.277
 2403TIP3   OH2 7151   3.687   5.673   5.270
 2403TIP3    H1 7152   3.723   5.699   5.355
 2403TIP3    H2 7153   3.636   5.749   5.242
 2404TIP3   OH2 7154   3.822   4.123   6.499
 2404TIP3    H1 7155   3.797   4.214   6.482
 2404TIP3    H2 7156   3.793   4.106   6.588
 2405TIP3   OH2 7157   7.293   7.217   0.170
 2405TIP3    H1 7158   7.306   7.253   0.082
 2405TIP3    H2 7159   7.363   7.152   0.180
 2406TIP3   OH2 7160   6.550   1.169   2.036
 2406TIP3    H1 7161   6.637   1.200   2.012
 2406TIP3    H2 7162   6.559   1.073   2.041
 2407TIP3   OH2 7163   1.240   7.827   0.261
 2407TIP3    H1 7164   1.278   7.914   0.251
 2407TIP3    H2 7165   1.300   7.781   0.320
 2408TIP3   OH2 7166   7.604   4.478   5.040
 2408TIP3    H1 7167   7.510   4.495   5.036
 2408TIP3    H2 7168   7.636   4.535   5.109
 2409TIP3   OH2 7169   5.501   0.518   3.224
 2409TIP3    H1 7170   5.455   0.591   3.182
 2409TIP3    H2 7171   5.467   0.440   3.180
 2410TIP3   OH2 7172   3.435   1.279   5.212
 2410TIP3    H1 7173   3.410   1.328   5.290
 2410TIP3    H2 7174   3.439   1.345   5.143
 2411TIP3   OH2 7175   0.765   1.976   4.037
 2411TIP3    H1 7176   0.700   2.008   4.100
 2411TIP3    H2 7177   0.810   1.906   4.084
 2412TIP3   OH2 7178   6.828   1.989   0.725
 2412TIP3    H1 7179   6.895   1.990   0.657
 2412TIP3    H2 7180   6.821   1.897   0.751
 2413TIP3   OH2 7181   6.921   2.634   1.393
 2413TIP3    H1 7182   6.902   2.694   1.465
 2413TIP3    H2 7183   6.834   2.611   1.359
 2414TIP3   OH2 7184   6.070   3.747   4.416
 2414TIP3    H1 7185   6.154   3.721   4.378
 2414TIP3    H2 7186   6.091   3.826   4.467
 2415TIP3   OH2 7187   6.320   5.237   2.812
 2415TIP3    H1 7188   6.303   5.145   2.830
 2415TIP3    H2 7189   6.343   5.275   2.897
 2416TIP3   OH2 7190   1.667   1.568   4.508
 2416TIP3    H1 7191   1.731   1.557   4.579
 2416TIP3    H2 7192   1.629   1.654   4.522
 2417TIP3   OH2 7193   4.310   2.904   0.616
 2417TIP3    H1 7194   4.264   2.836   0.567
 2417TIP3    H2 7195   4.240   2.962   0.646
 2418TIP3   OH2 7196   5.372   5.230   1.703
 2418TIP3    H1 7197   5.291   5.216   1.655
 2418TIP3    H2 7198   5.349   5.292   1.772
 2419TIP3   OH2 7199   7.950   6.478   1.986
 2419TIP3    H1 7200   8.005   6.430   2.047
 2419TIP3    H2 7201   7.981   6.452   1.899
 2420TIP3   OH2 7202   8.249   1.021   2.844
 2420TIP3    H1 7203   8.216   0.973   2.768
 2420TIP3    H2 7204   8.315   1.080   2.808
 2421TIP3   OH2 7205   2.961   5.365   1.197
 2421TIP3    H1 7206   2.895   5.351   1.129
 2421TIP3    H2 7207   3.007   5.281   1.204
 2422TIP3   OH2 7208   0.236   3.956   6.353
 2422TIP3    H1 7209   0.141   3.964   6.356
 2422TIP3    H2 7210   0.266   3.999   6.433
 2423TIP3   OH2 7211   1.357   1.998   2.620
 2423TIP3    H1 7212   1.402   1.980   2.703
 2423TIP3    H2 7213   1.419   1.970   2.553
 2424TIP3   OH2 7214   4.835   2.758   1.915
 2424TIP3    H1 7215   4.787   2.760   1.832
 2424TIP3    H2 7216   4.775   2.797   1.979
 2425TIP3   OH2 7217   7.345   6.725   2.840
 2425TIP3    H1 7218   7.432   6.685   2.833
 2425TIP3    H2 7219   7.346   6.795   2.775
 2426TIP3   OH2 7220   1.993   5.300   1.064
 2426TIP3    H1 7221   1.978   5.353   1.142
 2426TIP3    H2 7222   1.973   5.360   0.991
 2427TIP3   OH2 7223   1.262   3.182   0.734
 2427TIP3    H1 7224   1.329   3.140   0.787
 2427TIP3    H2 7225   1.224   3.249   0.792
 2428TIP3   OH2 7226   7.898   6.491   3.315
 2428TIP3    H1 7227   7.819   6.545   3.302
 2428TIP3    H2 7228   7.890   6.458   3.404
 2429TIP3   OH2 7229   0.543   5.896   0.342
 2429TIP3    H1 7230   0.461   5.901   0.293
 2429TIP3    H2 7231   0.551   5.803   0.365
 2430TIP3   OH2 7232   0.517   4.308   0.411
 2430TIP3    H1 7233   0.568   4.386   0.432
 2430TIP3    H2 7234   0.435   4.319   0.458
 2431TIP3   OH2 7235   4.960   7.122   5.431
 2431TIP3    H1 7236   4.980   7.216   5.423
 2431TIP3    H2 7237   5.026   7.090   5.493
 2432TIP3   OH2 7238   7.846   1.119   4.938
 2432TIP3    H1 7239   7.832   1.190   4.875
 2432TIP3    H2 7240   7.902   1.057   4.891
 2433TIP3   OH2 7241   7.618   1.422   5.402
 2433TIP3    H1 7242   7.548   1.361   5.422
 2433TIP3    H2 7243   7.584   1.507   5.429
 2434TIP3   OH2 7244   7.408   4.122   2.762
 2434TIP3    H1 7245   7.463   4.056   2.805
 2434TIP3    H2 7246   7.356   4.072   2.698
 2435TIP3   OH2 7247   7.509   2.861   5.065
 2435TIP3    H1 7248   7.531   2.875   5.157
 2435TIP3    H2 7249   7.416   2.882   5.059
 2436TIP3   OH2 7250   7.927   0.111   2.787
 2436TIP3    H1 7251   7.845   0.153   2.758
 2436TIP3    H2 7252   7.975   0.095   2.706
 2437TIP3   OH2 7253   0.434   3.023   5.869
 2437TIP3    H1 7254   0.479   3.107   5.864
 2437TIP3    H2 7255   0.446   2.984   5.782
 2438TIP3   OH2 7256   6.168   2.874   1.540
 2438TIP3    H1 7257   6.249   2.883   1.591
 2438TIP3    H2 7258   6.098   2.892   1.603
 2439TIP3   OH2 7259   0.207   7.115   2.988
 2439TIP3    H1 7260   0.241   7.180   2.927
 2439TIP3    H2 7261   0.232   7.147   3.074
 2440TIP3   OH2 7262   4.171   1.863   6.255
 2440TIP3    H1 7263   4.106   1.803   6.293
 2440TIP3    H2 7264   4.219   1.809   6.192
 2441TIP3   OH2 7265   3.635   2.376   2.161
 2441TIP3    H1 7266   3.694   2.416   2.096
 2441TIP3    H2 7267   3.593   2.304   2.114
 2442TIP3   OH2 7268   3.831   5.034   3.942
 2442TIP3    H1 7269   3.800   4.954   3.984
 2442TIP3    H2 7270   3.868   5.085   4.014
 2443TIP3   OH2 7271   4.554   7.531   3.223
 2443TIP3    H1 7272   4.607   7.499   3.151
 2443TIP3    H2 7273   4.479   7.572   3.182
 2444TIP3   OH2 7274   7.561   1.290   4.544
 2444TIP3    H1 7275   7.625   1.319   4.480
 2444TIP3    H2 7276   7.560   1.359   4.610
 2445TIP3   OH2 7277   3.701   7.453   4.730
 2445TIP3    H1 7278   3.740   7.522   4.784
 2445TIP3    H2 7279   3.652   7.499   4.662
 2446TIP3   OH2 7280   2.584   3.545   1.985
 2446TIP3    H1 7281   2.630   3.627   1.969
 2446TIP3    H2 7282   2.505   3.551   1.930
 2447TIP3   OH2 7283   8.158   6.432   0.231
 2447TIP3    H1 7284   8.222   6.501   0.212
 2447TIP3    H2 7285   8.193   6.354   0.188
 2448TIP3   OH2 7286   5.835   7.196   2.637
 2448TIP3    H1 7287   5.760   7.138   2.652
 2448TIP3    H2 7288   5.870   7.168   2.552
 2449TIP3   OH2 7289   8.038   5.971   1.211
 2449TIP3    H1 7290   8.030   5.877   1.196
 2449TIP3    H2 7291   7.959   6.009   1.172
 2450TIP3   OH2 7292   6.081   7.214   0.747
 2450TIP3    H1 7293   6.123   7.212   0.661
 2450TIP3    H2 7294   6.150   7.246   0.806
 2451TIP3   OH2 7295   1.647   0.831   5.181
 2451TIP3    H1 7296   1.714   0.846   5.115
 2451TIP3    H2 7297   1.691   0.848   5.264
 2452TIP3   OH2 7298   3.296   4.143   2.825
 2452TIP3    H1 7299   3.364   4.184   2.770
 2452TIP3    H2 7300   3.320   4.168   2.915
 2453TIP3   OH2 7301   1.481   7.705   3.226
 2453TIP3    H1 7302   1.518   7.666   3.147
 2453TIP3    H2 7303   1.450   7.630   3.277
 2454TIP3   OH2 7304   1.173   7.108   0.042
 2454TIP3    H1 7305   1.263   7.134   0.020
 2454TIP3    H2 7306   1.167   7.119   0.136
 2455TIP3   OH2 7307   5.937   0.745   2.822
 2455TIP3    H1 7308   5.907   0.774   2.736
 2455TIP3    H2 7309   5.889   0.799   2.884
 2456TIP3   OH2 7310  -0.024   5.803   6.455
 2456TIP3    H1 7311   0.035   5.739   6.417
 2456TIP3    H2 7312   0.021   5.886   6.445
 2457TIP3   OH2 7313   5.353   7.534   5.653
 2457TIP3    H1 7314   5.271   7.584   5.646
 2457TIP3    H2 7315   5.409   7.571   5.585
 2458TIP3   OH2 7316   3.992   6.246   3.117
 2458TIP3    H1 7317   4.037   6.330   3.107
 2458TIP3    H2 7318   4.015   6.197   3.038
 2459TIP3   OH2 7319   2.867   6.476   6.314
 2459TIP3    H1 7320   2.884   6.526   6.234
 2459TIP3    H2 7321   2.953   6.442   6.340
 2460TIP3   OH2 7322   3.859   7.315   1.734
 2460TIP3    H1 7323   3.771   7.306   1.772
 2460TIP3    H2 7324   3.848   7.374   1.660
 2461TIP3   OH2 7325   2.398   6.611   4.422
 2461TIP3    H1 7326   2.315   6.615   4.468
 2461TIP3    H2 7327   2.430   6.522   4.436
 2462TIP3   OH2 7328   3.504   7.094   0.438
 2462TIP3    H1 7329   3.526   7.002   0.425
 2462TIP3    H2 7330   3.447   7.095   0.515
 2463TIP3   OH2 7331   6.907   3.832   3.409
 2463TIP3    H1 7332   6.923   3.784   3.490
 2463TIP3    H2 7333   6.841   3.898   3.433
 2464TIP3   OH2 7334   5.680   5.579   1.066
 2464TIP3    H1 7335   5.672   5.590   0.971
 2464TIP3    H2 7336   5.769   5.607   1.086
 2465TIP3   OH2 7337   3.323   7.308   6.247
 2465TIP3    H1 7338   3.267   7.381   6.275
 2465TIP3    H2 7339   3.407   7.325   6.288
 2466TIP3   OH2 7340   1.640   2.303   5.507
 2466TIP3    H1 7341   1.619   2.357   5.431
 2466TIP3    H2 7342   1.617   2.357   5.582
 2467TIP3   OH2 7343   6.968   1.450   5.932
 2467TIP3    H1 7344   6.937   1.362   5.910
 2467TIP3    H2 7345   6.912   1.508   5.882
 2468TIP3   OH2 7346   7.163   0.326   6.469
 2468TIP3    H1 7347   7.233   0.263   6.448
 2468TIP3    H2 7348   7.175   0.397   6.405
 2469TIP3   OH2 7349   5.028   3.566   4.085
 2469TIP3    H1 7350   4.988   3.642   4.127
 2469TIP3    H2 7351   5.116   3.596   4.060
 2470TIP3   OH2 7352   3.319   0.688   5.477
 2470TIP3    H1 7353   3.268   0.627   5.529
 2470TIP3    H2 7354   3.390   0.716   5.536
 2471TIP3   OH2 7355   5.808   6.286   2.701
 2471TIP3    H1 7356   5.737   6.253   2.645
 2471TIP3    H2 7357   5.772   6.283   2.789
 2472TIP3   OH2 7358   0.496   4.607   1.554
 2472TIP3    H1 7359   0.560   4.626   1.622
 2472TIP3    H2 7360   0.525   4.658   1.478
 2473TIP3   OH2 7361   6.166   4.344   2.257
 2473TIP3    H1 7362   6.109   4.378   2.189
 2473TIP3    H2 7363   6.178   4.251   2.235
 2474TIP3   OH2 7364   6.107   3.377   6.424
 2474TIP3    H1 7365   6.158   3.457   6.412
 2474TIP3    H2 7366   6.016   3.406   6.417
 2475TIP3   OH2 7367   7.670   1.961   2.604
 2475TIP3    H1 7368   7.648   1.901   2.676
 2475TIP3    H2 7369   7.743   2.012   2.638
 2476TIP3   OH2 7370   6.623   4.064   0.344
 2476TIP3    H1 7371   6.608   4.108   0.260
 2476TIP3    H2 7372   6.562   4.107   0.404
 2477TIP3   OH2 7373   4.396   0.848   0.860
 2477TIP3    H1 7374   4.488   0.872   0.871
 2477TIP3    H2 7375   4.386   0.832   0.766
 2478TIP3   OH2 7376   0.582   2.006   2.750
 2478TIP3    H1 7377   0.658   1.972   2.701
 2478TIP3    H2 7378   0.554   1.932   2.804
 2479TIP3   OH2 7379   1.140   7.688   5.416
 2479TIP3    H1 7380   1.233   7.672   5.430
 2479TIP3    H2 7381   1.137   7.763   5.356
 2480TIP3   OH2 7382   4.726   2.840   1.669
 2480TIP3    H1 7383   4.735   2.776   1.599
 2480TIP3    H2 7384   4.724   2.924   1.624
 2481TIP3   OH2 7385   7.341   0.974   5.076
 2481TIP3    H1 7386   7.359   0.887   5.040
 2481TIP3    H2 7387   7.290   0.958   5.156
 2482TIP3   OH2 7388   5.234   2.228   5.934
 2482TIP3    H1 7389   5.179   2.203   6.008
 2482TIP3    H2 7390   5.247   2.147   5.885
 2483TIP3   OH2 7391   3.886   0.534   1.131
 2483TIP3    H1 7392   3.923   0.446   1.124
 2483TIP3    H2 7393   3.893   0.570   1.043
 2484TIP3   OH2 7394   3.805   2.296   6.732
 2484TIP3    H1 7395   3.840   2.369   6.783
 2484TIP3    H2 7396   3.851   2.302   6.648
 2485TIP3   OH2 7397   8.168   4.480   1.446
 2485TIP3    H1 7398   8.116   4.489   1.526
 2485TIP3    H2 7399   8.252   4.522   1.468
 2486TIP3   OH2 7400   0.898   2.369   4.651
 2486TIP3    H1 7401   0.880   2.310   4.725
 2486TIP3    H2 7402   0.990   2.393   4.662
 2487TIP3   OH2 7403   3.964   5.549   2.134
 2487TIP3    H1 7404   4.037   5.608   2.118
 2487TIP3    H2 7405   3.961   5.493   2.056
 2488TIP3   OH2 7406   3.447   4.920   6.690
 2488TIP3    H1 7407   3.378   4.982   6.713
 2488TIP3    H2 7408   3.417   4.881   6.608
 2489TIP3   OH2 7409   1.711   7.160   4.413
 2489TIP3    H1 7410   1.776   7.183   4.479
 2489TIP3    H2 7411   1.756   7.098   4.356
 2490TIP3   OH2 7412   1.819   0.586   1.009
 2490TIP3    H1 7413   1.757   0.642   0.963
 2490TIP3    H2 7414   1.894   0.580   0.950
 2491TIP3   OH2 7415   6.961   0.222   3.268
 2491TIP3    H1 7416   6.881   0.206   3.218
 2491TIP3    H2 7417   6.990   0.135   3.294
 2492TIP3   OH2 7418   3.948   4.527   1.981
 2492TIP3    H1 7419   4.040   4.504   1.993
 2492TIP3    H2 7420   3.915   4.540   2.070
 2493TIP3   OH2 7421   3.154   4.544   3.489
 2493TIP3    H1 7422   3.190   4.455   3.487
 2493TIP3    H2 7423   3.079   4.540   3.430
 2494TIP3   OH2 7424   6.141   6.324   6.216
 2494TIP3    H1 7425   6.053   6.359   6.231
 2494TIP3    H2 7426   6.140   6.237   6.255
 2495TIP3   OH2 7427   6.028   4.023   4.523
 2495TIP3    H1 7428   6.096   3.983   4.577
 2495TIP3    H2 7429   5.951   4.026   4.580
 2496TIP3   OH2 7430   7.930   2.752   0.201
 2496TIP3    H1 7431   7.869   2.712   0.263
 2496TIP3    H2 7432   8.008   2.696   0.204
 2497TIP3   OH2 7433   7.065   1.621   4.921
 2497TIP3    H1 7434   7.058   1.527   4.940
 2497TIP3    H2 7435   7.004   1.635   4.849
 2498TIP3   OH2 7436   7.029   4.560   1.146
 2498TIP3    H1 7437   6.980   4.479   1.156
 2498TIP3    H2 7438   7.121   4.536   1.161
 2499TIP3   OH2 7439   8.218   1.333   1.082
 2499TIP3    H1 7440   8.285   1.306   1.020
 2499TIP3    H2 7441   8.135   1.305   1.041
 2500TIP3   OH2 7442   0.316   2.599   6.752
 2500TIP3    H1 7443   0.380   2.621   6.685
 2500TIP3    H2 7444   0.369   2.572   6.828
 2501TIP3   OH2 7445   5.532   1.909   2.008
 2501TIP3    H1 7446   5.541   1.846   1.936
 2501TIP3    H2 7447   5.438   1.924   2.015
 2502TIP3   OH2 7448   6.390   6.990   5.514
 2502TIP3    H1 7449   6.481   6.961   5.519
 2502TIP3    H2 7450   6.393   7.084   5.530
 2503TIP3   OH2 7451   5.320   3.370   4.152
 2503TIP3    H1 7452   5.238   3.322   4.162
 2503TIP3    H2 7453   5.361   3.332   4.075
 2504TIP3   OH2 7454   7.585   5.846   0.840
 2504TIP3    H1 7455   7.544   5.893   0.913
 2504TIP3    H2 7456   7.660   5.900   0.817
 2505TIP3   OH2 7457   1.377   2.443   5.994
 2505TIP3    H1 7458   1.313   2.383   5.957
 2505TIP3    H2 7459   1.431   2.470   5.920
 2506TIP3   OH2 7460   4.414   1.708   2.568
 2506TIP3    H1 7461   4.397   1.795   2.532
 2506TIP3    H2 7462   4.333   1.660   2.552
 2507TIP3   OH2 7463   0.955   2.794   5.252
 2507TIP3    H1 7464   0.919   2.883   5.251
 2507TIP3    H2 7465   0.945   2.765   5.343
 2508TIP3   OH2 7466   0.503   5.602   0.409
 2508TIP3    H1 7467   0.597   5.600   0.427
 2508TIP3    H2 7468   0.486   5.521   0.361
 2509TIP3   OH2 7469   1.113   3.246   3.297
 2509TIP3    H1 7470   1.033   3.255   3.349
 2509TIP3    H2 7471   1.106   3.314   3.230
 2510TIP3   OH2 7472   1.148   0.191   0.792
 2510TIP3    H1 7473   1.075   0.130   0.781
 2510TIP3    H2 7474   1.162   0.195   0.887
 2511TIP3   OH2 7475   3.229   7.760   5.643
 2511TIP3    H1 7476   3.217   7.838   5.697
 2511TIP3    H2 7477   3.265   7.792   5.561
 2512TIP3   OH2 7478   5.038   6.469   5.686
 2512TIP3    H1 7479   5.132   6.468   5.704
 2512TIP3    H2 7480   5.028   6.412   5.609
 2513TIP3   OH2 7481   2.293   3.959   3.432
 2513TIP3    H1 7482   2.289   4.027   3.500
 2513TIP3    H2 7483   2.356   3.895   3.464
 2514TIP3   OH2 7484   4.343   2.931   6.153
 2514TIP3    H1 7485   4.395   2.969   6.083
 2514TIP3    H2 7486   4.297   3.006   6.192
 2515TIP3   OH2 7487   7.948   2.547   4.504
 2515TIP3    H1 7488   7.896   2.468   4.486
 2515TIP3    H2 7489   8.037   2.515   4.514
 2516TIP3   OH2 7490   1.189   3.089   1.040
 2516TIP3    H1 7491   1.109   3.114   1.088
 2516TIP3    H2 7492   1.157   3.036   0.967
 2517TIP3   OH2 7493   6.593   1.544   3.194
 2517TIP3    H1 7494   6.619   1.452   3.192
 2517TIP3    H2 7495   6.675   1.593   3.194
 2518TIP3   OH2 7496   4.485   1.318   5.913
 2518TIP3    H1 7497   4.412   1.326   5.851
 2518TIP3    H2 7498   4.557   1.366   5.872
 2519TIP3   OH2 7499   6.385   4.103   4.179
 2519TIP3    H1 7500   6.429   4.135   4.257
 2519TIP3    H2 7501   6.298   4.143   4.182
 2520TIP3   OH2 7502   5.072   5.732   3.413
 2520TIP3    H1 7503   5.075   5.664   3.346
 2520TIP3    H2 7504   4.989   5.717   3.459
 2521TIP3   OH2 7505   3.986   4.633   5.111
 2521TIP3    H1 7506   4.052   4.635   5.042
 2521TIP3    H2 7507   4.009   4.705   5.169
 2522TIP3   OH2 7508   2.969   5.994   5.866
 2522TIP3    H1 7509   2.964   6.062   5.798
 2522TIP3    H2 7510   3.047   5.943   5.842
 2523TIP3   OH2 7511   2.121   3.475   5.678
 2523TIP3    H1 7512   2.161   3.425   5.749
 2523TIP3    H2 7513   2.182   3.546   5.661
 2524TIP3   OH2 7514   0.290   4.806   6.237
 2524TIP3    H1 7515   0.328   4.772   6.156
 2524TIP3    H2 7516   0.220   4.864   6.208
 2525TIP3   OH2 7517   0.990   2.578   2.856
 2525TIP3    H1 7518   0.951   2.664   2.871
 2525TIP3    H2 7519   1.021   2.549   2.941
 2526TIP3   OH2 7520   2.157   2.952   5.093
 2526TIP3    H1 7521   2.131   3.041   5.070
 2526TIP3    H2 7522   2.085   2.897   5.064
 2527TIP3   OH2 7523   4.587   3.156   0.352
 2527TIP3    H1 7524   4.613   3.209   0.276
 2527TIP3    H2 7525   4.570   3.069   0.315
 2528TIP3   OH2 7526   4.384   0.847   0.244
 2528TIP3    H1 7527   4.365   0.941   0.249
 2528TIP3    H2 7528   4.382   0.818   0.335
 2529TIP3   OH2 7529   6.476   5.476   3.846
 2529TIP3    H1 7530   6.546   5.411   3.845
 2529TIP3    H2 7531   6.400   5.428   3.877
 2530TIP3   OH2 7532   1.371   0.492   3.668
 2530TIP3    H1 7533   1.460   0.522   3.685
 2530TIP3    H2 7534   1.378   0.439   3.589
 2531TIP3   OH2 7535   1.027   0.785   1.968
 2531TIP3    H1 7536   1.109   0.789   1.918
 2531TIP3    H2 7537   0.965   0.744   1.907
 2532TIP3   OH2 7538   1.558   0.723   1.975
 2532TIP3    H1 7539   1.476   0.680   2.001
 2532TIP3    H2 7540   1.602   0.741   2.058
 2533TIP3   OH2 7541   1.028   7.472   1.365
 2533TIP3    H1 7542   1.001   7.409   1.432
 2533TIP3    H2 7543   1.073   7.542   1.414
 2534TIP3   OH2 7544   6.844   4.146   1.741
 2534TIP3    H1 7545   6.797   4.193   1.809
 2534TIP3    H2 7546   6.878   4.214   1.684
 2535TIP3   OH2 7547   7.260   1.646   1.226
 2535TIP3    H1 7548   7.205   1.654   1.148
 2535TIP3    H2 7549   7.344   1.683   1.200
 2536TIP3   OH2 7550   3.683   1.595   4.123
 2536TIP3    H1 7551   3.660   1.536   4.051
 2536TIP3    H2 7552   3.691   1.681   4.082
 2537TIP3   OH2 7553   0.096   6.980   0.384
 2537TIP3    H1 7554   0.063   6.900   0.425
 2537TIP3    H2 7555   0.190   6.964   0.372
 2538TIP3   OH2 7556   2.530   2.711   6.567
 2538TIP3    H1 7557   2.589   2.780   6.537
 2538TIP3    H2 7558   2.588   2.640   6.595
 2539TIP3   OH2 7559   0.700   5.740   2.973
 2539TIP3    H1 7560   0.789   5.773   2.970
 2539TIP3    H2 7561   0.645   5.818   2.960
 2540TIP3   OH2 7562   0.999   2.478   5.621
 2540TIP3    H1 7563   1.084   2.444   5.594
 2540TIP3    H2 7564   1.015   2.520   5.705
 2541TIP3   OH2 7565   2.438   0.383   6.195
 2541TIP3    H1 7566   2.390   0.465   6.204
 2541TIP3    H2 7567   2.521   0.409   6.155
 2542TIP3   OH2 7568   5.127   5.432   1.091
 2542TIP3    H1 7569   5.173   5.503   1.137
 2542TIP3    H2 7570   5.095   5.376   1.161
 2543TIP3   OH2 7571   6.372   6.237   3.188
 2543TIP3    H1 7572   6.422   6.303   3.141
 2543TIP3    H2 7573   6.354   6.169   3.124
 2544TIP3   OH2 7574   8.257   6.254   6.209
 2544TIP3    H1 7575   8.247   6.341   6.246
 2544TIP3    H2 7576   8.242   6.265   6.116
 2545TIP3   OH2 7577   2.155   2.944   0.091
 2545TIP3    H1 7578   2.121   3.012   0.149
 2545TIP3    H2 7579   2.116   2.965   0.006
 2546TIP3   OH2 7580   8.095   7.817   2.105
 2546TIP3    H1 7581   8.009   7.824   2.147
 2546TIP3    H2 7582   8.081   7.758   2.031
 2547TIP3   OH2 7583   6.614   2.806   2.004
 2547TIP3    H1 7584   6.575   2.729   2.043
 2547TIP3    H2 7585   6.631   2.781   1.913
 2548TIP3   OH2 7586   7.532   5.226   4.185
 2548TIP3    H1 7587   7.479   5.294   4.143
 2548TIP3    H2 7588   7.481   5.146   4.177
 2549TIP3   OH2 7589   4.757   4.764   5.507
 2549TIP3    H1 7590   4.847   4.786   5.486
 2549TIP3    H2 7591   4.725   4.838   5.558
 2550TIP3   OH2 7592   2.739   3.168   2.157
 2550TIP3    H1 7593   2.755   3.239   2.219
 2550TIP3    H2 7594   2.786   3.194   2.077
 2551TIP3   OH2 7595   0.836   6.057   1.082
 2551TIP3    H1 7596   0.853   6.151   1.077
 2551TIP3    H2 7597   0.891   6.026   1.154
 2552TIP3   OH2 7598   7.182   5.750   1.300
 2552TIP3    H1 7599   7.269   5.781   1.326
 2552TIP3    H2 7600   7.136   5.734   1.383
 2553TIP3   OH2 7601   6.534   7.516   5.545
 2553TIP3    H1 7602   6.466   7.584   5.549
 2553TIP3    H2 7603   6.596   7.549   5.480
 2554TIP3   OH2 7604   7.568   3.267   2.657
 2554TIP3    H1 7605   7.608   3.290   2.572
 2554TIP3    H2 7606   7.640   3.275   2.719
 2555TIP3   OH2 7607   6.872   6.097   1.613
 2555TIP3    H1 7608   6.918   6.014   1.626
 2555TIP3    H2 7609   6.924   6.142   1.546
 2556TIP3   OH2 7610   1.064   4.640   5.126
 2556TIP3    H1 7611   1.049   4.604   5.214
 2556TIP3    H2 7612   1.135   4.586   5.090
 2557TIP3   OH2 7613   1.886   0.027   4.882
 2557TIP3    H1 7614   1.808   0.043   4.934
 2557TIP3    H2 7615   1.902   0.111   4.837
 2558TIP3   OH2 7616   7.941   3.366   2.199
 2558TIP3    H1 7617   8.032   3.379   2.228
 2558TIP3    H2 7618   7.924   3.274   2.217
 2559TIP3   OH2 7619   3.834   2.040   5.065
 2559TIP3    H1 7620   3.757   2.059   5.010
 2559TIP3    H2 7621   3.874   2.125   5.082
 2560TIP3   OH2 7622   2.118   7.003   3.435
 2560TIP3    H1 7623   2.069   6.934   3.390
 2560TIP3    H2 7624   2.136   7.067   3.366
 2561TIP3   OH2 7625   0.351   2.415   1.206
 2561TIP3    H1 7626   0.376   2.331   1.168
 2561TIP3    H2 7627   0.288   2.451   1.144
 2562TIP3   OH2 7628   0.043   5.165   2.988
 2562TIP3    H1 7629   0.110   5.233   2.995
 2562TIP3    H2 7630   0.035   5.148   2.894
 2563TIP3   OH2 7631   2.291   4.006   4.144
 2563TIP3    H1 7632   2.270   3.923   4.186
 2563TIP3    H2 7633   2.386   4.004   4.133
 2564TIP3   OH2 7634   7.463   1.213   0.851
 2564TIP3    H1 7635   7.477   1.122   0.879
 2564TIP3    H2 7636   7.466   1.209   0.756
 2565TIP3   OH2 7637   6.012   3.331   3.731
 2565TIP3    H1 7638   5.964   3.291   3.659
 2565TIP3    H2 7639   5.947   3.384   3.778
 2566TIP3   OH2 7640   7.942   1.265   5.728
 2566TIP3    H1 7641   7.896   1.194   5.682
 2566TIP3    H2 7642   7.889   1.280   5.806
 2567TIP3   OH2 7643   4.177   2.098   4.866
 2567TIP3    H1 7644   4.133   2.148   4.797
 2567TIP3    H2 7645   4.270   2.117   4.853
 2568TIP3   OH2 7646   2.578   0.780   3.105
 2568TIP3    H1 7647   2.611   0.824   3.183
 2568TIP3    H2 7648   2.573   0.688   3.130
 2569TIP3   OH2 7649   6.058   4.405   6.200
 2569TIP3    H1 7650   6.070   4.426   6.108
 2569TIP3    H2 7651   6.014   4.481   6.237
 2570TIP3   OH2 7652   3.509   4.481   5.683
 2570TIP3    H1 7653   3.432   4.437   5.720
 2570TIP3    H2 7654   3.506   4.458   5.590
 2571TIP3   OH2 7655   0.763   7.518   0.324
 2571TIP3    H1 7656   0.758   7.427   0.355
 2571TIP3    H2 7657   0.814   7.563   0.392
 2572TIP3   OH2 7658   2.447   3.119   3.975
 2572TIP3    H1 7659   2.354   3.122   3.954
 2572TIP3    H2 7660   2.488   3.182   3.915
 2573TIP3   OH2 7661   2.161   3.266   5.877
 2573TIP3    H1 7662   2.235   3.228   5.926
 2573TIP3    H2 7663   2.113   3.191   5.843
 2574TIP3   OH2 7664   0.560   7.163   1.799
 2574TIP3    H1 7665   0.577   7.069   1.798
 2574TIP3    H2 7666   0.474   7.171   1.840
 2575TIP3   OH2 7667   1.573   7.362   2.227
 2575TIP3    H1 7668   1.543   7.448   2.257
 2575TIP3    H2 7669   1.539   7.356   2.137
 2576TIP3   OH2 7670   1.038   6.093   2.210
 2576TIP3    H1 7671   0.954   6.060   2.241
 2576TIP3    H2 7672   1.100   6.021   2.225
 2577TIP3   OH2 7673   6.885   2.466   6.338
 2577TIP3    H1 7674   6.841   2.530   6.283
 2577TIP3    H2 7675   6.951   2.517   6.385
 2578TIP3   OH2 7676   0.599   6.288   3.425
 2578TIP3    H1 7677   0.690   6.318   3.425
 2578TIP3    H2 7678   0.602   6.203   3.381
 2579TIP3   OH2 7679   7.465   6.434   0.897
 2579TIP3    H1 7680   7.489   6.517   0.939
 2579TIP3    H2 7681   7.535   6.418   0.834
 2580TIP3   OH2 7682   6.533   6.547   0.584
 2580TIP3    H1 7683   6.506   6.459   0.556
 2580TIP3    H2 7684   6.613   6.564   0.535
 2581TIP3   OH2 7685   6.928   0.035   3.042
 2581TIP3    H1 7686   6.860   0.097   3.068
 2581TIP3    H2 7687   6.990   0.087   2.992
 2582TIP3   OH2 7688   5.680   2.668   4.611
 2582TIP3    H1 7689   5.690   2.581   4.650
 2582TIP3    H2 7690   5.695   2.728   4.684
 2583TIP3   OH2 7691   1.476   7.258   4.843
 2583TIP3    H1 7692   1.441   7.281   4.757
 2583TIP3    H2 7693   1.559   7.305   4.849
 2584TIP3   OH2 7694   2.156   5.876   6.277
 2584TIP3    H1 7695   2.103   5.928   6.337
 2584TIP3    H2 7696   2.238   5.925   6.269
 2585TIP3   OH2 7697   3.544   5.389   5.063
 2585TIP3    H1 7698   3.617   5.401   5.124
 2585TIP3    H2 7699   3.466   5.406   5.114
 2586TIP3   OH2 7700   3.232   5.845   2.900
 2586TIP3    H1 7701   3.223   5.752   2.918
 2586TIP3    H2 7702   3.151   5.869   2.855
 2587TIP3   OH2 7703   7.531   2.645   6.561
 2587TIP3    H1 7704   7.438   2.645   6.582
 2587TIP3    H2 7705   7.541   2.712   6.493
 2588TIP3   OH2 7706   2.177   4.348   4.008
 2588TIP3    H1 7707   2.243   4.393   3.955
 2588TIP3    H2 7708   2.192   4.255   3.990
 2589TIP3   OH2 7709   3.940   2.791   1.112
 2589TIP3    H1 7710   3.942   2.874   1.159
 2589TIP3    H2 7711   4.028   2.755   1.123
 2590TIP3   OH2 7712   2.933   3.406   0.189
 2590TIP3    H1 7713   2.853   3.397   0.242
 2590TIP3    H2 7714   2.915   3.354   0.111
 2591TIP3   OH2 7715   5.625   3.770   3.420
 2591TIP3    H1 7716   5.592   3.693   3.374
 2591TIP3    H2 7717   5.558   3.836   3.407
 2592TIP3   OH2 7718   6.551   0.352   5.336
 2592TIP3    H1 7719   6.606   0.383   5.409
 2592TIP3    H2 7720   6.613   0.311   5.276
 2593TIP3   OH2 7721   4.736   7.050   3.412
 2593TIP3    H1 7722   4.684   7.042   3.492
 2593TIP3    H2 7723   4.752   7.144   3.403
 2594TIP3   OH2 7724   1.983   6.099   1.115
 2594TIP3    H1 7725   1.990   6.041   1.191
 2594TIP3    H2 7726   2.064   6.150   1.117
 2595TIP3   OH2 7727   2.418   7.278   1.698
 2595TIP3    H1 7728   2.384   7.337   1.766
 2595TIP3    H2 7729   2.340   7.254   1.647
 2596TIP3   OH2 7730   5.111   1.728   4.960
 2596TIP3    H1 7731   5.115   1.642   5.002
 2596TIP3    H2 7732   5.153   1.715   4.875
 2597TIP3   OH2 7733   2.352   4.278   2.713
 2597TIP3    H1 7734   2.409   4.332   2.768
 2597TIP3    H2 7735   2.413   4.225   2.661
 2598TIP3   OH2 7736   5.740   5.413   1.379
 2598TIP3    H1 7737   5.657   5.456   1.356
 2598TIP3    H2 7738   5.772   5.464   1.454
 2599TIP3   OH2 7739   0.047   1.580   6.481
 2599TIP3    H1 7740  -0.042   1.585   6.517
 2599TIP3    H2 7741   0.094   1.652   6.524
 2600TIP3   OH2 7742   1.812   7.844   1.341
 2600TIP3    H1 7743   1.818   7.917   1.279
 2600TIP3    H2 7744   1.720   7.818   1.339
 2601TIP3   OH2 7745   0.709   6.601   4.220
 2601TIP3    H1 7746   0.724   6.509   4.239
 2601TIP3    H2 7747   0.648   6.631   4.288
 2602TIP3   OH2 7748   5.036   2.846   1.374
 2602TIP3    H1 7749   5.028   2.857   1.280
 2602TIP3    H2 7750   5.088   2.921   1.403
 2603TIP3   OH2 7751   6.243   6.675   3.900
 2603TIP3    H1 7752   6.171   6.734   3.923
 2603TIP3    H2 7753   6.270   6.702   3.813
 2604TIP3   OH2 7754   6.232   3.905   4.653
 2604TIP3    H1 7755   6.192   3.828   4.694
 2604TIP3    H2 7756   6.313   3.872   4.615
 2605TIP3   OH2 7757   6.308   3.227   6.809
 2605TIP3    H1 7758   6.379   3.278   6.769
 2605TIP3    H2 7759   6.258   3.291   6.859
 2606TIP3   OH2 7760   4.416   2.493   1.414
 2606TIP3    H1 7761   4.326   2.467   1.392
 2606TIP3    H2 7762   4.416   2.588   1.409
 2607TIP3   OH2 7763   2.265   1.514   0.910
 2607TIP3    H1 7764   2.314   1.594   0.928
 2607TIP3    H2 7765   2.331   1.444   0.912
 2608TIP3   OH2 7766   5.421   4.262   2.164
 2608TIP3    H1 7767   5.388   4.303   2.084
 2608TIP3    H2 7768   5.349   4.272   2.227
 2609TIP3   OH2 7769   2.549   5.676   2.058
 2609TIP3    H1 7770   2.487   5.622   2.106
 2609TIP3    H2 7771   2.561   5.753   2.114
 2610TIP3   OH2 7772   6.872   5.319   5.779
 2610TIP3    H1 7773   6.906   5.291   5.694
 2610TIP3    H2 7774   6.892   5.412   5.784
 2611TIP3   OH2 7775   3.433   4.819   4.961
 2611TIP3    H1 7776   3.364   4.753   4.961
 2611TIP3    H2 7777   3.394   4.895   5.003
 2612TIP3   OH2 7778   6.141   7.597   6.718
 2612TIP3    H1 7779   6.071   7.554   6.768
 2612TIP3    H2 7780   6.107   7.599   6.628
 2613TIP3   OH2 7781   2.450   5.311   5.889
 2613TIP3    H1 7782   2.544   5.294   5.881
 2613TIP3    H2 7783   2.438   5.340   5.979
 2614TIP3   OH2 7784   8.216   6.001   5.160
 2614TIP3    H1 7785   8.180   6.030   5.244
 2614TIP3    H2 7786   8.153   5.936   5.129
 2615TIP3   OH2 7787   0.922   7.536   2.140
 2615TIP3    H1 7788   0.831   7.528   2.111
 2615TIP3    H2 7789   0.968   7.572   2.063
 2616TIP3   OH2 7790   6.569   5.733   3.889
 2616TIP3    H1 7791   6.560   5.646   3.852
 2616TIP3    H2 7792   6.487   5.747   3.937
 2617TIP3   OH2 7793   6.968   0.143   5.901
 2617TIP3    H1 7794   6.982   0.222   5.848
 2617TIP3    H2 7795   7.019   0.158   5.981
 2618TIP3   OH2 7796   3.863   5.090   1.899
 2618TIP3    H1 7797   3.955   5.114   1.888
 2618TIP3    H2 7798   3.825   5.102   1.812
 2619TIP3   OH2 7799   0.598   0.208   1.469
 2619TIP3    H1 7800   0.641   0.289   1.442
 2619TIP3    H2 7801   0.669   0.155   1.507
 2620TIP3   OH2 7802   1.827   7.760   4.393
 2620TIP3    H1 7803   1.818   7.667   4.416
 2620TIP3    H2 7804   1.918   7.768   4.363
 2621TIP3   OH2 7805   1.601   0.495   2.759
 2621TIP3    H1 7806   1.519   0.491   2.710
 2621TIP3    H2 7807   1.592   0.571   2.816
 2622TIP3   OH2 7808   2.406   2.286   0.049
 2622TIP3    H1 7809   2.415   2.373   0.087
 2622TIP3    H2 7810   2.478   2.236   0.087
 2623TIP3   OH2 7811   7.269   2.467   5.132
 2623TIP3    H1 7812   7.299   2.525   5.202
 2623TIP3    H2 7813   7.318   2.386   5.145
 2624TIP3   OH2 7814   0.377   1.577   0.184
 2624TIP3    H1 7815   0.465   1.542   0.176
 2624TIP3    H2 7816   0.365   1.632   0.106
 2625TIP3   OH2 7817   5.624   1.096   4.859
 2625TIP3    H1 7818   5.589   1.170   4.809
 2625TIP3    H2 7819   5.635   1.026   4.794
 2626TIP3   OH2 7820   1.370   7.578   2.217
 2626TIP3    H1 7821   1.336   7.664   2.191
 2626TIP3    H2 7822   1.293   7.528   2.241
 2627TIP3   OH2 7823   2.808   7.841   3.517
 2627TIP3    H1 7824   2.803   7.789   3.436
 2627TIP3    H2 7825   2.717   7.846   3.547
 2628TIP3   OH2 7826   5.628   2.656   1.671
 2628TIP3    H1 7827   5.585   2.581   1.632
 2628TIP3    H2 7828   5.722   2.638   1.661
 2629TIP3   OH2 7829   1.791   4.352   3.686
 2629TIP3    H1 7830   1.718   4.406   3.655
 2629TIP3    H2 7831   1.805   4.379   3.777
 2630TIP3   OH2 7832   0.744   2.065   6.494
 2630TIP3    H1 7833   0.834   2.080   6.466
 2630TIP3    H2 7834   0.750   1.996   6.560
 2631TIP3   OH2 7835   4.316   4.663   2.009
 2631TIP3    H1 7836   4.389   4.604   2.031
 2631TIP3    H2 7837   4.327   4.738   2.068
 2632TIP3   OH2 7838   7.439   3.403   0.008
 2632TIP3    H1 7839   7.358   3.439  -0.029
 2632TIP3    H2 7840   7.455   3.456   0.086
 2633TIP3   OH2 7841   1.375   5.201   2.566
 2633TIP3    H1 7842   1.348   5.110   2.580
 2633TIP3    H2 7843   1.373   5.240   2.653
 2634TIP3   OH2 7844   4.669   0.362   5.917
 2634TIP3    H1 7845   4.634   0.406   5.994
 2634TIP3    H2 7846   4.594   0.353   5.858
 2635TIP3   OH2 7847   6.813   1.778   6.094
 2635TIP3    H1 7848   6.756   1.705   6.118
 2635TIP3    H2 7849   6.812   1.835   6.171
 2636TIP3   OH2 7850   1.956   2.697   5.378
 2636TIP3    H1 7851   1.916   2.758   5.316
 2636TIP3    H2 7852   1.929   2.729   5.464
 2637TIP3   OH2 7853   3.674   7.154   5.325
 2637TIP3    H1 7854   3.765   7.140   5.350
 2637TIP3    H2 7855   3.670   7.125   5.233
 2638TIP3   OH2 7856   0.400   3.078   2.797
 2638TIP3    H1 7857   0.452   2.999   2.786
 2638TIP3    H2 7858   0.443   3.144   2.743
 2639TIP3   OH2 7859   1.168   7.223   6.253
 2639TIP3    H1 7860   1.126   7.151   6.207
 2639TIP3    H2 7861   1.162   7.297   6.193
 2640TIP3   OH2 7862   4.348   0.906   2.277
 2640TIP3    H1 7863   4.254   0.901   2.295
 2640TIP3    H2 7864   4.381   0.819   2.299
 2641TIP3   OH2 7865   3.397   4.836   3.179
 2641TIP3    H1 7866   3.385   4.764   3.241
 2641TIP3    H2 7867   3.443   4.904   3.229
 2642TIP3   OH2 7868   2.241   7.113   2.544
 2642TIP3    H1 7869   2.213   7.029   2.580
 2642TIP3    H2 7870   2.160   7.157   2.519
 2643TIP3   OH2 7871   2.821   4.635   4.605
 2643TIP3    H1 7872   2.866   4.689   4.670
 2643TIP3    H2 7873   2.888   4.615   4.540
 2644TIP3   OH2 7874   3.372   7.398   6.804
 2644TIP3    H1 7875   3.295   7.363   6.760
 2644TIP3    H2 7876   3.371   7.492   6.782
 2645TIP3   OH2 7877   3.949   3.752   5.927
 2645TIP3    H1 7878   4.037   3.788   5.917
 2645TIP3    H2 7879   3.907   3.807   5.993
 2646TIP3   OH2 7880   3.439   5.405   2.170
 2646TIP3    H1 7881   3.353   5.446   2.180
 2646TIP3    H2 7882   3.463   5.420   2.079
 2647TIP3   OH2 7883   5.865   7.061   0.508
 2647TIP3    H1 7884   5.781   7.099   0.531
 2647TIP3    H2 7885   5.893   7.014   0.586
 2648TIP3   OH2 7886   4.118   6.519   3.062
 2648TIP3    H1 7887   4.158   6.597   3.024
 2648TIP3    H2 7888   4.125   6.532   3.156
 2649TIP3   OH2 7889   3.739   1.518   2.637
 2649TIP3    H1 7890   3.773   1.607   2.647
 2649TIP3    H2 7891   3.767   1.472   2.716
 2650TIP3   OH2 7892   2.050   2.187   4.409
 2650TIP3    H1 7893   2.121   2.124   4.421
 2650TIP3    H2 7894   2.084   2.248   4.343
 2651TIP3   OH2 7895   7.920   2.909   4.862
 2651TIP3    H1 7896   7.898   2.976   4.797
 2651TIP3    H2 7897   7.884   2.828   4.827
 2652TIP3   OH2 7898   2.705   2.434   4.582
 2652TIP3    H1 7899   2.706   2.512   4.638
 2652TIP3    H2 7900   2.740   2.365   4.637
 2653TIP3   OH2 7901   1.476   2.871   6.258
 2653TIP3    H1 7902   1.399   2.816   6.240
 2653TIP3    H2 7903   1.514   2.833   6.338
 2654TIP3   OH2 7904   6.201   1.859   3.696
 2654TIP3    H1 7905   6.192   1.785   3.636
 2654TIP3    H2 7906   6.131   1.847   3.760
 2655TIP3   OH2 7907   2.276   3.072   0.738
 2655TIP3    H1 7908   2.370   3.054   0.738
 2655TIP3    H2 7909   2.239   3.003   0.683
 2656TIP3   OH2 7910   3.248   0.064   4.918
 2656TIP3    H1 7911   3.176   0.126   4.910
 2656TIP3    H2 7912   3.270   0.065   5.011
 2657TIP3   OH2 7913   5.537   1.983   0.019
 2657TIP3    H1 7914   5.624   1.966  -0.017
 2657TIP3    H2 7915   5.492   2.033  -0.050
 2658TIP3   OH2 7916   7.102   7.544   1.950
 2658TIP3    H1 7917   7.172   7.485   1.922
 2658TIP3    H2 7918   7.057   7.567   1.869
 2659TIP3   OH2 7919   2.809   5.191   5.721
 2659TIP3    H1 7920   2.777   5.237   5.644
 2659TIP3    H2 7921   2.748   5.117   5.731
 2660TIP3   OH2 7922   4.082   4.104   6.423
 2660TIP3    H1 7923   3.989   4.100   6.442
 2660TIP3    H2 7924   4.088   4.086   6.329
 2661TIP3   OH2 7925   6.420   6.247   0.876
 2661TIP3    H1 7926   6.404   6.194   0.954
 2661TIP3    H2 7927   6.370   6.203   0.807
 2662TIP3   OH2 7928   3.717   5.810   4.667
 2662TIP3    H1 7929   3.626   5.782   4.672
 2662TIP3    H2 7930   3.713   5.906   4.663
 2663TIP3   OH2 7931   3.439   6.968   4.473
 2663TIP3    H1 7932   3.497   6.975   4.397
 2663TIP3    H2 7933   3.496   6.977   4.549
 2664TIP3   OH2 7934   6.827   0.963   1.338
 2664TIP3    H1 7935   6.905   0.966   1.394
 2664TIP3    H2 7936   6.755   0.947   1.398
 2665TIP3   OH2 7937   1.554   1.246   5.453
 2665TIP3    H1 7938   1.620   1.308   5.424
 2665TIP3    H2 7939   1.556   1.176   5.388
 2666TIP3   OH2 7940   1.543   6.146   0.405
 2666TIP3    H1 7941   1.547   6.129   0.311
 2666TIP3    H2 7942   1.453   6.121   0.430
 2667TIP3   OH2 7943   8.251   7.659   4.834
 2667TIP3    H1 7944   8.294   7.581   4.800
 2667TIP3    H2 7945   8.321   7.722   4.847
 2668TIP3   OH2 7946   3.697   0.920   1.612
 2668TIP3    H1 7947   3.656   0.994   1.658
 2668TIP3    H2 7948   3.790   0.941   1.611
 2669TIP3   OH2 7949   2.531   7.237   6.559
 2669TIP3    H1 7950   2.567   7.294   6.626
 2669TIP3    H2 7951   2.497   7.162   6.608
 2670TIP3   OH2 7952   6.404   2.508   1.259
 2670TIP3    H1 7953   6.410   2.495   1.165
 2670TIP3    H2 7954   6.476   2.567   1.281
 2671TIP3   OH2 7955   4.279   0.470   6.458
 2671TIP3    H1 7956   4.281   0.476   6.553
 2671TIP3    H2 7957   4.322   0.387   6.438
 2672TIP3   OH2 7958   6.036   6.681   3.609
 2672TIP3    H1 7959   5.947   6.715   3.610
 2672TIP3    H2 7960   6.091   6.756   3.631
 2673TIP3   OH2 7961   0.387   1.985   3.449
 2673TIP3    H1 7962   0.369   1.891   3.447
 2673TIP3    H2 7963   0.310   2.023   3.491
 2674TIP3   OH2 7964   5.254   2.428   3.638
 2674TIP3    H1 7965   5.193   2.458   3.706
 2674TIP3    H2 7966   5.266   2.335   3.656
 2675TIP3   OH2 7967   2.039   6.255   5.692
 2675TIP3    H1 7968   2.120   6.257   5.641
 2675TIP3    H2 7969   2.061   6.298   5.774
 2676TIP3   OH2 7970   2.011   5.143   6.670
 2676TIP3    H1 7971   1.917   5.159   6.669
 2676TIP3    H2 7972   2.039   5.157   6.580
 2677TIP3   OH2 7973   7.589   1.215   2.921
 2677TIP3    H1 7974   7.544   1.131   2.917
 2677TIP3    H2 7975   7.666   1.203   2.865
 2678TIP3   OH2 7976   5.553   2.564   6.365
 2678TIP3    H1 7977   5.501   2.524   6.295
 2678TIP3    H2 7978   5.571   2.653   6.334
 2679TIP3   OH2 7979   1.152   7.326   3.311
 2679TIP3    H1 7980   1.085   7.329   3.243
 2679TIP3    H2 7981   1.135   7.245   3.358
 2680TIP3   OH2 7982   0.255   6.647   2.685
 2680TIP3    H1 7983   0.281   6.738   2.705
 2680TIP3    H2 7984   0.233   6.648   2.592
 2681TIP3   OH2 7985   0.615   7.421   5.969
 2681TIP3    H1 7986   0.601   7.328   5.986
 2681TIP3    H2 7987   0.559   7.465   6.033
 2682TIP3   OH2 7988   5.284   3.791   0.462
 2682TIP3    H1 7989   5.316   3.878   0.441
 2682TIP3    H2 7990   5.188   3.799   0.458
 2683TIP3   OH2 7991   6.546   0.008   0.528
 2683TIP3    H1 7992   6.627  -0.008   0.480
 2683TIP3    H2 7993   6.487   0.046   0.463
 2684TIP3   OH2 7994   3.108   2.788   5.474
 2684TIP3    H1 7995   3.169   2.754   5.409
 2684TIP3    H2 7996   3.158   2.790   5.555
 2685TIP3   OH2 7997   7.684   6.902   4.481
 2685TIP3    H1 7998   7.749   6.916   4.550
 2685TIP3    H2 7999   7.699   6.974   4.419
 2686TIP3   OH2 8000   1.581   6.249   3.126
 2686TIP3    H1 8001   1.658   6.304   3.134
 2686TIP3    H2 8002   1.531   6.287   3.054
 2687TIP3   OH2 8003   0.298   2.429   4.423
 2687TIP3    H1 8004   0.366   2.365   4.447
 2687TIP3    H2 8005   0.219   2.376   4.410
 2688TIP3   OH2 8006   6.670   6.716   3.577
 2688TIP3    H1 8007   6.658   6.711   3.482
 2688TIP3    H2 8008   6.698   6.628   3.603
 2689TIP3   OH2 8009   6.717   0.252   5.704
 2689TIP3    H1 8010   6.709   0.185   5.772
 2689TIP3    H2 8011   6.760   0.207   5.631
 2690TIP3   OH2 8012   0.418   3.611   3.727
 2690TIP3    H1 8013   0.347   3.641   3.670
 2690TIP3    H2 8014   0.399   3.518   3.740
 2691TIP3   OH2 8015   3.181   1.849   5.805
 2691TIP3    H1 8016   3.201   1.864   5.712
 2691TIP3    H2 8017   3.208   1.758   5.820
 2692TIP3   OH2 8018   0.801   0.129   6.041
 2692TIP3    H1 8019   0.818   0.198   5.977
 2692TIP3    H2 8020   0.887   0.110   6.078
 2693TIP3   OH2 8021   1.107   6.843   2.661
 2693TIP3    H1 8022   1.192   6.887   2.668
 2693TIP3    H2 8023   1.049   6.909   2.623
 2694TIP3   OH2 8024   1.170   2.712   2.263
 2694TIP3    H1 8025   1.136   2.747   2.345
 2694TIP3    H2 8026   1.265   2.719   2.271
 2695TIP3   OH2 8027   5.368   2.360   2.466
 2695TIP3    H1 8028   5.403   2.449   2.464
 2695TIP3    H2 8029   5.294   2.364   2.526
 2696TIP3   OH2 8030   4.030   6.037   1.934
 2696TIP3    H1 8031   4.013   6.066   1.844
 2696TIP3    H2 8032   3.966   6.084   1.987
 2697TIP3   OH2 8033   5.111   4.442   0.417
 2697TIP3    H1 8034   5.082   4.360   0.458
 2697TIP3    H2 8035   5.147   4.415   0.333
 2698TIP3   OH2 8036   5.951   5.483   0.354
 2698TIP3    H1 8037   5.988   5.536   0.283
 2698TIP3    H2 8038   5.895   5.419   0.311
 2699TIP3   OH2 8039   4.483   7.682   2.481
 2699TIP3    H1 8040   4.492   7.713   2.392
 2699TIP3    H2 8041   4.503   7.588   2.477
 2700TIP3   OH2 8042   2.696   5.253   0.727
 2700TIP3    H1 8043   2.671   5.327   0.672
 2700TIP3    H2 8044   2.682   5.176   0.671
 2701TIP3   OH2 8045   8.263   2.326   3.035
 2701TIP3    H1 8046   8.259   2.320   3.131
 2701TIP3    H2 8047   8.179   2.364   3.010
 2702TIP3   OH2 8048   0.097   7.472   4.688
 2702TIP3    H1 8049   0.191   7.479   4.673
 2702TIP3    H2 8050   0.088   7.404   4.754
 2703TIP3   OH2 8051   2.184   3.338   2.703
 2703TIP3    H1 8052   2.158   3.330   2.611
 2703TIP3    H2 8053   2.124   3.280   2.749
 2704TIP3   OH2 8054   1.896   4.509   6.116
 2704TIP3    H1 8055   1.833   4.520   6.187
 2704TIP3    H2 8056   1.978   4.544   6.150
 2705TIP3   OH2 8057   7.476   3.172   3.041
 2705TIP3    H1 8058   7.502   3.118   3.115
 2705TIP3    H2 8059   7.535   3.247   3.043
 2706TIP3   OH2 8060   6.634   0.771   5.959
 2706TIP3    H1 8061   6.598   0.814   5.882
 2706TIP3    H2 8062   6.565   0.711   5.988
 2707TIP3   OH2 8063   6.975   4.694   4.616
 2707TIP3    H1 8064   6.916   4.656   4.681
 2707TIP3    H2 8065   7.004   4.620   4.564
 2708TIP3   OH2 8066   3.156   4.474   6.467
 2708TIP3    H1 8067   3.101   4.405   6.430
 2708TIP3    H2 8068   3.173   4.533   6.394
 2709TIP3   OH2 8069   3.903   2.163   0.832
 2709TIP3    H1 8070   3.992   2.140   0.806
 2709TIP3    H2 8071   3.894   2.130   0.921
 2710TIP3   OH2 8072   1.358   4.363   3.512
 2710TIP3    H1 8073   1.358   4.390   3.420
 2710TIP3    H2 8074   1.268   4.380   3.542
 2711TIP3   OH2 8075   5.128   5.240   2.263
 2711TIP3    H1 8076   5.063   5.170   2.262
 2711TIP3    H2 8077   5.205   5.201   2.305
 2712TIP3   OH2 8078   3.437   0.397   4.178
 2712TIP3    H1 8079   3.498   0.470   4.176
 2712TIP3    H2 8080   3.391   0.402   4.094
 2713TIP3   OH2 8081   1.234   2.708   0.636
 2713TIP3    H1 8082   1.297   2.775   0.613
 2713TIP3    H2 8083   1.151   2.755   0.647
 2714TIP3   OH2 8084   1.506   6.289   4.803
 2714TIP3    H1 8085   1.503   6.372   4.755
 2714TIP3    H2 8086   1.417   6.256   4.798
 2715TIP3   OH2 8087   2.889   6.983   1.278
 2715TIP3    H1 8088   2.899   6.998   1.184
 2715TIP3    H2 8089   2.855   6.894   1.285
 2716TIP3   OH2 8090   6.137   1.002   4.796
 2716TIP3    H1 8091   6.142   1.043   4.883
 2716TIP3    H2 8092   6.054   1.032   4.760
 2717TIP3   OH2 8093   2.071   7.269   0.559
 2717TIP3    H1 8094   2.089   7.337   0.623
 2717TIP3    H2 8095   1.999   7.304   0.506
 2718TIP3   OH2 8096   5.146   6.132   0.591
 2718TIP3    H1 8097   5.192   6.178   0.522
 2718TIP3    H2 8098   5.092   6.200   0.633
 2719TIP3   OH2 8099   7.606   7.436   1.807
 2719TIP3    H1 8100   7.607   7.474   1.894
 2719TIP3    H2 8101   7.610   7.511   1.747
 2720TIP3   OH2 8102   2.996   4.404   0.180
 2720TIP3    H1 8103   2.931   4.473   0.165
 2720TIP3    H2 8104   2.946   4.332   0.219
 2721TIP3   OH2 8105   2.137   3.579   3.218
 2721TIP3    H1 8106   2.138   3.510   3.152
 2721TIP3    H2 8107   2.078   3.547   3.286
 2722TIP3   OH2 8108   5.250   0.166   0.218
 2722TIP3    H1 8109   5.156   0.172   0.205
 2722TIP3    H2 8110   5.286   0.150   0.130
 2723TIP3   OH2 8111   1.289   1.978   0.836
 2723TIP3    H1 8112   1.237   1.997   0.758
 2723TIP3    H2 8113   1.234   2.010   0.909
 2724TIP3   OH2 8114   0.484   6.483   0.062
 2724TIP3    H1 8115   0.527   6.568   0.073
 2724TIP3    H2 8116   0.428   6.474   0.140
 2725TIP3   OH2 8117   6.615   7.248   0.315
 2725TIP3    H1 8118   6.540   7.190   0.330
 2725TIP3    H2 8119   6.616   7.306   0.390
 2726TIP3   OH2 8120   7.324   1.115   2.412
 2726TIP3    H1 8121   7.376   1.159   2.480
 2726TIP3    H2 8122   7.379   1.043   2.383
 2727TIP3   OH2 8123   6.534   1.698   5.039
 2727TIP3    H1 8124   6.542   1.698   5.134
 2727TIP3    H2 8125   6.449   1.738   5.022
 2728TIP3   OH2 8126   0.293   3.364   3.779
 2728TIP3    H1 8127   0.348   3.288   3.760
 2728TIP3    H2 8128   0.207   3.326   3.799
 2729TIP3   OH2 8129   4.358   3.034   0.921
 2729TIP3    H1 8130   4.366   2.988   1.005
 2729TIP3    H2 8131   4.264   3.053   0.914
 2730TIP3   OH2 8132   6.476   2.677   5.456
 2730TIP3    H1 8133   6.531   2.646   5.385
 2730TIP3    H2 8134   6.537   2.722   5.516
 2731TIP3   OH2 8135   0.658   1.055   2.041
 2731TIP3    H1 8136   0.667   0.961   2.026
 2731TIP3    H2 8137   0.571   1.077   2.007
 2732TIP3   OH2 8138   8.315   3.288   1.186
 2732TIP3    H1 8139   8.232   3.288   1.139
 2732TIP3    H2 8140   8.308   3.361   1.247
 2733TIP3   OH2 8141   5.805   5.786   4.797
 2733TIP3    H1 8142   5.895   5.753   4.798
 2733TIP3    H2 8143   5.807   5.860   4.735
 2734TIP3   OH2 8144   1.912   7.276   6.441
 2734TIP3    H1 8145   1.850   7.204   6.449
 2734TIP3    H2 8146   1.916   7.293   6.346
 2735TIP3   OH2 8147   6.833   2.470   5.633
 2735TIP3    H1 8148   6.916   2.436   5.600
 2735TIP3    H2 8149   6.790   2.395   5.674
 2736TIP3   OH2 8150   6.374   1.010   6.597
 2736TIP3    H1 8151   6.385   0.916   6.605
 2736TIP3    H2 8152   6.383   1.028   6.503
 2737TIP3   OH2 8153   8.318   3.219   5.115
 2737TIP3    H1 8154   8.239   3.179   5.078
 2737TIP3    H2 8155   8.303   3.314   5.107
 2738TIP3   OH2 8156   6.136   3.019   5.323
 2738TIP3    H1 8157   6.148   3.076   5.247
 2738TIP3    H2 8158   6.116   2.933   5.287
 2739TIP3   OH2 8159   7.315   6.628   3.401
 2739TIP3    H1 8160   7.272   6.679   3.332
 2739TIP3    H2 8161   7.366   6.692   3.450
 2740TIP3   OH2 8162   3.769   3.911   3.934
 2740TIP3    H1 8163   3.674   3.909   3.928
 2740TIP3    H2 8164   3.789   4.000   3.965
 2741TIP3   OH2 8165   4.318   1.411   6.522
 2741TIP3    H1 8166   4.348   1.444   6.438
 2741TIP3    H2 8167   4.223   1.405   6.513
 2742TIP3   OH2 8168   5.078   2.613   4.689
 2742TIP3    H1 8169   5.066   2.634   4.597
 2742TIP3    H2 8170   5.138   2.538   4.688
 2743TIP3   OH2 8171   2.421   5.445   4.076
 2743TIP3    H1 8172   2.461   5.531   4.092
 2743TIP3    H2 8173   2.467   5.386   4.136
 2744TIP3   OH2 8174   5.607   0.789   2.490
 2744TIP3    H1 8175   5.524   0.752   2.459
 2744TIP3    H2 8176   5.628   0.857   2.426
 2745TIP3   OH2 8177   3.817   5.598   6.440
 2745TIP3    H1 8178   3.740   5.595   6.383
 2745TIP3    H2 8179   3.826   5.690   6.463
 2746TIP3   OH2 8180   6.656   5.009   1.978
 2746TIP3    H1 8181   6.649   5.024   1.884
 2746TIP3    H2 8182   6.694   4.922   1.986
 2747TIP3   OH2 8183   7.336   3.836   0.033
 2747TIP3    H1 8184   7.266   3.873   0.087
 2747TIP3    H2 8185   7.407   3.820   0.094
 2748TIP3   OH2 8186   6.367   0.869   0.979
 2748TIP3    H1 8187   6.283   0.850   1.021
 2748TIP3    H2 8188   6.410   0.931   1.037
 2749TIP3   OH2 8189   1.519   0.287   6.439
 2749TIP3    H1 8190   1.559   0.279   6.353
 2749TIP3    H2 8191   1.537   0.377   6.466
 2750TIP3   OH2 8192   7.867   1.074   4.446
 2750TIP3    H1 8193   7.842   1.162   4.415
 2750TIP3    H2 8194   7.819   1.014   4.389
 2751TIP3   OH2 8195   6.854   3.062   1.987
 2751TIP3    H1 8196   6.918   3.063   2.058
 2751TIP3    H2 8197   6.897   3.109   1.915
 2752TIP3   OH2 8198   4.708   4.508   5.497
 2752TIP3    H1 8199   4.651   4.482   5.569
 2752TIP3    H2 8200   4.737   4.596   5.519
 2753TIP3   OH2 8201   7.892   2.153   4.763
 2753TIP3    H1 8202   7.814   2.102   4.785
 2753TIP3    H2 8203   7.877   2.239   4.802
 2754TIP3   OH2 8204   4.147   4.841   2.344
 2754TIP3    H1 8205   4.090   4.915   2.324
 2754TIP3    H2 8206   4.118   4.809   2.429
 2755TIP3   OH2 8207   7.533   7.520   3.727
 2755TIP3    H1 8208   7.483   7.439   3.716
 2755TIP3    H2 8209   7.616   7.491   3.765
 2756TIP3   OH2 8210   4.271   5.371   2.414
 2756TIP3    H1 8211   4.271   5.466   2.408
 2756TIP3    H2 8212   4.315   5.342   2.334
 2757TIP3   OH2 8213   3.662   0.754   6.440
 2757TIP3    H1 8214   3.740   0.740   6.494
 2757TIP3    H2 8215   3.635   0.844   6.459
 2758TIP3   OH2 8216   2.404   2.669   1.422
 2758TIP3    H1 8217   2.439   2.750   1.458
 2758TIP3    H2 8218   2.321   2.694   1.382
 2759TIP3   OH2 8219   6.707   1.496   4.948
 2759TIP3    H1 8220   6.696   1.483   4.854
 2759TIP3    H2 8221   6.643   1.564   4.970
 2760TIP3   OH2 8222   5.230   0.372   2.913
 2760TIP3    H1 8223   5.159   0.341   2.970
 2760TIP3    H2 8224   5.296   0.405   2.974
 2761TIP3   OH2 8225   8.296   0.863   4.042
 2761TIP3    H1 8226   8.355   0.824   4.107
 2761TIP3    H2 8227   8.216   0.811   4.048
 2762TIP3   OH2 8228   8.103   2.281   4.638
 2762TIP3    H1 8229   8.043   2.218   4.677
 2762TIP3    H2 8230   8.107   2.256   4.545
 2763TIP3   OH2 8231   5.609   0.499   6.316
 2763TIP3    H1 8232   5.571   0.453   6.390
 2763TIP3    H2 8233   5.663   0.434   6.272
 2764TIP3   OH2 8234   1.271   1.366   0.661
 2764TIP3    H1 8235   1.236   1.455   0.660
 2764TIP3    H2 8236   1.348   1.370   0.717
 2765TIP3   OH2 8237   0.365   5.001   3.172
 2765TIP3    H1 8238   0.317   5.084   3.177
 2765TIP3    H2 8239   0.391   4.983   3.262
 2766TIP3   OH2 8240   4.732   4.302   0.296
 2766TIP3    H1 8241   4.764   4.390   0.320
 2766TIP3    H2 8242   4.788   4.275   0.224
 2767TIP3   OH2 8243   1.457   6.795   1.114
 2767TIP3    H1 8244   1.421   6.714   1.151
 2767TIP3    H2 8245   1.382   6.837   1.071
 2768TIP3   OH2 8246   0.268   0.360   0.405
 2768TIP3    H1 8247   0.231   0.287   0.455
 2768TIP3    H2 8248   0.240   0.438   0.453
 2769TIP3   OH2 8249   7.053   7.055   6.270
 2769TIP3    H1 8250   7.033   6.984   6.330
 2769TIP3    H2 8251   6.984   7.051   6.204
 2770TIP3   OH2 8252   5.782   4.727   5.642
 2770TIP3    H1 8253   5.813   4.638   5.654
 2770TIP3    H2 8254   5.771   4.737   5.548
 2771TIP3   OH2 8255   6.769   5.928   3.899
 2771TIP3    H1 8256   6.711   5.852   3.889
 2771TIP3    H2 8257   6.713   5.995   3.938
 2772TIP3   OH2 8258   0.460   5.968   1.422
 2772TIP3    H1 8259   0.540   6.012   1.451
 2772TIP3    H2 8260   0.444   5.901   1.488
 2773TIP3   OH2 8261   0.287   2.864   4.587
 2773TIP3    H1 8262   0.364   2.908   4.622
 2773TIP3    H2 8263   0.315   2.774   4.572
 2774TIP3   OH2 8264   6.960   6.267   4.013
 2774TIP3    H1 8265   6.977   6.185   4.058
 2774TIP3    H2 8266   6.950   6.243   3.921
 2775TIP3   OH2 8267   1.473   2.776   3.653
 2775TIP3    H1 8268   1.449   2.690   3.687
 2775TIP3    H2 8269   1.424   2.784   3.571
 2776TIP3   OH2 8270   5.864   6.632   0.801
 2776TIP3    H1 8271   5.867   6.653   0.708
 2776TIP3    H2 8272   5.776   6.658   0.828
 2777TIP3   OH2 8273   5.558   1.722   1.763
 2777TIP3    H1 8274   5.577   1.669   1.686
 2777TIP3    H2 8275   5.481   1.681   1.802
 2778TIP3   OH2 8276   1.179   2.973   5.193
 2778TIP3    H1 8277   1.085   2.988   5.204
 2778TIP3    H2 8278   1.185   2.903   5.128
 2779TIP3   OH2 8279   8.298   0.837   1.774
 2779TIP3    H1 8280   8.320   0.793   1.857
 2779TIP3    H2 8281   8.203   0.853   1.780
 2780TIP3   OH2 8282   6.994   0.800   3.327
 2780TIP3    H1 8283   7.042   0.813   3.246
 2780TIP3    H2 8284   6.902   0.810   3.303
 2781TIP3   OH2 8285   5.133   4.400   4.816
 2781TIP3    H1 8286   5.159   4.430   4.729
 2781TIP3    H2 8287   5.041   4.375   4.806
 2782TIP3   OH2 8288   7.168   5.255   6.375
 2782TIP3    H1 8289   7.233   5.275   6.308
 2782TIP3    H2 8290   7.210   5.279   6.457
 2783TIP3   OH2 8291   6.697   3.949   2.066
 2783TIP3    H1 8292   6.677   3.867   2.112
 2783TIP3    H2 8293   6.637   3.950   1.992
 2784TIP3   OH2 8294   6.219   1.252   2.414
 2784TIP3    H1 8295   6.140   1.210   2.449
 2784TIP3    H2 8296   6.204   1.346   2.426
 2785TIP3   OH2 8297   5.731   5.373   5.514
 2785TIP3    H1 8298   5.795   5.324   5.462
 2785TIP3    H2 8299   5.781   5.405   5.589
 2786TIP3   OH2 8300   7.337   2.360   1.762
 2786TIP3    H1 8301   7.256   2.350   1.811
 2786TIP3    H2 8302   7.342   2.283   1.705
 2787TIP3   OH2 8303   3.656   4.554   5.244
 2787TIP3    H1 8304   3.747   4.537   5.267
 2787TIP3    H2 8305   3.653   4.543   5.149
 2788TIP3   OH2 8306   4.918   5.873   1.745
 2788TIP3    H1 8307   4.937   5.782   1.770
 2788TIP3    H2 8308   5.004   5.913   1.732
 2789TIP3   OH2 8309   3.815   2.956   4.503
 2789TIP3    H1 8310   3.895   2.928   4.458
 2789TIP3    H2 8311   3.762   2.998   4.435
 2790TIP3   OH2 8312   2.040   6.721   2.937
 2790TIP3    H1 8313   1.976   6.753   2.874
 2790TIP3    H2 8314   2.057   6.631   2.910
 2791TIP3   OH2 8315   7.379   0.502   4.294
 2791TIP3    H1 8316   7.471   0.478   4.297
 2791TIP3    H2 8317   7.359   0.509   4.200
 2792TIP3   OH2 8318   0.935   7.033   1.639
 2792TIP3    H1 8319   0.974   6.985   1.566
 2792TIP3    H2 8320   0.888   6.966   1.690
 2793TIP3   OH2 8321   5.061   4.296   1.067
 2793TIP3    H1 8322   5.148   4.336   1.056
 2793TIP3    H2 8323   5.000   4.369   1.067
 2794TIP3   OH2 8324   7.514   0.378   3.272
 2794TIP3    H1 8325   7.468   0.412   3.195
 2794TIP3    H2 8326   7.445   0.348   3.331
 2795TIP3   OH2 8327   5.451   0.978   0.138
 2795TIP3    H1 8328   5.524   1.038   0.121
 2795TIP3    H2 8329   5.489   0.908   0.190
 2796TIP3   OH2 8330   0.846   3.636   6.455
 2796TIP3    H1 8331   0.768   3.634   6.510
 2796TIP3    H2 8332   0.854   3.728   6.428
 2797TIP3   OH2 8333   4.964   2.254   0.934
 2797TIP3    H1 8334   4.897   2.282   0.873
 2797TIP3    H2 8335   4.964   2.321   1.002
 2798TIP3   OH2 8336   1.851   6.081   3.206
 2798TIP3    H1 8337   1.857   6.131   3.125
 2798TIP3    H2 8338   1.939   6.087   3.245
 2799TIP3   OH2 8339   8.000   3.040   0.212
 2799TIP3    H1 8340   7.992   2.948   0.185
 2799TIP3    H2 8341   7.917   3.060   0.256
 2800TIP3   OH2 8342   4.818   5.341   6.131
 2800TIP3    H1 8343   4.735   5.355   6.176
 2800TIP3    H2 8344   4.866   5.280   6.188
 2801TIP3   OH2 8345   7.870   5.969   2.559
 2801TIP3    H1 8346   7.948   6.025   2.548
 2801TIP3    H2 8347   7.877   5.938   2.650
 2802TIP3   OH2 8348   2.657   5.517   1.613
 2802TIP3    H1 8349   2.713   5.579   1.660
 2802TIP3    H2 8350   2.603   5.572   1.557
 2803TIP3   OH2 8351   1.010   2.454   2.320
 2803TIP3    H1 8352   1.090   2.499   2.350
 2803TIP3    H2 8353   0.948   2.524   2.302
 2804TIP3   OH2 8354   0.984   4.621   2.829
 2804TIP3    H1 8355   0.947   4.708   2.813
 2804TIP3    H2 8356   1.054   4.636   2.893
 2805TIP3   OH2 8357   0.965   6.416   1.872
 2805TIP3    H1 8358   0.880   6.393   1.835
 2805TIP3    H2 8359   0.973   6.360   1.950
 2806TIP3   OH2 8360   5.599   1.662   3.961
 2806TIP3    H1 8361   5.505   1.659   3.979
 2806TIP3    H2 8362   5.607   1.641   3.868
 2807TIP3   OH2 8363   3.352   2.551   3.079
 2807TIP3    H1 8364   3.343   2.566   2.985
 2807TIP3    H2 8365   3.428   2.493   3.086
 2808TIP3   OH2 8366   5.776   1.557   5.028
 2808TIP3    H1 8367   5.781   1.462   5.018
 2808TIP3    H2 8368   5.770   1.590   4.939
 2809TIP3   OH2 8369   4.684   4.001   4.716
 2809TIP3    H1 8370   4.650   3.915   4.737
 2809TIP3    H2 8371   4.743   4.022   4.789
 2810TIP3   OH2 8372   5.583   5.376   6.075
 2810TIP3    H1 8373   5.660   5.430   6.058
 2810TIP3    H2 8374   5.576   5.318   5.999
 2811TIP3   OH2 8375   6.075   0.763   4.528
 2811TIP3    H1 8376   6.066   0.700   4.457
 2811TIP3    H2 8377   6.169   0.770   4.544
 2812TIP3   OH2 8378   4.330   7.526   0.947
 2812TIP3    H1 8379   4.259   7.561   0.893
 2812TIP3    H2 8380   4.395   7.597   0.949
 2813TIP3   OH2 8381   1.731   2.045   5.558
 2813TIP3    H1 8382   1.702   2.133   5.537
 2813TIP3    H2 8383   1.817   2.056   5.599
 2814TIP3   OH2 8384   7.043   6.433   0.780
 2814TIP3    H1 8385   7.024   6.340   0.776
 2814TIP3    H2 8386   6.964   6.475   0.747
 2815TIP3   OH2 8387   5.164   2.274   0.312
 2815TIP3    H1 8388   5.098   2.315   0.255
 2815TIP3    H2 8389   5.245   2.277   0.261
 2816TIP3   OH2 8390   1.114   1.230   5.960
 2816TIP3    H1 8391   1.156   1.202   5.878
 2816TIP3    H2 8392   1.176   1.292   5.998
 2817TIP3   OH2 8393   0.502   5.319   6.009
 2817TIP3    H1 8394   0.498   5.247   6.073
 2817TIP3    H2 8395   0.561   5.287   5.941
 2818TIP3   OH2 8396   4.461   0.111   6.643
 2818TIP3    H1 8397   4.475   0.164   6.721
 2818TIP3    H2 8398   4.495   0.024   6.666
 2819TIP3   OH2 8399   7.840   0.181   6.695
 2819TIP3    H1 8400   7.761   0.204   6.745
 2819TIP3    H2 8401   7.901   0.253   6.712
 2820TIP3   OH2 8402   2.008   5.659   0.110
 2820TIP3    H1 8403   1.945   5.590   0.130
 2820TIP3    H2 8404   2.028   5.698   0.195
 2821TIP3   OH2 8405   6.627   3.196   5.155
 2821TIP3    H1 8406   6.695   3.225   5.216
 2821TIP3    H2 8407   6.616   3.103   5.173
 2822TIP3   OH2 8408   2.644   0.544   5.128
 2822TIP3    H1 8409   2.593   0.616   5.090
 2822TIP3    H2 8410   2.582   0.470   5.131
 2823TIP3   OH2 8411   3.546   3.602   4.735
 2823TIP3    H1 8412   3.575   3.544   4.805
 2823TIP3    H2 8413   3.625   3.620   4.684
 2824TIP3   OH2 8414   6.412   4.911   2.325
 2824TIP3    H1 8415   6.496   4.958   2.316
 2824TIP3    H2 8416   6.358   4.970   2.378
 2825TIP3   OH2 8417   7.885   5.255   5.334
 2825TIP3    H1 8418   7.940   5.332   5.324
 2825TIP3    H2 8419   7.835   5.250   5.252
 2826TIP3   OH2 8420   4.936   2.515   2.640
 2826TIP3    H1 8421   4.933   2.422   2.662
 2826TIP3    H2 8422   4.929   2.560   2.725
 2827TIP3   OH2 8423   7.248   3.904   0.655
 2827TIP3    H1 8424   7.316   3.956   0.612
 2827TIP3    H2 8425   7.167   3.928   0.610
 2828TIP3   OH2 8426   5.057   7.202   0.162
 2828TIP3    H1 8427   5.062   7.289   0.201
 2828TIP3    H2 8428   5.011   7.215   0.079
 2829TIP3   OH2 8429   3.027   0.591   5.240
 2829TIP3    H1 8430   3.003   0.655   5.307
 2829TIP3    H2 8431   2.966   0.519   5.252
 2830TIP3   OH2 8432   2.607   7.096   3.730
 2830TIP3    H1 8433   2.563   7.084   3.645
 2830TIP3    H2 8434   2.540   7.072   3.794
 2831TIP3   OH2 8435   7.664   3.604   3.437
 2831TIP3    H1 8436   7.575   3.625   3.465
 2831TIP3    H2 8437   7.663   3.509   3.422
 2832TIP3   OH2 8438   8.091   7.294   6.438
 2832TIP3    H1 8439   8.101   7.273   6.345
 2832TIP3    H2 8440   8.175   7.271   6.478
 2833TIP3   OH2 8441   0.065   4.957   2.383
 2833TIP3    H1 8442   0.070   5.051   2.365
 2833TIP3    H2 8443  -0.026   4.942   2.410
 2834TIP3   OH2 8444   0.062   4.954   0.417
 2834TIP3    H1 8445   0.149   4.945   0.377
 2834TIP3    H2 8446   0.080   4.963   0.511
 2835TIP3   OH2 8447   4.125   6.269   6.303
 2835TIP3    H1 8448   4.052   6.219   6.267
 2835TIP3    H2 8449   4.203   6.221   6.275
 2836TIP3   OH2 8450   7.726   6.576   1.857
 2836TIP3    H1 8451   7.748   6.637   1.787
 2836TIP3    H2 8452   7.810   6.548   1.893
 2837TIP3   OH2 8453   7.445   2.591   3.910
 2837TIP3    H1 8454   7.359   2.552   3.928
 2837TIP3    H2 8455   7.426   2.683   3.890
 2838TIP3   OH2 8456   7.360   6.812   4.012
 2838TIP3    H1 8457   7.280   6.777   3.971
 2838TIP3    H2 8458   7.429   6.751   3.985
 2839TIP3   OH2 8459   0.319   6.414   0.633
 2839TIP3    H1 8460   0.245   6.360   0.606
 2839TIP3    H2 8461   0.381   6.352   0.671
 2840TIP3   OH2 8462   0.731   6.422   2.101
 2840TIP3    H1 8463   0.813   6.458   2.133
 2840TIP3    H2 8464   0.706   6.481   2.029
 2841TIP3   OH2 8465   4.813   6.015   0.178
 2841TIP3    H1 8466   4.759   6.000   0.100
 2841TIP3    H2 8467   4.751   6.042   0.246
 2842TIP3   OH2 8468   0.822   7.118   5.976
 2842TIP3    H1 8469   0.779   7.037   5.950
 2842TIP3    H2 8470   0.876   7.093   6.052
 2843TIP3   OH2 8471   2.209   4.343   3.115
 2843TIP3    H1 8472   2.298   4.310   3.130
 2843TIP3    H2 8473   2.188   4.394   3.193
 2844TIP3   OH2 8474   5.954   1.862   3.832
 2844TIP3    H1 8475   5.946   1.788   3.893
 2844TIP3    H2 8476   5.863   1.888   3.816
 2845TIP3   OH2 8477   4.966   0.980   2.060
 2845TIP3    H1 8478   5.045   0.965   2.113
 2845TIP3    H2 8479   4.973   1.071   2.033
 2846TIP3   OH2 8480   8.108   1.160   3.685
 2846TIP3    H1 8481   8.100   1.066   3.665
 2846TIP3    H2 8482   8.107   1.202   3.599
 2847TIP3   OH2 8483   2.295   5.464   4.753
 2847TIP3    H1 8484   2.294   5.560   4.758
 2847TIP3    H2 8485   2.233   5.444   4.683
 2848TIP3   OH2 8486   2.592   7.812   5.772
 2848TIP3    H1 8487   2.685   7.831   5.756
 2848TIP3    H2 8488   2.545   7.875   5.718
 2849TIP3   OH2 8489   0.477   2.590   1.400
 2849TIP3    H1 8490   0.565   2.571   1.369
 2849TIP3    H2 8491   0.422   2.525   1.356
 2850TIP3   OH2 8492   5.922   2.550   6.565
 2850TIP3    H1 8493   5.946   2.515   6.479
 2850TIP3    H2 8494   6.004   2.552   6.614
 2851TIP3   OH2 8495   8.027   6.010   4.271
 2851TIP3    H1 8496   7.951   5.953   4.265
 2851TIP3    H2 8497   8.099   5.952   4.298
 2852TIP3   OH2 8498   5.606   7.267   3.360
 2852TIP3    H1 8499   5.515   7.240   3.349
 2852TIP3    H2 8500   5.632   7.231   3.444
 2853TIP3   OH2 8501   5.692   0.154   3.870
 2853TIP3    H1 8502   5.734   0.214   3.807
 2853TIP3    H2 8503   5.657   0.212   3.938
 2854TIP3   OH2 8504   2.256   3.474   3.985
 2854TIP3    H1 8505   2.327   3.443   3.929
 2854TIP3    H2 8506   2.179   3.474   3.927
 2855TIP3   OH2 8507   5.642   7.036   3.809
 2855TIP3    H1 8508   5.665   7.079   3.892
 2855TIP3    H2 8509   5.602   6.953   3.836
 2856TIP3   OH2 8510   0.390   6.335   3.101
 2856TIP3    H1 8511   0.385   6.263   3.164
 2856TIP3    H2 8512   0.398   6.413   3.156
 2857TIP3   OH2 8513   4.640   1.074   3.982
 2857TIP3    H1 8514   4.631   1.150   3.925
 2857TIP3    H2 8515   4.698   1.103   4.052
 2858TIP3   OH2 8516   2.738   0.211   0.340
 2858TIP3    H1 8517   2.646   0.238   0.342
 2858TIP3    H2 8518   2.756   0.194   0.247
 2859TIP3   OH2 8519   4.873   4.407   3.963
 2859TIP3    H1 8520   4.797   4.433   3.910
 2859TIP3    H2 8521   4.941   4.388   3.899
 2860TIP3   OH2 8522   4.262   0.211   0.281
 2860TIP3    H1 8523   4.254   0.206   0.377
 2860TIP3    H2 8524   4.273   0.304   0.263
 2861TIP3   OH2 8525   2.243   2.770   1.974
 2861TIP3    H1 8526   2.299   2.744   2.048
 2861TIP3    H2 8527   2.283   2.728   1.898
 2862TIP3   OH2 8528   3.244   4.345   4.977
 2862TIP3    H1 8529   3.259   4.340   4.883
 2862TIP3    H2 8530   3.155   4.312   4.989
 2863TIP3   OH2 8531   1.435   2.476   4.876
 2863TIP3    H1 8532   1.347   2.438   4.879
 2863TIP3    H2 8533   1.421   2.570   4.879
 2864TIP3   OH2 8534   8.167   0.393   5.815
 2864TIP3    H1 8535   8.111   0.323   5.850
 2864TIP3    H2 8536   8.192   0.363   5.727
 2865TIP3   OH2 8537   2.155   0.676   4.338
 2865TIP3    H1 8538   2.198   0.662   4.422
 2865TIP3    H2 8539   2.075   0.724   4.360
 2866TIP3   OH2 8540   1.924   2.546   0.136
 2866TIP3    H1 8541   1.934   2.595   0.055
 2866TIP3    H2 8542   1.969   2.463   0.120
 2867TIP3   OH2 8543   5.174   2.891   0.425
 2867TIP3    H1 8544   5.162   2.926   0.514
 2867TIP3    H2 8545   5.121   2.812   0.423
 2868TIP3   OH2 8546   7.738   6.914   2.068
 2868TIP3    H1 8547   7.771   6.903   1.979
 2868TIP3    H2 8548   7.677   6.841   2.081
 2869TIP3   OH2 8549   5.390   4.189   3.408
 2869TIP3    H1 8550   5.398   4.182   3.313
 2869TIP3    H2 8551   5.430   4.273   3.429
 2870TIP3   OH2 8552   2.872   0.570   4.361
 2870TIP3    H1 8553   2.893   0.513   4.288
 2870TIP3    H2 8554   2.804   0.629   4.327
 2871TIP3   OH2 8555   4.212   5.907   4.682
 2871TIP3    H1 8556   4.287   5.887   4.738
 2871TIP3    H2 8557   4.199   5.828   4.630
 2872TIP3   OH2 8558   3.427   2.168   1.489
 2872TIP3    H1 8559   3.407   2.226   1.415
 2872TIP3    H2 8560   3.342   2.133   1.516
 2873TIP3   OH2 8561   5.524   0.144   5.066
 2873TIP3    H1 8562   5.498   0.056   5.094
 2873TIP3    H2 8563   5.617   0.149   5.088
 2874TIP3   OH2 8564   2.141   5.960   2.560
 2874TIP3    H1 8565   2.137   6.006   2.644
 2874TIP3    H2 8566   2.206   6.009   2.509
 2875TIP3   OH2 8567   8.155   3.269   1.934
 2875TIP3    H1 8568   8.226   3.229   1.984
 2875TIP3    H2 8569   8.197   3.343   1.889
 2876TIP3   OH2 8570   6.320   2.493   0.086
 2876TIP3    H1 8571   6.353   2.444   0.010
 2876TIP3    H2 8572   6.273   2.427   0.138
 2877TIP3   OH2 8573   5.947   0.219   2.664
 2877TIP3    H1 8574   5.900   0.225   2.747
 2877TIP3    H2 8575   5.978   0.128   2.660
 2878TIP3   OH2 8576   5.444   4.356   5.570
 2878TIP3    H1 8577   5.383   4.399   5.630
 2878TIP3    H2 8578   5.521   4.337   5.623
 2879TIP3   OH2 8579   3.013   5.450   4.518
 2879TIP3    H1 8580   3.092   5.493   4.486
 2879TIP3    H2 8581   2.957   5.442   4.441
 2880TIP3   OH2 8582   0.470   3.628   0.399
 2880TIP3    H1 8583   0.419   3.617   0.319
 2880TIP3    H2 8584   0.560   3.608   0.373
 2881TIP3   OH2 8585   0.727   1.136   3.652
 2881TIP3    H1 8586   0.713   1.230   3.660
 2881TIP3    H2 8587   0.722   1.103   3.742
 2882TIP3   OH2 8588   6.517   2.581   3.402
 2882TIP3    H1 8589   6.433   2.540   3.422
 2882TIP3    H2 8590   6.494   2.665   3.362
 2883TIP3   OH2 8591   2.983   3.895   1.983
 2883TIP3    H1 8592   3.054   3.926   1.926
 2883TIP3    H2 8593   2.999   3.802   1.993
 2884TIP3   OH2 8594   1.887   1.863   5.835
 2884TIP3    H1 8595   1.890   1.769   5.853
 2884TIP3    H2 8596   1.885   1.904   5.921
 2885TIP3   OH2 8597   2.859   5.788   6.024
 2885TIP3    H1 8598   2.901   5.843   5.959
 2885TIP3    H2 8599   2.766   5.812   6.019
 2886TIP3   OH2 8600   6.436   2.459   0.993
 2886TIP3    H1 8601   6.514   2.479   0.941
 2886TIP3    H2 8602   6.397   2.384   0.950
 2887TIP3   OH2 8603   0.457   6.890   5.391
 2887TIP3    H1 8604   0.530   6.917   5.446
 2887TIP3    H2 8605   0.452   6.957   5.323
 2888TIP3   OH2 8606   5.741   1.548   0.307
 2888TIP3    H1 8607   5.705   1.479   0.252
 2888TIP3    H2 8608   5.824   1.512   0.339
 2889TIP3   OH2 8609   0.232   3.172   1.932
 2889TIP3    H1 8610   0.278   3.102   1.884
 2889TIP3    H2 8611   0.302   3.223   1.972
 2890TIP3   OH2 8612   7.466   7.484   2.839
 2890TIP3    H1 8613   7.543   7.536   2.861
 2890TIP3    H2 8614   7.394   7.531   2.882
 2891TIP3   OH2 8615   3.798   7.647   4.906
 2891TIP3    H1 8616   3.815   7.655   5.000
 2891TIP3    H2 8617   3.810   7.735   4.872
 2892TIP3   OH2 8618   5.005   2.132   4.421
 2892TIP3    H1 8619   5.073   2.118   4.486
 2892TIP3    H2 8620   5.042   2.195   4.360
 2893TIP3   OH2 8621   0.558   3.859   2.828
 2893TIP3    H1 8622   0.628   3.834   2.768
 2893TIP3    H2 8623   0.598   3.853   2.915
 2894TIP3   OH2 8624   0.254   0.816   1.660
 2894TIP3    H1 8625   0.168   0.850   1.685
 2894TIP3    H2 8626   0.283   0.765   1.735
 2895TIP3   OH2 8627   5.634   2.578   0.101
 2895TIP3    H1 8628   5.712   2.584   0.155
 2895TIP3    H2 8629   5.629   2.486   0.075
 2896TIP3   OH2 8630   2.665   0.481   0.847
 2896TIP3    H1 8631   2.594   0.488   0.910
 2896TIP3    H2 8632   2.737   0.443   0.897
 2897TIP3   OH2 8633   7.420   5.974   5.703
 2897TIP3    H1 8634   7.460   6.059   5.722
 2897TIP3    H2 8635   7.371   5.988   5.622
 2898TIP3   OH2 8636   1.116   1.721   4.235
 2898TIP3    H1 8637   1.147   1.706   4.146
 2898TIP3    H2 8638   1.142   1.812   4.254
 2899TIP3   OH2 8639   3.812   6.034   6.719
 2899TIP3    H1 8640   3.896   6.014   6.678
 2899TIP3    H2 8641   3.834   6.057   6.810
 2900TIP3   OH2 8642   4.858   7.593   4.936
 2900TIP3    H1 8643   4.810   7.521   4.976
 2900TIP3    H2 8644   4.873   7.564   4.846
 2901TIP3   OH2 8645   2.943   3.668   5.861
 2901TIP3    H1 8646   3.035   3.682   5.836
 2901TIP3    H2 8647   2.936   3.573   5.871
 2902TIP3   OH2 8648   4.329   4.098   1.009
 2902TIP3    H1 8649   4.359   4.051   1.087
 2902TIP3    H2 8650   4.277   4.033   0.961
 2903TIP3   OH2 8651   1.709   6.080   4.731
 2903TIP3    H1 8652   1.715   6.078   4.635
 2903TIP3    H2 8653   1.652   6.154   4.750
 2904TIP3   OH2 8654   7.920   5.905   2.848
 2904TIP3    H1 8655   8.005   5.860   2.851
 2904TIP3    H2 8656   7.938   5.992   2.885
 2905TIP3   OH2 8657   1.695   2.298   4.048
 2905TIP3    H1 8658   1.674   2.353   3.973
 2905TIP3    H2 8659   1.688   2.208   4.014
 2906TIP3   OH2 8660   3.333   4.465   0.451
 2906TIP3    H1 8661   3.247   4.499   0.479
 2906TIP3    H2 8662   3.381   4.453   0.533
 2907TIP3   OH2 8663   1.339   7.378   5.861
 2907TIP3    H1 8664   1.301   7.416   5.782
 2907TIP3    H2 8665   1.419   7.335   5.831
 2908TIP3   OH2 8666   7.041   0.012   4.116
 2908TIP3    H1 8667   7.111  -0.027   4.168
 2908TIP3    H2 8668   7.052   0.107   4.128
 2909TIP3   OH2 8669   2.610   3.014   4.859
 2909TIP3    H1 8670   2.676   3.048   4.919
 2909TIP3    H2 8671   2.564   2.946   4.909
 2910TIP3   OH2 8672   4.507   7.537   5.759
 2910TIP3    H1 8673   4.558   7.605   5.801
 2910TIP3    H2 8674   4.554   7.518   5.678
 2911TIP3   OH2 8675   5.783   1.071   1.257
 2911TIP3    H1 8676   5.719   1.072   1.328
 2911TIP3    H2 8677   5.815   1.161   1.252
 2912TIP3   OH2 8678   1.664   6.536   5.825
 2912TIP3    H1 8679   1.756   6.559   5.839
 2912TIP3    H2 8680   1.619   6.620   5.813
 2913TIP3   OH2 8681   7.150   0.252   1.409
 2913TIP3    H1 8682   7.056   0.241   1.397
 2913TIP3    H2 8683   7.189   0.205   1.335
 2914TIP3   OH2 8684   1.111   3.770   4.429
 2914TIP3    H1 8685   1.145   3.721   4.504
 2914TIP3    H2 8686   1.022   3.737   4.416
 2915TIP3   OH2 8687   0.274   2.384   1.971
 2915TIP3    H1 8688   0.344   2.320   1.963
 2915TIP3    H2 8689   0.319   2.469   1.975
 2916TIP3   OH2 8690   2.756   2.356   2.586
 2916TIP3    H1 8691   2.840   2.357   2.539
 2916TIP3    H2 8692   2.711   2.278   2.554
 2917TIP3   OH2 8693   2.991   6.964   1.606
 2917TIP3    H1 8694   2.945   6.945   1.523
 2917TIP3    H2 8695   3.074   6.918   1.598
 2918TIP3   OH2 8696   8.064   7.409   5.315
 2918TIP3    H1 8697   8.123   7.484   5.329
 2918TIP3    H2 8698   7.984   7.448   5.280
 2919TIP3   OH2 8699   3.792   0.287   6.228
 2919TIP3    H1 8700   3.839   0.361   6.190
 2919TIP3    H2 8701   3.749   0.322   6.305
 2920TIP3   OH2 8702   5.466   2.785   1.854
 2920TIP3    H1 8703   5.517   2.865   1.866
 2920TIP3    H2 8704   5.522   2.728   1.801
 2921TIP3   OH2 8705   2.643   6.075   0.811
 2921TIP3    H1 8706   2.685   6.140   0.867
 2921TIP3    H2 8707   2.621   6.003   0.870
 2922TIP3   OH2 8708   1.288   4.571   2.891
 2922TIP3    H1 8709   1.295   4.492   2.944
 2922TIP3    H2 8710   1.307   4.542   2.802
 2923TIP3   OH2 8711   4.581   5.744   6.112
 2923TIP3    H1 8712   4.670   5.709   6.109
 2923TIP3    H2 8713   4.573   5.795   6.032
 2924TIP3   OH2 8714   2.834   4.244   4.812
 2924TIP3    H1 8715   2.761   4.183   4.800
 2924TIP3    H2 8716   2.880   4.212   4.890
 2925TIP3   OH2 8717   4.596   0.527   4.781
 2925TIP3    H1 8718   4.610   0.521   4.875
 2925TIP3    H2 8719   4.683   0.516   4.743
 2926TIP3   OH2 8720   2.445   1.784   1.445
 2926TIP3    H1 8721   2.392   1.837   1.505
 2926TIP3    H2 8722   2.422   1.694   1.466
 2927TIP3   OH2 8723   3.278   4.049   6.194
 2927TIP3    H1 8724   3.208   4.058   6.258
 2927TIP3    H2 8725   3.358   4.072   6.243
 2928TIP3   OH2 8726   3.235   4.393   3.080
 2928TIP3    H1 8727   3.319   4.369   3.118
 2928TIP3    H2 8728   3.175   4.323   3.107
 2929TIP3   OH2 8729   5.215   5.063   4.778
 2929TIP3    H1 8730   5.282   5.087   4.714
 2929TIP3    H2 8731   5.265   5.034   4.854
 2930TIP3   OH2 8732   1.621   3.598   6.786
 2930TIP3    H1 8733   1.618   3.685   6.747
 2930TIP3    H2 8734   1.713   3.573   6.782
 2931TIP3   OH2 8735   0.193   2.946   2.640
 2931TIP3    H1 8736   0.183   2.995   2.559
 2931TIP3    H2 8737   0.265   2.990   2.686
 2932TIP3   OH2 8738   6.693   6.409   4.465
 2932TIP3    H1 8739   6.775   6.440   4.428
 2932TIP3    H2 8740   6.670   6.474   4.531
 2933TIP3   OH2 8741   4.695   4.948   5.034
 2933TIP3    H1 8742   4.610   4.913   5.007
 2933TIP3    H2 8743   4.731   4.986   4.953
 2934TIP3   OH2 8744   1.368   0.081   4.074
 2934TIP3    H1 8745   1.302   0.056   4.010
 2934TIP3    H2 8746   1.435   0.013   4.068
 2935TIP3   OH2 8747   3.709   2.356   3.585
 2935TIP3    H1 8748   3.710   2.377   3.678
 2935TIP3    H2 8749   3.744   2.267   3.580
 2936TIP3   OH2 8750   0.100   7.344   3.904
 2936TIP3    H1 8751   0.115   7.433   3.936
 2936TIP3    H2 8752   0.175   7.325   3.848
 2937TIP3   OH2 8753   3.641   1.028   2.117
 2937TIP3    H1 8754   3.603   0.969   2.052
 2937TIP3    H2 8755   3.693   0.972   2.174
 2938TIP3   OH2 8756   3.994   0.029   6.741
 2938TIP3    H1 8757   4.057   0.090   6.703
 2938TIP3    H2 8758   4.015  -0.055   6.700
 2939TIP3   OH2 8759   3.425   4.677   1.175
 2939TIP3    H1 8760   3.409   4.702   1.084
 2939TIP3    H2 8761   3.364   4.606   1.193
 2940TIP3   OH2 8762   1.800   2.774   4.791
 2940TIP3    H1 8763   1.765   2.692   4.826
 2940TIP3    H2 8764   1.778   2.772   4.698
 2941TIP3   OH2 8765   0.127   4.906   2.110
 2941TIP3    H1 8766   0.068   4.832   2.096
 2941TIP3    H2 8767   0.103   4.939   2.197
 2942TIP3   OH2 8768   2.689   2.600   2.395
 2942TIP3    H1 8769   2.665   2.660   2.466
 2942TIP3    H2 8770   2.735   2.529   2.439
 2943TIP3   OH2 8771   2.711   0.430   6.041
 2943TIP3    H1 8772   2.763   0.482   5.980
 2943TIP3    H2 8773   2.709   0.342   6.001
 2944TIP3   OH2 8774   0.415   7.003   3.913
 2944TIP3    H1 8775   0.460   7.024   3.831
 2944TIP3    H2 8776   0.366   7.082   3.934
 2945TIP3   OH2 8777   5.010   7.003   3.491
 2945TIP3    H1 8778   4.955   7.023   3.416
 2945TIP3    H2 8779   4.959   7.033   3.567
 2946TIP3   OH2 8780   2.890   5.657   4.942
 2946TIP3    H1 8781   2.843   5.630   4.863
 2946TIP3    H2 8782   2.910   5.750   4.927
 2947TIP3   OH2 8783   5.043   6.529   5.066
 2947TIP3    H1 8784   5.032   6.619   5.036
 2947TIP3    H2 8785   4.972   6.480   5.025
 2948TIP3   OH2 8786   6.951   5.861   0.690
 2948TIP3    H1 8787   6.957   5.910   0.772
 2948TIP3    H2 8788   6.908   5.779   0.716
 2949TIP3   OH2 8789   4.995   3.066   2.478
 2949TIP3    H1 8790   4.914   3.096   2.520
 2949TIP3    H2 8791   5.046   3.028   2.549
 2950TIP3   OH2 8792   7.106   6.981   4.203
 2950TIP3    H1 8793   7.192   6.963   4.242
 2950TIP3    H2 8794   7.048   6.915   4.240
 2951TIP3   OH2 8795   7.046   2.479   2.872
 2951TIP3    H1 8796   7.121   2.522   2.829
 2951TIP3    H2 8797   6.990   2.551   2.901
 2952TIP3   OH2 8798   3.794   0.408   3.522
 2952TIP3    H1 8799   3.768   0.443   3.607
 2952TIP3    H2 8800   3.748   0.463   3.459
 2953TIP3   OH2 8801   1.610   5.880   3.372
 2953TIP3    H1 8802   1.589   5.922   3.456
 2953TIP3    H2 8803   1.633   5.953   3.314
 2954TIP3   OH2 8804   3.853   1.470   3.649
 2954TIP3    H1 8805   3.812   1.554   3.669
 2954TIP3    H2 8806   3.786   1.405   3.669
 2955TIP3   OH2 8807   2.170   4.711   4.726
 2955TIP3    H1 8808   2.081   4.690   4.755
 2955TIP3    H2 8809   2.210   4.754   4.801
 2956TIP3   OH2 8810   8.022   3.795   3.544
 2956TIP3    H1 8811   7.934   3.794   3.507
 2956TIP3    H2 8812   8.010   3.769   3.635
 2957TIP3   OH2 8813   7.983   4.035   2.675
 2957TIP3    H1 8814   8.059   3.999   2.721
 2957TIP3    H2 8815   7.965   4.117   2.720
 2958TIP3   OH2 8816   6.221   6.280   1.506
 2958TIP3    H1 8817   6.183   6.352   1.458
 2958TIP3    H2 8818   6.269   6.229   1.441
 2959TIP3   OH2 8819   8.123   7.777   2.884
 2959TIP3    H1 8820   8.197   7.727   2.919
 2959TIP3    H2 8821   8.159   7.820   2.806
 2960TIP3   OH2 8822   4.640   0.866   3.798
 2960TIP3    H1 8823   4.667   0.939   3.854
 2960TIP3    H2 8824   4.584   0.813   3.854
 2961TIP3   OH2 8825   3.206   0.350   1.484
 2961TIP3    H1 8826   3.251   0.274   1.447
 2961TIP3    H2 8827   3.117   0.319   1.501
 2962TIP3   OH2 8828   5.746   0.018   6.066
 2962TIP3    H1 8829   5.825   0.013   6.013
 2962TIP3    H2 8830   5.693  -0.057   6.036
 2963TIP3   OH2 8831   7.877   4.681   4.581
 2963TIP3    H1 8832   7.906   4.710   4.667
 2963TIP3    H2 8833   7.957   4.672   4.530
 2964TIP3   OH2 8834   0.479   5.971   3.051
 2964TIP3    H1 8835   0.389   6.003   3.059
 2964TIP3    H2 8836   0.521   5.995   3.134
 2965TIP3   OH2 8837   5.284   6.117   5.495
 2965TIP3    H1 8838   5.249   6.028   5.497
 2965TIP3    H2 8839   5.347   6.120   5.566
 2966TIP3   OH2 8840   1.444   1.273   0.449
 2966TIP3    H1 8841   1.421   1.181   0.436
 2966TIP3    H2 8842   1.365   1.312   0.487
 2967TIP3   OH2 8843   0.667   1.226   6.242
 2967TIP3    H1 8844   0.587   1.266   6.276
 2967TIP3    H2 8845   0.721   1.300   6.214
 2968TIP3   OH2 8846   7.174   7.809   1.458
 2968TIP3    H1 8847   7.178   7.861   1.538
 2968TIP3    H2 8848   7.178   7.718   1.487
 2969TIP3   OH2 8849   2.699   3.528   3.598
 2969TIP3    H1 8850   2.712   3.541   3.504
 2969TIP3    H2 8851   2.691   3.434   3.609
 2970TIP3   OH2 8852   6.212   0.661   2.907
 2970TIP3    H1 8853   6.246   0.621   2.986
 2970TIP3    H2 8854   6.118   0.673   2.924
 2971TIP3   OH2 8855   5.473   1.280   4.055
 2971TIP3    H1 8856   5.410   1.255   3.987
 2971TIP3    H2 8857   5.547   1.317   4.007
 2972TIP3   OH2 8858   7.258   2.541   2.697
 2972TIP3    H1 8859   7.352   2.547   2.709
 2972TIP3    H2 8860   7.243   2.562   2.605
 2973TIP3   OH2 8861   1.941   2.805   2.489
 2973TIP3    H1 8862   1.911   2.887   2.451
 2973TIP3    H2 8863   1.867   2.776   2.543
 2974TIP3   OH2 8864   4.295   6.864   2.047
 2974TIP3    H1 8865   4.223   6.872   1.985
 2974TIP3    H2 8866   4.368   6.830   1.996
 2975TIP3   OH2 8867   2.439   5.936   2.976
 2975TIP3    H1 8868   2.373   5.868   2.988
 2975TIP3    H2 8869   2.501   5.899   2.913
 2976TIP3   OH2 8870   8.261   0.699   0.469
 2976TIP3    H1 8871   8.264   0.604   0.460
 2976TIP3    H2 8872   8.191   0.715   0.532
 2977TIP3   OH2 8873   5.749   1.643   0.039
 2977TIP3    H1 8874   5.822   1.699   0.014
 2977TIP3    H2 8875   5.766   1.620   0.130
 2978TIP3   OH2 8876   5.028   5.646   4.076
 2978TIP3    H1 8877   5.016   5.731   4.035
 2978TIP3    H2 8878   5.108   5.611   4.037
 2979TIP3   OH2 8879   4.203   7.638   2.816
 2979TIP3    H1 8880   4.129   7.698   2.806
 2979TIP3    H2 8881   4.280   7.694   2.814
 2980TIP3   OH2 8882   5.240   7.833   1.758
 2980TIP3    H1 8883   5.239   7.738   1.748
 2980TIP3    H2 8884   5.280   7.865   1.678
 2981TIP3   OH2 8885   2.856   4.758   6.153
 2981TIP3    H1 8886   2.763   4.773   6.138
 2981TIP3    H2 8887   2.885   4.704   6.079
 2982TIP3   OH2 8888   6.357   3.766   0.294
 2982TIP3    H1 8889   6.358   3.778   0.389
 2982TIP3    H2 8890   6.291   3.829   0.263
 2983TIP3   OH2 8891   2.910   3.220   4.560
 2983TIP3    H1 8892   2.829   3.196   4.515
 2983TIP3    H2 8893   2.976   3.223   4.491
 2984TIP3   OH2 8894   3.287   5.282   3.057
 2984TIP3    H1 8895   3.256   5.198   3.091
 2984TIP3    H2 8896   3.228   5.301   2.984
 2985TIP3   OH2 8897   2.126   2.048   0.373
 2985TIP3    H1 8898   2.061   2.078   0.437
 2985TIP3    H2 8899   2.154   2.128   0.328
 2986TIP3   OH2 8900   1.889   6.135   4.950
 2986TIP3    H1 8901   1.852   6.091   4.873
 2986TIP3    H2 8902   1.933   6.066   4.999
 2987TIP3   OH2 8903   7.849   4.097   4.189
 2987TIP3    H1 8904   7.883   4.185   4.206
 2987TIP3    H2 8905   7.856   4.087   4.094
 2988TIP3   OH2 8906   4.272   5.995   0.835
 2988TIP3    H1 8907   4.290   5.923   0.774
 2988TIP3    H2 8908   4.191   6.034   0.802
 2989TIP3   OH2 8909   5.881   3.416   2.417
 2989TIP3    H1 8910   5.834   3.491   2.453
 2989TIP3    H2 8911   5.827   3.341   2.440
 2990TIP3   OH2 8912   7.900   1.183   6.278
 2990TIP3    H1 8913   7.834   1.150   6.219
 2990TIP3    H2 8914   7.889   1.278   6.277
 2991TIP3   OH2 8915   1.188   2.802   6.605
 2991TIP3    H1 8916   1.276   2.823   6.573
 2991TIP3    H2 8917   1.150   2.747   6.537
 2992TIP3   OH2 8918   5.640   4.484   5.429
 2992TIP3    H1 8919   5.606   4.568   5.399
 2992TIP3    H2 8920   5.569   4.446   5.480
 2993TIP3   OH2 8921   6.206   3.247   1.888
 2993TIP3    H1 8922   6.129   3.296   1.862
 2993TIP3    H2 8923   6.273   3.314   1.902
 2994TIP3   OH2 8924   7.022   1.352   4.916
 2994TIP3    H1 8925   6.951   1.289   4.926
 2994TIP3    H2 8926   7.102   1.301   4.932
 2995TIP3   OH2 8927   0.915   4.920   3.647
 2995TIP3    H1 8928   0.977   4.993   3.647
 2995TIP3    H2 8929   0.948   4.861   3.714
 2996TIP3   OH2 8930   5.279   0.275   3.998
 2996TIP3    H1 8931   5.193   0.265   4.039
 2996TIP3    H2 8932   5.338   0.297   4.070
 2997TIP3   OH2 8933   6.267   0.984   2.286
 2997TIP3    H1 8934   6.199   0.927   2.251
 2997TIP3    H2 8935   6.224   1.069   2.299
 2998TIP3   OH2 8936   3.715   4.308   4.666
 2998TIP3    H1 8937   3.810   4.311   4.659
 2998TIP3    H2 8938   3.685   4.386   4.620
 2999TIP3   OH2 8939   6.152   4.116   3.244
 2999TIP3    H1 8940   6.206   4.050   3.201
 2999TIP3    H2 8941   6.118   4.072   3.322
 3000TIP3   OH2 8942   3.119   0.135   6.399
 3000TIP3    H1 8943   3.173   0.208   6.428
 3000TIP3    H2 8944   3.064   0.113   6.474
 3001TIP3   OH2 8945   6.591   7.252   3.146
 3001TIP3    H1 8946   6.567   7.330   3.196
 3001TIP3    H2 8947   6.591   7.181   3.210
 3002TIP3   OH2 8948   1.487   3.232   2.535
 3002TIP3    H1 8949   1.524   3.179   2.606
 3002TIP3    H2 8950   1.444   3.168   2.478
 3003TIP3   OH2 8951   1.266   5.266   3.100
 3003TIP3    H1 8952   1.204   5.276   3.172
 3003TIP3    H2 8953   1.349   5.244   3.142
 3004TIP3   OH2 8954   2.154   1.139   6.579
 3004TIP3    H1 8955   2.181   1.225   6.612
 3004TIP3    H2 8956   2.135   1.154   6.486
 3005TIP3   OH2 8957   2.109   3.756   5.226
 3005TIP3    H1 8958   2.064   3.840   5.217
 3005TIP3    H2 8959   2.156   3.762   5.309
 3006TIP3   OH2 8960   7.186   5.741   3.342
 3006TIP3    H1 8961   7.205   5.808   3.277
 3006TIP3    H2 8962   7.137   5.674   3.294
 3007TIP3   OH2 8963   7.712   7.388   2.964
 3007TIP3    H1 8964   7.736   7.478   2.941
 3007TIP3    H2 8965   7.778   7.334   2.919
 3008TIP3   OH2 8966   3.685   1.662   5.458
 3008TIP3    H1 8967   3.631   1.609   5.399
 3008TIP3    H2 8968   3.625   1.692   5.526
 3009TIP3   OH2 8969   7.365   3.937   1.604
 3009TIP3    H1 8970   7.455   3.944   1.572
 3009TIP3    H2 8971   7.329   4.025   1.596
 3010TIP3   OH2 8972   1.064   0.140   6.148
 3010TIP3    H1 8973   1.084   0.053   6.183
 3010TIP3    H2 8974   1.087   0.200   6.218
 3011TIP3   OH2 8975   5.095   1.999   0.346
 3011TIP3    H1 8976   5.072   1.999   0.439
 3011TIP3    H2 8977   5.116   2.090   0.327
 3012TIP3   OH2 8978   8.010   2.758   5.676
 3012TIP3    H1 8979   8.024   2.805   5.758
 3012TIP3    H2 8980   8.068   2.801   5.613
 3013TIP3   OH2 8981   3.887   7.408   3.507
 3013TIP3    H1 8982   3.897   7.336   3.570
 3013TIP3    H2 8983   3.794   7.409   3.486
 3014TIP3   OH2 8984   5.009   3.939   0.532
 3014TIP3    H1 8985   5.003   3.964   0.440
 3014TIP3    H2 8986   4.931   3.885   0.548
 3015TIP3   OH2 8987   5.451   4.417   6.744
 3015TIP3    H1 8988   5.366   4.431   6.700
 3015TIP3    H2 8989   5.509   4.387   6.674
 3016TIP3   OH2 8990   2.578   1.497   4.944
 3016TIP3    H1 8991   2.611   1.528   5.029
 3016TIP3    H2 8992   2.492   1.460   4.963
 3017TIP3   OH2 8993   7.121   3.748   5.260
 3017TIP3    H1 8994   7.189   3.815   5.249
 3017TIP3    H2 8995   7.142   3.705   5.343
 3018TIP3   OH2 8996   2.266   4.683   1.484
 3018TIP3    H1 8997   2.250   4.745   1.413
 3018TIP3    H2 8998   2.316   4.732   1.548
 3019TIP3   OH2 8999   7.924   4.461   0.921
 3019TIP3    H1 9000   8.002   4.449   0.975
 3019TIP3    H2 9001   7.856   4.411   0.965
 3020TIP3   OH2 9002   2.792   5.032   1.262
 3020TIP3    H1 9003   2.830   4.971   1.325
 3020TIP3    H2 9004   2.859   5.100   1.250
 3021TIP3   OH2 9005   2.745   1.862   0.115
 3021TIP3    H1 9006   2.804   1.788   0.096
 3021TIP3    H2 9007   2.773   1.930   0.053
 3022TIP3   OH2 9008   4.227   6.515   6.124
 3022TIP3    H1 9009   4.184   6.593   6.088
 3022TIP3    H2 9010   4.159   6.470   6.173
 3023TIP3   OH2 9011   2.154   2.378   6.368
 3023TIP3    H1 9012   2.222   2.418   6.422
 3023TIP3    H2 9013   2.201   2.337   6.296
 3024TIP3   OH2 9014   1.955   3.512   5.444
 3024TIP3    H1 9015   1.983   3.478   5.529
 3024TIP3    H2 9016   2.005   3.593   5.432
 3025TIP3   OH2 9017   4.013   6.447   3.795
 3025TIP3    H1 9018   3.985   6.523   3.847
 3025TIP3    H2 9019   3.965   6.457   3.713
 3026TIP3   OH2 9020   2.192   4.231   1.823
 3026TIP3    H1 9021   2.159   4.301   1.768
 3026TIP3    H2 9022   2.151   4.151   1.789
 3027TIP3   OH2 9023   7.830   4.398   5.936
 3027TIP3    H1 9024   7.909   4.382   5.885
 3027TIP3    H2 9025   7.861   4.409   6.026
 3028TIP3   OH2 9026   1.602   6.988   0.477
 3028TIP3    H1 9027   1.674   7.048   0.499
 3028TIP3    H2 9028   1.645   6.912   0.439
 3029TIP3   OH2 9029   4.506   1.174   6.502
 3029TIP3    H1 9030   4.423   1.220   6.486
 3029TIP3    H2 9031   4.571   1.226   6.455
 3030TIP3   OH2 9032   2.139   4.562   6.252
 3030TIP3    H1 9033   2.136   4.519   6.337
 3030TIP3    H2 9034   2.203   4.633   6.263
 3031TIP3   OH2 9035   4.485   3.695   6.265
 3031TIP3    H1 9036   4.407   3.644   6.243
 3031TIP3    H2 9037   4.451   3.782   6.285
 3032TIP3   OH2 9038   6.317   1.291   0.725
 3032TIP3    H1 9039   6.382   1.345   0.681
 3032TIP3    H2 9040   6.358   1.266   0.808
 3033TIP3   OH2 9041   0.359   4.443   4.635
 3033TIP3    H1 9042   0.363   4.370   4.573
 3033TIP3    H2 9043   0.312   4.512   4.587
 3034TIP3   OH2 9044   7.600   0.907   4.665
 3034TIP3    H1 9045   7.592   0.888   4.571
 3034TIP3    H2 9046   7.695   0.915   4.679
 3035TIP3   OH2 9047   7.758   5.697   0.499
 3035TIP3    H1 9048   7.666   5.721   0.489
 3035TIP3    H2 9049   7.756   5.611   0.541
 3036TIP3   OH2 9050   2.201   4.815   1.262
 3036TIP3    H1 9051   2.274   4.876   1.271
 3036TIP3    H2 9052   2.138   4.860   1.205
 3037TIP3   OH2 9053   3.324   5.937   2.577
 3037TIP3    H1 9054   3.361   5.968   2.660
 3037TIP3    H2 9055   3.392   5.952   2.512
 3038TIP3   OH2 9056   1.335   4.361   6.219
 3038TIP3    H1 9057   1.364   4.285   6.269
 3038TIP3    H2 9058   1.392   4.432   6.250
 3039TIP3   OH2 9059   4.148   5.513   1.234
 3039TIP3    H1 9060   4.221   5.519   1.295
 3039TIP3    H2 9061   4.070   5.527   1.288
 3040TIP3   OH2 9062   1.053   4.976   2.543
 3040TIP3    H1 9063   1.022   4.958   2.454
 3040TIP3    H2 9064   1.006   5.055   2.569
 3041TIP3   OH2 9065   1.499   0.737   3.560
 3041TIP3    H1 9066   1.515   0.679   3.485
 3041TIP3    H2 9067   1.463   0.817   3.521
 3042TIP3   OH2 9068   2.196   2.864   4.400
 3042TIP3    H1 9069   2.201   2.768   4.406
 3042TIP3    H2 9070   2.287   2.893   4.397
 3043TIP3   OH2 9071   4.134   4.800   4.367
 3043TIP3    H1 9072   4.135   4.720   4.315
 3043TIP3    H2 9073   4.041   4.820   4.379
 3044TIP3   OH2 9074   7.280   4.784   6.532
 3044TIP3    H1 9075   7.353   4.811   6.477
 3044TIP3    H2 9076   7.212   4.756   6.470
 3045TIP3   OH2 9077   6.682   6.286   1.142
 3045TIP3    H1 9078   6.592   6.255   1.145
 3045TIP3    H2 9079   6.711   6.286   1.233
 3046TIP3   OH2 9080   6.286   0.392   6.427
 3046TIP3    H1 9081   6.232   0.461   6.465
 3046TIP3    H2 9082   6.269   0.397   6.333
 3047TIP3   OH2 9083   4.961   3.438   5.075
 3047TIP3    H1 9084   4.961   3.345   5.052
 3047TIP3    H2 9085   4.868   3.462   5.072
 3048TIP3   OH2 9086   6.517   5.227   2.378
 3048TIP3    H1 9087   6.545   5.317   2.393
 3048TIP3    H2 9088   6.563   5.201   2.298
 3049TIP3   OH2 9089   6.897   0.724   0.170
 3049TIP3    H1 9090   6.868   0.759   0.086
 3049TIP3    H2 9091   6.986   0.695   0.154
 3050TIP3   OH2 9092   5.526   6.885   1.687
 3050TIP3    H1 9093   5.561   6.820   1.749
 3050TIP3    H2 9094   5.602   6.933   1.657
 3051TIP3   OH2 9095   0.044   3.969   1.606
 3051TIP3    H1 9096  -0.006   3.961   1.688
 3051TIP3    H2 9097   0.123   3.917   1.621
 3052TIP3   OH2 9098   0.188   2.591   3.432
 3052TIP3    H1 9099   0.280   2.615   3.429
 3052TIP3    H2 9100   0.172   2.571   3.525
 3053TIP3   OH2 9101   5.346   6.745   4.341
 3053TIP3    H1 9102   5.281   6.815   4.352
 3053TIP3    H2 9103   5.319   6.701   4.261
 3054TIP3   OH2 9104   2.625   4.405   2.556
 3054TIP3    H1 9105   2.618   4.326   2.611
 3054TIP3    H2 9106   2.713   4.438   2.572
 3055TIP3   OH2 9107   5.580   5.808   1.247
 3055TIP3    H1 9108   5.655   5.767   1.291
 3055TIP3    H2 9109   5.619   5.876   1.192
 3056TIP3   OH2 9110   6.231   0.577   5.732
 3056TIP3    H1 9111   6.319   0.609   5.711
 3056TIP3    H2 9112   6.172   0.637   5.687
 3057TIP3   OH2 9113   3.456   6.211   2.538
 3057TIP3    H1 9114   3.463   6.155   2.461
 3057TIP3    H2 9115   3.411   6.290   2.506
 3058TIP3   OH2 9116   2.293   1.792   5.223
 3058TIP3    H1 9117   2.206   1.800   5.263
 3058TIP3    H2 9118   2.318   1.701   5.239
 3059TIP3   OH2 9119   1.644   6.796   0.874
 3059TIP3    H1 9120   1.587   6.767   0.803
 3059TIP3    H2 9121   1.597   6.772   0.954
 3060TIP3   OH2 9122   4.478   4.222   0.157
 3060TIP3    H1 9123   4.470   4.130   0.132
 3060TIP3    H2 9124   4.558   4.226   0.209
 3061TIP3   OH2 9125   5.302   6.444   5.793
 3061TIP3    H1 9126   5.370   6.390   5.834
 3061TIP3    H2 9127   5.245   6.469   5.866
 3062TIP3   OH2 9128   3.245   2.752   0.380
 3062TIP3    H1 9129   3.318   2.805   0.412
 3062TIP3    H2 9130   3.285   2.692   0.317
 3063TIP3   OH2 9131   6.929   6.164   2.543
 3063TIP3    H1 9132   6.983   6.207   2.610
 3063TIP3    H2 9133   6.963   6.197   2.460
 3064TIP3   OH2 9134   2.308   0.889   6.352
 3064TIP3    H1 9135   2.290   0.982   6.337
 3064TIP3    H2 9136   2.399   0.887   6.382
 3065TIP3   OH2 9137   4.993   6.102   0.820
 3065TIP3    H1 9138   5.010   6.014   0.786
 3065TIP3    H2 9139   5.067   6.120   0.879
 3066TIP3   OH2 9140   6.067   2.750   4.525
 3066TIP3    H1 9141   6.133   2.733   4.458
 3066TIP3    H2 9142   6.004   2.678   4.515
 3067TIP3   OH2 9143   2.412   2.630   1.145
 3067TIP3    H1 9144   2.497   2.655   1.108
 3067TIP3    H2 9145   2.433   2.599   1.234
 3068TIP3   OH2 9146   2.332   0.716   1.096
 3068TIP3    H1 9147   2.377   0.795   1.065
 3068TIP3    H2 9148   2.255   0.710   1.040
 3069TIP3   OH2 9149   0.283   5.680   1.281
 3069TIP3    H1 9150   0.373   5.706   1.298
 3069TIP3    H2 9151   0.273   5.596   1.327
 3070TIP3   OH2 9152   7.647   5.350   2.236
 3070TIP3    H1 9153   7.695   5.311   2.163
 3070TIP3    H2 9154   7.711   5.354   2.307
 3071TIP3   OH2 9155   4.148   0.863   3.045
 3071TIP3    H1 9156   4.228   0.884   2.997
 3071TIP3    H2 9157   4.096   0.944   3.041
 3072TIP3   OH2 9158   1.259   4.973   3.242
 3072TIP3    H1 9159   1.236   4.993   3.151
 3072TIP3    H2 9160   1.207   4.895   3.263
 3073TIP3   OH2 9161   7.627   1.103   2.132
 3073TIP3    H1 9162   7.674   1.074   2.053
 3073TIP3    H2 9163   7.671   1.057   2.203
 3074TIP3   OH2 9164   2.237   6.933   4.231
 3074TIP3    H1 9165   2.211   6.993   4.161
 3074TIP3    H2 9166   2.318   6.970   4.265
 3075TIP3   OH2 9167   4.799   5.601   1.080
 3075TIP3    H1 9168   4.873   5.628   1.025
 3075TIP3    H2 9169   4.747   5.544   1.023
 3076TIP3   OH2 9170   2.200   1.075   5.319
 3076TIP3    H1 9171   2.224   1.156   5.365
 3076TIP3    H2 9172   2.105   1.071   5.326
 3077TIP3   OH2 9173   2.631   7.765   5.170
 3077TIP3    H1 9174   2.539   7.744   5.155
 3077TIP3    H2 9175   2.648   7.734   5.260
 3078TIP3   OH2 9176   7.434   3.142   5.475
 3078TIP3    H1 9177   7.450   3.063   5.526
 3078TIP3    H2 9178   7.464   3.214   5.531
 3079TIP3   OH2 9179   3.269   5.112   0.607
 3079TIP3    H1 9180   3.348   5.156   0.637
 3079TIP3    H2 9181   3.294   5.020   0.601
 3080TIP3   OH2 9182   6.161   5.971   5.269
 3080TIP3    H1 9183   6.134   6.061   5.288
 3080TIP3    H2 9184   6.131   5.921   5.345
 3081TIP3   OH2 9185   7.776   0.378   3.645
 3081TIP3    H1 9186   7.766   0.336   3.559
 3081TIP3    H2 9187   7.836   0.451   3.629
 3082TIP3   OH2 9188   5.994   0.620   4.278
 3082TIP3    H1 9189   5.963   0.567   4.204
 3082TIP3    H2 9190   6.088   0.631   4.262
 3083TIP3   OH2 9191   5.586   5.790   2.327
 3083TIP3    H1 9192   5.553   5.878   2.307
 3083TIP3    H2 9193   5.608   5.793   2.420
 3084TIP3   OH2 9194   5.111   6.526   1.123
 3084TIP3    H1 9195   5.102   6.490   1.034
 3084TIP3    H2 9196   5.204   6.517   1.143
 3085TIP3   OH2 9197   1.122   4.809   0.454
 3085TIP3    H1 9198   1.113   4.868   0.380
 3085TIP3    H2 9199   1.032   4.786   0.478
 3086TIP3   OH2 9200   6.125   1.726   3.033
 3086TIP3    H1 9201   6.083   1.691   3.112
 3086TIP3    H2 9202   6.217   1.702   3.043
 3087TIP3   OH2 9203   0.941   7.301   1.555
 3087TIP3    H1 9204   0.951   7.211   1.586
 3087TIP3    H2 9205   0.852   7.326   1.581
 3088TIP3   OH2 9206   4.410   5.332   2.168
 3088TIP3    H1 9207   4.475   5.388   2.126
 3088TIP3    H2 9208   4.349   5.309   2.099
 3089TIP3   OH2 9209   1.700   0.652   0.407
 3089TIP3    H1 9210   1.633   0.605   0.357
 3089TIP3    H2 9211   1.668   0.743   0.411
 3090TIP3   OH2 9212   8.058   1.643   0.846
 3090TIP3    H1 9213   8.024   1.595   0.921
 3090TIP3    H2 9214   7.987   1.640   0.781
 3091TIP3   OH2 9215   1.856   2.886   2.036
 3091TIP3    H1 9216   1.937   2.843   2.062
 3091TIP3    H2 9217   1.866   2.976   2.065
 3092TIP3   OH2 9218   1.670   6.720   6.710
 3092TIP3    H1 9219   1.634   6.807   6.722
 3092TIP3    H2 9220   1.602   6.661   6.742
 3093TIP3   OH2 9221   2.502   2.232   3.083
 3093TIP3    H1 9222   2.594   2.204   3.074
 3093TIP3    H2 9223   2.496   2.310   3.028
 3094TIP3   OH2 9224   0.899   1.050   3.449
 3094TIP3    H1 9225   0.902   1.120   3.384
 3094TIP3    H2 9226   0.847   1.086   3.520
 3095TIP3   OH2 9227   7.956   6.768   3.760
 3095TIP3    H1 9228   8.045   6.744   3.732
 3095TIP3    H2 9229   7.968   6.845   3.815
 3096TIP3   OH2 9230   5.959   7.304   6.091
 3096TIP3    H1 9231   5.866   7.326   6.098
 3096TIP3    H2 9232   5.993   7.315   6.179
 3097TIP3   OH2 9233   4.306   1.294   0.816
 3097TIP3    H1 9234   4.255   1.249   0.749
 3097TIP3    H2 9235   4.395   1.261   0.804
 3098TIP3   OH2 9236   4.103   5.602   0.790
 3098TIP3    H1 9237   4.185   5.605   0.740
 3098TIP3    H2 9238   4.119   5.537   0.858
 3099TIP3   OH2 9239   6.732   3.685   2.643
 3099TIP3    H1 9240   6.648   3.658   2.605
 3099TIP3    H2 9241   6.713   3.701   2.735
 3100TIP3   OH2 9242   6.304   6.087   5.522
 3100TIP3    H1 9243   6.271   6.000   5.543
 3100TIP3    H2 9244   6.243   6.121   5.456
 3101TIP3   OH2 9245   3.416   2.620   5.772
 3101TIP3    H1 9246   3.470   2.544   5.793
 3101TIP3    H2 9247   3.418   2.626   5.677
 3102TIP3   OH2 9248   7.217   3.419   5.960
 3102TIP3    H1 9249   7.219   3.418   6.055
 3102TIP3    H2 9250   7.309   3.417   5.934
 3103TIP3   OH2 9251   2.624   5.000   0.614
 3103TIP3    H1 9252   2.533   5.020   0.639
 3103TIP3    H2 9253   2.620   4.987   0.520
 3104TIP3   OH2 9254   5.771   4.546   4.029
 3104TIP3    H1 9255   5.679   4.524   4.041
 3104TIP3    H2 9256   5.814   4.515   4.109
 3105TIP3   OH2 9257   2.119   1.350   1.228
 3105TIP3    H1 9258   2.149   1.322   1.314
 3105TIP3    H2 9259   2.198   1.386   1.186
 3106TIP3   OH2 9260   8.002   0.527   6.548
 3106TIP3    H1 9261   8.012   0.461   6.616
 3106TIP3    H2 9262   8.030   0.484   6.468
 3107TIP3   OH2 9263   2.010   2.208   0.589
 3107TIP3    H1 9264   1.915   2.199   0.577
 3107TIP3    H2 9265   2.020   2.295   0.629
 3108TIP3   OH2 9266   2.492   7.709   4.370
 3108TIP3    H1 9267   2.419   7.765   4.395
 3108TIP3    H2 9268   2.510   7.656   4.448
 3109TIP3   OH2 9269   3.065   0.910   5.011
 3109TIP3    H1 9270   3.056   0.816   5.000
 3109TIP3    H2 9271   3.158   0.927   4.992
 3110TIP3   OH2 9272   1.857   3.226   0.325
 3110TIP3    H1 9273   1.871   3.236   0.419
 3110TIP3    H2 9274   1.788   3.160   0.317
 3111TIP3   OH2 9275   0.993   3.361   3.643
 3111TIP3    H1 9276   1.026   3.274   3.667
 3111TIP3    H2 9277   1.066   3.420   3.659
 3112TIP3   OH2 9278   4.659   6.650   4.992
 3112TIP3    H1 9279   4.650   6.697   5.075
 3112TIP3    H2 9280   4.570   6.651   4.955
 3113TIP3   OH2 9281   8.231   3.852   4.155
 3113TIP3    H1 9282   8.274   3.780   4.201
 3113TIP3    H2 9283   8.248   3.835   4.063
 3114TIP3   OH2 9284   0.367   5.502   5.561
 3114TIP3    H1 9285   0.331   5.515   5.649
 3114TIP3    H2 9286   0.384   5.408   5.555
 3115TIP3   OH2 9287   2.922   6.070   3.984
 3115TIP3    H1 9288   2.852   6.127   3.951
 3115TIP3    H2 9289   2.999   6.126   3.987
 3116TIP3   OH2 9290   3.209   0.731   1.695
 3116TIP3    H1 9291   3.228   0.653   1.748
 3116TIP3    H2 9292   3.293   0.753   1.655
 3117TIP3   OH2 9293   1.449   7.708   6.509
 3117TIP3    H1 9294   1.540   7.688   6.533
 3117TIP3    H2 9295   1.396   7.661   6.573
 3118TIP3   OH2 9296   1.808   0.868   4.952
 3118TIP3    H1 9297   1.853   0.946   4.919
 3118TIP3    H2 9298   1.717   0.880   4.926
 3119TIP3   OH2 9299   6.254   1.313   4.083
 3119TIP3    H1 9300   6.272   1.225   4.117
 3119TIP3    H2 9301   6.257   1.304   3.988
 3120TIP3   OH2 9302   1.966   4.365   2.178
 3120TIP3    H1 9303   2.011   4.286   2.207
 3120TIP3    H2 9304   2.033   4.434   2.183
 3121TIP3   OH2 9305   1.460   1.896   2.858
 3121TIP3    H1 9306   1.373   1.858   2.857
 3121TIP3    H2 9307   1.514   1.832   2.905
 3122TIP3   OH2 9308   7.281   6.699   5.080
 3122TIP3    H1 9309   7.325   6.614   5.075
 3122TIP3    H2 9310   7.250   6.716   4.991
 3123TIP3   OH2 9311   1.149   4.152   1.532
 3123TIP3    H1 9312   1.171   4.223   1.592
 3123TIP3    H2 9313   1.228   4.140   1.480
 3124TIP3   OH2 9314   3.970   1.596   1.110
 3124TIP3    H1 9315   3.980   1.524   1.172
 3124TIP3    H2 9316   4.059   1.613   1.078
 3125TIP3   OH2 9317   4.324   3.006   2.010
 3125TIP3    H1 9318   4.405   2.978   1.967
 3125TIP3    H2 9319   4.306   2.939   2.075
 3126TIP3   OH2 9320   3.113   1.221   3.112
 3126TIP3    H1 9321   3.181   1.237   3.177
 3126TIP3    H2 9322   3.161   1.201   3.031
 3127TIP3   OH2 9323   5.678   3.474   0.943
 3127TIP3    H1 9324   5.609   3.539   0.957
 3127TIP3    H2 9325   5.705   3.449   1.031
 3128TIP3   OH2 9326   1.563   1.720   3.389
 3128TIP3    H1 9327   1.470   1.736   3.405
 3128TIP3    H2 9328   1.588   1.656   3.456
 3129TIP3   OH2 9329   0.387   5.551   0.639
 3129TIP3    H1 9330   0.296   5.520   0.635
 3129TIP3    H2 9331   0.415   5.552   0.547
 3130TIP3   OH2 9332   0.264   0.271   5.913
 3130TIP3    H1 9333   0.278   0.262   5.818
 3130TIP3    H2 9334   0.271   0.365   5.929
 3131TIP3   OH2 9335   7.859   1.310   2.338
 3131TIP3    H1 9336   7.908   1.365   2.277
 3131TIP3    H2 9337   7.850   1.363   2.417
 3132TIP3   OH2 9338   2.213   0.681   4.608
 3132TIP3    H1 9339   2.280   0.742   4.639
 3132TIP3    H2 9340   2.250   0.594   4.623
 3133TIP3   OH2 9341   7.806   1.609   5.526
 3133TIP3    H1 9342   7.764   1.677   5.473
 3133TIP3    H2 9343   7.779   1.527   5.485
 3134TIP3   OH2 9344   2.250   6.401   2.606
 3134TIP3    H1 9345   2.323   6.417   2.667
 3134TIP3    H2 9346   2.291   6.362   2.529
 3135TIP3   OH2 9347   6.410   6.785   3.659
 3135TIP3    H1 9348   6.503   6.773   3.682
 3135TIP3    H2 9349   6.412   6.844   3.584
 3136TIP3   OH2 9350   5.921   3.995   1.722
 3136TIP3    H1 9351   5.846   3.992   1.664
 3136TIP3    H2 9352   5.887   4.032   1.804
 3137TIP3   OH2 9353   1.415   4.779   2.129
 3137TIP3    H1 9354   1.322   4.772   2.154
 3137TIP3    H2 9355   1.415   4.766   2.034
 3138TIP3   OH2 9356   4.006   7.881   5.144
 3138TIP3    H1 9357   4.074   7.851   5.083
 3138TIP3    H2 9358   4.009   7.816   5.215
 3139TIP3   OH2 9359   3.473   3.039   1.871
 3139TIP3    H1 9360   3.519   3.120   1.894
 3139TIP3    H2 9361   3.401   3.034   1.934
 3140TIP3   OH2 9362   1.773   3.276   3.482
 3140TIP3    H1 9363   1.722   3.318   3.413
 3140TIP3    H2 9364   1.728   3.299   3.563
 3141TIP3   OH2 9365   7.501   1.028   3.591
 3141TIP3    H1 9366   7.580   1.000   3.638
 3141TIP3    H2 9367   7.510   0.988   3.505
 3142TIP3   OH2 9368   5.419   4.126   1.737
 3142TIP3    H1 9369   5.477   4.102   1.809
 3142TIP3    H2 9370   5.432   4.221   1.727
 3143TIP3   OH2 9371   5.798   3.964   2.833
 3143TIP3    H1 9372   5.882   3.921   2.850
 3143TIP3    H2 9373   5.786   4.023   2.908
 3144TIP3   OH2 9374   2.634   2.674   0.456
 3144TIP3    H1 9375   2.567   2.610   0.435
 3144TIP3    H2 9376   2.605   2.755   0.414
 3145TIP3   OH2 9377   0.240   0.633   4.656
 3145TIP3    H1 9378   0.264   0.712   4.607
 3145TIP3    H2 9379   0.304   0.629   4.727
 3146TIP3   OH2 9380   3.299   4.877   4.624
 3146TIP3    H1 9381   3.379   4.874   4.676
 3146TIP3    H2 9382   3.254   4.795   4.645
 3147TIP3   OH2 9383   1.351   7.108   5.685
 3147TIP3    H1 9384   1.320   7.180   5.630
 3147TIP3    H2 9385   1.440   7.134   5.710
 3148TIP3   OH2 9386   3.497   7.647   2.635
 3148TIP3    H1 9387   3.407   7.659   2.663
 3148TIP3    H2 9388   3.493   7.650   2.540
 3149TIP3   OH2 9389   0.157   3.743   4.563
 3149TIP3    H1 9390   0.188   3.695   4.640
 3149TIP3    H2 9391   0.106   3.678   4.514
 3150TIP3   OH2 9392   1.572   3.887   4.918
 3150TIP3    H1 9393   1.527   3.889   4.833
 3150TIP3    H2 9394   1.660   3.921   4.899
 3151TIP3   OH2 9395   1.758   1.923   0.523
 3151TIP3    H1 9396   1.838   1.885   0.559
 3151TIP3    H2 9397   1.687   1.884   0.575
 3152TIP3   OH2 9398   0.731   2.785   1.020
 3152TIP3    H1 9399   0.743   2.703   0.972
 3152TIP3    H2 9400   0.645   2.776   1.062
 3153TIP3   OH2 9401   6.500   7.372   3.729
 3153TIP3    H1 9402   6.435   7.304   3.745
 3153TIP3    H2 9403   6.554   7.372   3.808
 3154TIP3   OH2 9404   5.936   2.682   5.984
 3154TIP3    H1 9405   5.890   2.608   6.025
 3154TIP3    H2 9406   5.868   2.725   5.931
 3155TIP3   OH2 9407   8.239   6.353   1.273
 3155TIP3    H1 9408   8.296   6.361   1.196
 3155TIP3    H2 9409   8.220   6.443   1.298
 3156TIP3   OH2 9410   4.821   3.216   0.590
 3156TIP3    H1 9411   4.886   3.181   0.529
 3156TIP3    H2 9412   4.871   3.235   0.669
 3157TIP3   OH2 9413   7.863   5.669   6.145
 3157TIP3    H1 9414   7.793   5.696   6.204
 3157TIP3    H2 9415   7.942   5.670   6.200
 3158TIP3   OH2 9416   3.609   3.281   2.602
 3158TIP3    H1 9417   3.597   3.205   2.659
 3158TIP3    H2 9418   3.591   3.356   2.659
 3159TIP3   OH2 9419   5.024   6.847   3.888
 3159TIP3    H1 9420   5.119   6.851   3.889
 3159TIP3    H2 9421   5.001   6.812   3.975
 3160TIP3   OH2 9422   1.449   2.557   5.447
 3160TIP3    H1 9423   1.479   2.527   5.533
 3160TIP3    H2 9424   1.509   2.516   5.385
 3161TIP3   OH2 9425   7.154   4.618   0.693
 3161TIP3    H1 9426   7.173   4.557   0.622
 3161TIP3    H2 9427   7.171   4.568   0.773
 3162TIP3   OH2 9428   6.139   2.012   2.138
 3162TIP3    H1 9429   6.089   2.093   2.147
 3162TIP3    H2 9430   6.217   2.027   2.193
 3163TIP3   OH2 9431   2.894   1.358   6.218
 3163TIP3    H1 9432   2.927   1.295   6.155
 3163TIP3    H2 9433   2.952   1.433   6.210
 3164TIP3   OH2 9434   1.241   1.679   0.821
 3164TIP3    H1 9435   1.241   1.679   0.726
 3164TIP3    H2 9436   1.234   1.772   0.845
 3165TIP3   OH2 9437   2.614   7.776   2.730
 3165TIP3    H1 9438   2.533   7.785   2.780
 3165TIP3    H2 9439   2.664   7.856   2.749
 3166TIP3   OH2 9440   7.403   6.308   0.112
 3166TIP3    H1 9441   7.440   6.227   0.147
 3166TIP3    H2 9442   7.412   6.300   0.017
 3167TIP3   OH2 9443   2.298   0.302   0.045
 3167TIP3    H1 9444   2.276   0.395   0.051
 3167TIP3    H2 9445   2.280   0.279  -0.046
 3168TIP3   OH2 9446   0.587   0.663   1.128
 3168TIP3    H1 9447   0.538   0.651   1.210
 3168TIP3    H2 9448   0.627   0.750   1.137
 3169TIP3   OH2 9449   4.094   3.697   5.674
 3169TIP3    H1 9450   4.049   3.636   5.614
 3169TIP3    H2 9451   4.023   3.734   5.727
 3170TIP3   OH2 9452   6.308   4.008   6.528
 3170TIP3    H1 9453   6.324   3.921   6.490
 3170TIP3    H2 9454   6.374   4.064   6.488
 3171TIP3   OH2 9455   4.051   4.097   5.561
 3171TIP3    H1 9456   4.038   4.096   5.656
 3171TIP3    H2 9457   3.963   4.106   5.525
 3172TIP3   OH2 9458   7.194   3.675   6.611
 3172TIP3    H1 9459   7.152   3.693   6.527
 3172TIP3    H2 9460   7.201   3.580   6.615
 3173TIP3   OH2 9461   2.612   0.850   1.361
 3173TIP3    H1 9462   2.622   0.762   1.325
 3173TIP3    H2 9463   2.524   0.876   1.336
 3174TIP3   OH2 9464   5.354   4.410   1.626
 3174TIP3    H1 9465   5.292   4.461   1.679
 3174TIP3    H2 9466   5.334   4.435   1.536
 3175TIP3   OH2 9467   1.883   2.223   0.287
 3175TIP3    H1 9468   1.963   2.259   0.251
 3175TIP3    H2 9469   1.869   2.272   0.368
 3176TIP3   OH2 9470   7.180   3.125   2.523
 3176TIP3    H1 9471   7.206   3.081   2.442
 3176TIP3    H2 9472   7.193   3.059   2.591
 3177TIP3   OH2 9473   2.738   0.550   2.621
 3177TIP3    H1 9474   2.752   0.540   2.527
 3177TIP3    H2 9475   2.819   0.519   2.661
 3178TIP3   OH2 9476   2.328   3.434   4.751
 3178TIP3    H1 9477   2.297   3.410   4.663
 3178TIP3    H2 9478   2.396   3.499   4.735
 3179TIP3   OH2 9479   1.377   5.959   3.893
 3179TIP3    H1 9480   1.365   6.013   3.815
 3179TIP3    H2 9481   1.469   5.972   3.918
 3180TIP3   OH2 9482   4.630   0.254   3.242
 3180TIP3    H1 9483   4.606   0.346   3.255
 3180TIP3    H2 9484   4.699   0.255   3.176
 3181TIP3   OH2 9485   4.786   2.334   4.419
 3181TIP3    H1 9486   4.759   2.265   4.480
 3181TIP3    H2 9487   4.843   2.289   4.356
 3182TIP3   OH2 9488   7.527   2.658   0.998
 3182TIP3    H1 9489   7.480   2.709   0.932
 3182TIP3    H2 9490   7.593   2.719   1.032
 3183TIP3   OH2 9491   2.121   7.296   1.614
 3183TIP3    H1 9492   2.153   7.382   1.587
 3183TIP3    H2 9493   2.033   7.313   1.647
 3184TIP3   OH2 9494   1.753   6.474   2.830
 3184TIP3    H1 9495   1.720   6.472   2.740
 3184TIP3    H2 9496   1.848   6.470   2.820
 3185TIP3   OH2 9497   8.204   4.449   3.230
 3185TIP3    H1 9498   8.235   4.440   3.140
 3185TIP3    H2 9499   8.227   4.365   3.272
 3186TIP3   OH2 9500   0.864   6.634   6.265
 3186TIP3    H1 9501   0.808   6.661   6.338
 3186TIP3    H2 9502   0.926   6.572   6.305
 3187TIP3   OH2 9503   4.910   4.002   0.282
 3187TIP3    H1 9504   4.832   3.976   0.331
 3187TIP3    H2 9505   4.879   4.067   0.220
 3188TIP3   OH2 9506   5.353   2.335   5.050
 3188TIP3    H1 9507   5.426   2.275   5.058
 3188TIP3    H2 9508   5.386   2.407   4.996
 3189TIP3   OH2 9509   5.797   2.400   0.431
 3189TIP3    H1 9510   5.872   2.456   0.444
 3189TIP3    H2 9511   5.792   2.387   0.336
 3190TIP3   OH2 9512   7.232   0.191   3.996
 3190TIP3    H1 9513   7.284   0.183   4.075
 3190TIP3    H2 9514   7.234   0.284   3.974
 3191TIP3   OH2 9515   1.100   3.241   0.247
 3191TIP3    H1 9516   1.135   3.265   0.333
 3191TIP3    H2 9517   1.162   3.175   0.214
 3192TIP3   OH2 9518   6.158   1.886   4.017
 3192TIP3    H1 9519   6.117   1.807   4.052
 3192TIP3    H2 9520   6.121   1.895   3.929
 3193TIP3   OH2 9521   2.427   1.582   2.388
 3193TIP3    H1 9522   2.519   1.588   2.363
 3193TIP3    H2 9523   2.428   1.589   2.483
 3194TIP3   OH2 9524   3.414   3.112   3.961
 3194TIP3    H1 9525   3.486   3.161   3.922
 3194TIP3    H2 9526   3.448   3.083   4.046
 3195TIP3   OH2 9527   3.290   3.023   6.388
 3195TIP3    H1 9528   3.206   2.984   6.410
 3195TIP3    H2 9529   3.345   2.949   6.361
 3196TIP3   OH2 9530   2.068   4.476   1.748
 3196TIP3    H1 9531   2.049   4.565   1.779
 3196TIP3    H2 9532   2.053   4.479   1.654
 3197TIP3   OH2 9533   5.593   4.672   5.215
 3197TIP3    H1 9534   5.595   4.727   5.137
 3197TIP3    H2 9535   5.501   4.648   5.225
 3198TIP3   OH2 9536   2.575   6.297   4.547
 3198TIP3    H1 9537   2.640   6.273   4.482
 3198TIP3    H2 9538   2.506   6.232   4.537
 3199TIP3   OH2 9539   0.484   3.627   4.424
 3199TIP3    H1 9540   0.410   3.568   4.438
 3199TIP3    H2 9541   0.517   3.645   4.512
 3200TIP3   OH2 9542   2.391   2.493   0.897
 3200TIP3    H1 9543   2.479   2.493   0.861
 3200TIP3    H2 9544   2.392   2.562   0.963
 3201TIP3   OH2 9545   6.977   4.872   0.912
 3201TIP3    H1 9546   6.988   4.956   0.868
 3201TIP3    H2 9547   6.985   4.892   1.005
 3202TIP3   OH2 9548   3.815   2.767   0.008
 3202TIP3    H1 9549   3.807   2.784  -0.086
 3202TIP3    H2 9550   3.810   2.672   0.016
 3203TIP3   OH2 9551   2.464   1.545   2.011
 3203TIP3    H1 9552   2.494   1.499   1.933
 3203TIP3    H2 9553   2.543   1.559   2.063
 3204TIP3   OH2 9554   7.054   4.699   4.051
 3204TIP3    H1 9555   7.106   4.631   4.008
 3204TIP3    H2 9556   7.041   4.766   3.984
 3205TIP3   OH2 9557   7.885   2.444   4.855
 3205TIP3    H1 9558   7.927   2.425   4.939
 3205TIP3    H2 9559   7.885   2.540   4.849
 3206TIP3   OH2 9560   0.283   4.086   0.171
 3206TIP3    H1 9561   0.220   4.158   0.165
 3206TIP3    H2 9562   0.249   4.030   0.241
 3207TIP3   OH2 9563   7.227   5.792   2.018
 3207TIP3    H1 9564   7.158   5.742   1.974
 3207TIP3    H2 9565   7.303   5.733   2.018
 3208TIP3   OH2 9566   3.461   0.497   6.520
 3208TIP3    H1 9567   3.532   0.481   6.458
 3208TIP3    H2 9568   3.506   0.523   6.601
 3209TIP3   OH2 9569   8.240   1.271   0.618
 3209TIP3    H1 9570   8.161   1.296   0.667
 3209TIP3    H2 9571   8.211   1.198   0.562
 3210TIP3   OH2 9572   4.337   4.603   2.982
 3210TIP3    H1 9573   4.272   4.564   3.040
 3210TIP3    H2 9574   4.421   4.587   3.026
 3211TIP3   OH2 9575   1.753   0.222   0.314
 3211TIP3    H1 9576   1.847   0.238   0.320
 3211TIP3    H2 9577   1.716   0.305   0.283
 3212TIP3   OH2 9578   0.958   1.358   2.303
 3212TIP3    H1 9579   1.015   1.354   2.226
 3212TIP3    H2 9580   0.988   1.435   2.351
 3213TIP3   OH2 9581   7.193   2.175   5.861
 3213TIP3    H1 9582   7.229   2.168   5.949
 3213TIP3    H2 9583   7.099   2.188   5.874
 3214TIP3   OH2 9584   7.268   6.576   1.095
 3214TIP3    H1 9585   7.175   6.599   1.091
 3214TIP3    H2 9586   7.284   6.526   1.015
 3215TIP3   OH2 9587   4.679   0.418   0.908
 3215TIP3    H1 9588   4.686   0.503   0.865
 3215TIP3    H2 9589   4.688   0.354   0.836
 3216TIP3   OH2 9590   1.922   5.602   5.860
 3216TIP3    H1 9591   1.865   5.665   5.906
 3216TIP3    H2 9592   1.861   5.549   5.808
 3217TIP3   OH2 9593   2.765   5.864   6.665
 3217TIP3    H1 9594   2.764   5.957   6.645
 3217TIP3    H2 9595   2.772   5.821   6.580
 3218TIP3   OH2 9596   0.982   7.650   4.174
 3218TIP3    H1 9597   1.003   7.739   4.200
 3218TIP3    H2 9598   1.024   7.639   4.089
 3219TIP3   OH2 9599   0.168   6.574   2.156
 3219TIP3    H1 9600   0.110   6.642   2.189
 3219TIP3    H2 9601   0.162   6.504   2.221
 3220TIP3   OH2 9602   3.603   1.773   1.731
 3220TIP3    H1 9603   3.611   1.838   1.661
 3220TIP3    H2 9604   3.579   1.692   1.686
 3221TIP3   OH2 9605   1.952   2.299   3.514
 3221TIP3    H1 9606   2.021   2.349   3.558
 3221TIP3    H2 9607   1.949   2.334   3.425
 3222TIP3   OH2 9608   4.735   0.154   0.038
 3222TIP3    H1 9609   4.695   0.068   0.025
 3222TIP3    H2 9610   4.759   0.182  -0.051
 3223TIP3   OH2 9611   7.310   1.373   2.707
 3223TIP3    H1 9612   7.377   1.436   2.733
 3223TIP3    H2 9613   7.233   1.427   2.686
 3224TIP3   OH2 9614   7.912   0.189   3.057
 3224TIP3    H1 9615   7.823   0.167   3.085
 3224TIP3    H2 9616   7.912   0.175   2.963
 3225TIP3   OH2 9617   7.767   4.751   1.886
 3225TIP3    H1 9618   7.711   4.800   1.946
 3225TIP3    H2 9619   7.749   4.788   1.800
 3226TIP3   OH2 9620   3.907   0.654   0.398
 3226TIP3    H1 9621   3.975   0.671   0.334
 3226TIP3    H2 9622   3.950   0.602   0.466
 3227TIP3   OH2 9623   2.437   0.294   1.616
 3227TIP3    H1 9624   2.529   0.268   1.603
 3227TIP3    H2 9625   2.389   0.245   1.549
 3228TIP3   OH2 9626   1.132   0.814   2.245
 3228TIP3    H1 9627   1.124   0.907   2.266
 3228TIP3    H2 9628   1.095   0.807   2.157
 3229TIP3   OH2 9629   3.750   7.496   1.540
 3229TIP3    H1 9630   3.667   7.473   1.498
 3229TIP3    H2 9631   3.814   7.493   1.469
 3230TIP3   OH2 9632   1.319   6.663   3.282
 3230TIP3    H1 9633   1.340   6.645   3.191
 3230TIP3    H2 9634   1.297   6.578   3.319
 3231TIP3   OH2 9635   5.854   1.242   1.585
 3231TIP3    H1 9636   5.919   1.206   1.524
 3231TIP3    H2 9637   5.790   1.286   1.529
 3232TIP3   OH2 9638   1.599   5.089   4.861
 3232TIP3    H1 9639   1.535   5.144   4.815
 3232TIP3    H2 9640   1.551   5.009   4.882
 3233TIP3   OH2 9641   0.686   2.355   3.013
 3233TIP3    H1 9642   0.765   2.403   2.990
 3233TIP3    H2 9643   0.646   2.406   3.084
 3234TIP3   OH2 9644   3.740   4.228   4.389
 3234TIP3    H1 9645   3.766   4.228   4.482
 3234TIP3    H2 9646   3.802   4.168   4.347
 3235TIP3   OH2 9647   5.888   4.167   4.784
 3235TIP3    H1 9648   5.845   4.089   4.750
 3235TIP3    H2 9649   5.868   4.168   4.877
 3236TIP3   OH2 9650   4.337   0.405   4.150
 3236TIP3    H1 9651   4.324   0.485   4.098
 3236TIP3    H2 9652   4.357   0.338   4.085
 3237TIP3   OH2 9653   3.260   3.494   0.535
 3237TIP3    H1 9654   3.167   3.510   0.547
 3237TIP3    H2 9655   3.264   3.418   0.477
 3238TIP3   OH2 9656   2.239   3.649   1.046
 3238TIP3    H1 9657   2.327   3.668   1.014
 3238TIP3    H2 9658   2.248   3.648   1.141
 3239TIP3   OH2 9659   6.512   5.979   2.965
 3239TIP3    H1 9660   6.544   5.923   3.035
 3239TIP3    H2 9661   6.554   6.063   2.980
 3240TIP3   OH2 9662   1.855   1.978   0.882
 3240TIP3    H1 9663   1.878   2.045   0.947
 3240TIP3    H2 9664   1.761   1.965   0.893
 3241TIP3   OH2 9665   2.191   7.582   0.524
 3241TIP3    H1 9666   2.199   7.529   0.603
 3241TIP3    H2 9667   2.281   7.609   0.505
 3242TIP3   OH2 9668   0.481   2.500   4.101
 3242TIP3    H1 9669   0.500   2.498   4.007
 3242TIP3    H2 9670   0.517   2.418   4.135
 3243TIP3   OH2 9671   2.862   1.421   4.544
 3243TIP3    H1 9672   2.809   1.485   4.592
 3243TIP3    H2 9673   2.946   1.420   4.590
 3244TIP3   OH2 9674   5.462   3.381   5.498
 3244TIP3    H1 9675   5.400   3.394   5.570
 3244TIP3    H2 9676   5.494   3.291   5.510
 3245TIP3   OH2 9677   4.539   5.890   0.486
 3245TIP3    H1 9678   4.559   5.832   0.412
 3245TIP3    H2 9679   4.487   5.961   0.447
 3246TIP3   OH2 9680   5.446   6.746   2.445
 3246TIP3    H1 9681   5.377   6.756   2.380
 3246TIP3    H2 9682   5.523   6.786   2.405
 3247TIP3   OH2 9683   5.696   0.495   5.120
 3247TIP3    H1 9684   5.653   0.578   5.141
 3247TIP3    H2 9685   5.630   0.429   5.139
 3248TIP3   OH2 9686   5.152   5.855   5.722
 3248TIP3    H1 9687   5.244   5.833   5.735
 3248TIP3    H2 9688   5.142   5.865   5.627
 3249TIP3   OH2 9689   3.909   6.682   6.427
 3249TIP3    H1 9690   3.917   6.586   6.430
 3249TIP3    H2 9691   3.846   6.698   6.356
 3250TIP3   OH2 9692   1.397   6.871   5.563
 3250TIP3    H1 9693   1.324   6.828   5.519
 3250TIP3    H2 9694   1.361   6.952   5.597
 3251TIP3   OH2 9695   2.908   6.748   0.762
 3251TIP3    H1 9696   2.871   6.663   0.737
 3251TIP3    H2 9697   3.002   6.740   0.744
 3252TIP3   OH2 9698   8.179   2.091   6.030
 3252TIP3    H1 9699   8.145   2.002   6.017
 3252TIP3    H2 9700   8.153   2.139   5.952
 3253TIP3   OH2 9701   0.759   1.585   3.844
 3253TIP3    H1 9702   0.689   1.641   3.877
 3253TIP3    H2 9703   0.767   1.516   3.910
 3254TIP3   OH2 9704   2.601   4.937   0.332
 3254TIP3    H1 9705   2.511   4.915   0.309
 3254TIP3    H2 9706   2.645   4.950   0.247
 3255TIP3   OH2 9707   0.413   0.004   5.294
 3255TIP3    H1 9708   0.459   0.057   5.230
 3255TIP3    H2 9709   0.320   0.021   5.278
 3256TIP3   OH2 9710   6.847   3.043   4.205
 3256TIP3    H1 9711   6.847   3.139   4.202
 3256TIP3    H2 9712   6.841   3.016   4.113
 3257TIP3   OH2 9713   7.004   3.374   5.541
 3257TIP3    H1 9714   6.956   3.359   5.622
 3257TIP3    H2 9715   7.042   3.461   5.552
 3258TIP3   OH2 9716   0.650   4.843   0.209
 3258TIP3    H1 9717   0.588   4.814   0.142
 3258TIP3    H2 9718   0.629   4.790   0.286
 3259TIP3   OH2 9719   0.877   1.420   4.376
 3259TIP3    H1 9720   0.862   1.458   4.289
 3259TIP3    H2 9721   0.922   1.489   4.425
 3260TIP3   OH2 9722   4.521   6.028   3.152
 3260TIP3    H1 9723   4.603   6.077   3.158
 3260TIP3    H2 9724   4.465   6.080   3.096
 3261TIP3   OH2 9725   6.258   3.245   4.963
 3261TIP3    H1 9726   6.315   3.210   4.895
 3261TIP3    H2 9727   6.174   3.258   4.920
 3262TIP3   OH2 9728   0.639   2.508   5.231
 3262TIP3    H1 9729   0.585   2.579   5.194
 3262TIP3    H2 9730   0.665   2.456   5.155
 3263TIP3   OH2 9731   3.712   5.106   1.626
 3263TIP3    H1 9732   3.706   5.042   1.556
 3263TIP3    H2 9733   3.722   5.190   1.580
 3264TIP3   OH2 9734   1.361   0.989   4.944
 3264TIP3    H1 9735   1.363   1.077   4.980
 3264TIP3    H2 9736   1.453   0.961   4.943
 3265TIP3   OH2 9737   0.426   2.283   0.193
 3265TIP3    H1 9738   0.334   2.269   0.213
 3265TIP3    H2 9739   0.445   2.220   0.123
 3266TIP3   OH2 9740   6.590   5.955   0.061
 3266TIP3    H1 9741   6.681   5.958   0.089
 3266TIP3    H2 9742   6.566   6.046   0.044
 3267TIP3   OH2 9743   6.568   4.033   6.747
 3267TIP3    H1 9744   6.492   4.087   6.723
 3267TIP3    H2 9745   6.546   3.997   6.833
 3268TIP3   OH2 9746   4.771   4.332   3.350
 3268TIP3    H1 9747   4.820   4.345   3.431
 3268TIP3    H2 9748   4.708   4.264   3.371
 3269TIP3   OH2 9749   5.825   0.925   3.014
 3269TIP3    H1 9750   5.870   0.896   3.093
 3269TIP3    H2 9751   5.733   0.930   3.039
 3270TIP3   OH2 9752   1.043   2.179   6.168
 3270TIP3    H1 9753   1.102   2.152   6.238
 3270TIP3    H2 9754   1.093   2.162   6.088
 3271TIP3   OH2 9755   5.713   2.442   2.328
 3271TIP3    H1 9756   5.643   2.506   2.341
 3271TIP3    H2 9757   5.702   2.379   2.400
 3272TIP3   OH2 9758   5.456   5.509   3.699
 3272TIP3    H1 9759   5.426   5.451   3.629
 3272TIP3    H2 9760   5.501   5.451   3.760
 3273TIP3   OH2 9761   4.784   5.796   4.393
 3273TIP3    H1 9762   4.706   5.779   4.340
 3273TIP3    H2 9763   4.750   5.806   4.482
 3274TIP3   OH2 9764   6.149   5.873   5.605
 3274TIP3    H1 9765   6.154   5.797   5.547
 3274TIP3    H2 9766   6.057   5.899   5.603
 3275TIP3   OH2 9767   3.570   7.067   2.615
 3275TIP3    H1 9768   3.571   6.999   2.683
 3275TIP3    H2 9769   3.509   7.133   2.648
 3276TIP3   OH2 9770   8.203   0.559   2.772
 3276TIP3    H1 9771   8.167   0.614   2.702
 3276TIP3    H2 9772   8.127   0.534   2.824
 3277TIP3   OH2 9773   0.989   2.403   4.109
 3277TIP3    H1 9774   1.021   2.492   4.125
 3277TIP3    H2 9775   1.066   2.347   4.118
 3278TIP3   OH2 9776   5.065   4.719   4.060
 3278TIP3    H1 9777   5.031   4.808   4.052
 3278TIP3    H2 9778   5.160   4.729   4.054
 3279TIP3   OH2 9779   6.721   0.980   4.591
 3279TIP3    H1 9780   6.674   0.929   4.657
 3279TIP3    H2 9781   6.667   0.972   4.512
 3280TIP3   OH2 9782   5.981   3.365   2.891
 3280TIP3    H1 9783   5.991   3.411   2.974
 3280TIP3    H2 9784   6.065   3.322   2.877
 3281TIP3   OH2 9785   3.448   6.338   5.777
 3281TIP3    H1 9786   3.491   6.355   5.693
 3281TIP3    H2 9787   3.382   6.407   5.784
 3282TIP3   OH2 9788   3.025   1.108   4.808
 3282TIP3    H1 9789   3.085   1.178   4.836
 3282TIP3    H2 9790   3.025   1.046   4.881
 3283TIP3   OH2 9791   4.056   1.927   5.372
 3283TIP3    H1 9792   4.104   1.876   5.437
 3283TIP3    H2 9793   4.060   1.874   5.293
 3284TIP3   OH2 9794   2.727   2.458   5.011
 3284TIP3    H1 9795   2.650   2.453   5.068
 3284TIP3    H2 9796   2.763   2.545   5.026
 3285TIP3   OH2 9797   1.683   5.064   5.925
 3285TIP3    H1 9798   1.696   4.970   5.930
 3285TIP3    H2 9799   1.667   5.091   6.015
 3286TIP3   OH2 9800   4.546   7.784   5.870
 3286TIP3    H1 9801   4.479   7.808   5.806
 3286TIP3    H2 9802   4.554   7.861   5.926
 3287TIP3   OH2 9803   3.024   1.452   4.755
 3287TIP3    H1 9804   2.945   1.419   4.799
 3287TIP3    H2 9805   3.097   1.414   4.804
 3288TIP3   OH2 9806   7.819   2.700   5.206
 3288TIP3    H1 9807   7.819   2.693   5.301
 3288TIP3    H2 9808   7.900   2.656   5.178
 3289TIP3   OH2 9809   6.501   5.641   0.223
 3289TIP3    H1 9810   6.582   5.692   0.227
 3289TIP3    H2 9811   6.459   5.667   0.142
 3290TIP3   OH2 9812   4.625   1.556   6.555
 3290TIP3    H1 9813   4.575   1.550   6.637
 3290TIP3    H2 9814   4.583   1.494   6.496
 3291TIP3   OH2 9815   7.623   2.401   6.382
 3291TIP3    H1 9816   7.535   2.363   6.391
 3291TIP3    H2 9817   7.621   2.478   6.438
 3292TIP3   OH2 9818   7.457   3.596   4.941
 3292TIP3    H1 9819   7.401   3.599   4.863
 3292TIP3    H2 9820   7.425   3.521   4.991
 3293TIP3   OH2 9821   3.266   1.614   4.935
 3293TIP3    H1 9822   3.208   1.570   4.997
 3293TIP3    H2 9823   3.254   1.707   4.953
 3294TIP3   OH2 9824   8.165   6.965   5.556
 3294TIP3    H1 9825   8.159   6.939   5.465
 3294TIP3    H2 9826   8.252   6.936   5.584
 3295TIP3   OH2 9827   1.329   7.371   1.755
 3295TIP3    H1 9828   1.243   7.335   1.732
 3295TIP3    H2 9829   1.357   7.417   1.676
 3296TIP3   OH2 9830   6.468   0.854   4.045
 3296TIP3    H1 9831   6.481   0.893   4.132
 3296TIP3    H2 9832   6.373   0.841   4.039
 3297TIP3   OH2 9833   1.893   3.738   4.224
 3297TIP3    H1 9834   1.987   3.729   4.239
 3297TIP3    H2 9835   1.858   3.771   4.307
 3298TIP3   OH2 9836   7.507   0.949   2.914
 3298TIP3    H1 9837   7.430   0.897   2.936
 3298TIP3    H2 9838   7.577   0.914   2.970
 3299TIP3   OH2 9839   5.107   1.233   4.437
 3299TIP3    H1 9840   5.049   1.288   4.384
 3299TIP3    H2 9841   5.048   1.187   4.497
 3300TIP3   OH2 9842   3.466   1.884   4.275
 3300TIP3    H1 9843   3.462   1.792   4.301
 3300TIP3    H2 9844   3.533   1.922   4.332
 3301TIP3   OH2 9845   1.671   7.803   4.613
 3301TIP3    H1 9846   1.718   7.802   4.529
 3301TIP3    H2 9847   1.612   7.728   4.607
 3302TIP3   OH2 9848   7.739   5.637   2.998
 3302TIP3    H1 9849   7.797   5.601   2.930
 3302TIP3    H2 9850   7.725   5.728   2.972
 3303TIP3   OH2 9851   7.796   0.824   6.579
 3303TIP3    H1 9852   7.720   0.874   6.548
 3303TIP3    H2 9853   7.850   0.812   6.501
 3304TIP3   OH2 9854   1.900   2.455   5.754
 3304TIP3    H1 9855   1.909   2.438   5.848
 3304TIP3    H2 9856   1.808   2.436   5.735
 3305TIP3   OH2 9857   7.161   0.603   4.629
 3305TIP3    H1 9858   7.254   0.608   4.610
 3305TIP3    H2 9859   7.123   0.677   4.582
 3306TIP3   OH2 9860   0.958   1.716   6.211
 3306TIP3    H1 9861   0.923   1.804   6.225
 3306TIP3    H2 9862   1.020   1.703   6.283
 3307TIP3   OH2 9863   4.320   5.946   1.991
 3307TIP3    H1 9864   4.240   5.973   1.946
 3307TIP3    H2 9865   4.390   5.966   1.929
 3308TIP3   OH2 9866   4.727   7.104   1.307
 3308TIP3    H1 9867   4.668   7.129   1.378
 3308TIP3    H2 9868   4.711   7.169   1.238
 3309TIP3   OH2 9869   7.763   0.939   3.671
 3309TIP3    H1 9870   7.766   1.035   3.674
 3309TIP3    H2 9871   7.842   0.915   3.621
 3310TIP3   OH2 9872   7.371   1.001   3.967
 3310TIP3    H1 9873   7.322   1.082   3.978
 3310TIP3    H2 9874   7.352   0.974   3.877
 3311TIP3   OH2 9875   5.293   1.734   2.498
 3311TIP3    H1 9876   5.197   1.730   2.498
 3311TIP3    H2 9877   5.318   1.715   2.588
 3312TIP3   OH2 9878   7.665   4.707   2.434
 3312TIP3    H1 9879   7.593   4.686   2.493
 3312TIP3    H2 9880   7.662   4.803   2.426
 3313TIP3   OH2 9881   1.431   2.647   2.576
 3313TIP3    H1 9882   1.380   2.568   2.595
 3313TIP3    H2 9883   1.394   2.714   2.633
 3314TIP3   OH2 9884   1.062   2.266   4.436
 3314TIP3    H1 9885   1.074   2.282   4.343
 3314TIP3    H2 9886   0.980   2.216   4.441
 3315TIP3   OH2 9887   6.920   7.103   3.176
 3315TIP3    H1 9888   6.911   7.088   3.082
 3315TIP3    H2 9889   6.944   7.018   3.212
 3316TIP3   OH2 9890   7.226   7.118   4.712
 3316TIP3    H1 9891   7.191   7.041   4.667
 3316TIP3    H2 9892   7.320   7.117   4.692
 3317TIP3   OH2 9893   5.719   0.034   2.606
 3317TIP3    H1 9894   5.772   0.089   2.549
 3317TIP3    H2 9895   5.636   0.082   2.615
 3318TIP3   OH2 9896   5.049   1.608   3.114
 3318TIP3    H1 9897   5.136   1.627   3.150
 3318TIP3    H2 9898   5.039   1.670   3.042
 3319TIP3   OH2 9899   2.122   4.820   0.541
 3319TIP3    H1 9900   2.200   4.833   0.596
 3319TIP3    H2 9901   2.079   4.905   0.541
 3320TIP3   OH2 9902   2.815   6.769   5.760
 3320TIP3    H1 9903   2.898   6.744   5.801
 3320TIP3    H2 9904   2.818   6.865   5.758
 3321TIP3   OH2 9905   6.074   3.427   6.108
 3321TIP3    H1 9906   6.065   3.429   6.203
 3321TIP3    H2 9907   6.116   3.510   6.086
 3322TIP3   OH2 9908   4.787   4.220   6.574
 3322TIP3    H1 9909   4.791   4.194   6.482
 3322TIP3    H2 9910   4.694   4.238   6.590
 3323TIP3   OH2 9911   6.394   5.345   0.605
 3323TIP3    H1 9912   6.484   5.365   0.579
 3323TIP3    H2 9913   6.341   5.408   0.556
 3324TIP3   OH2 9914   6.458   0.546   1.062
 3324TIP3    H1 9915   6.486   0.637   1.069
 3324TIP3    H2 9916   6.445   0.532   0.968
 3325TIP3   OH2 9917   0.284   3.037   1.238
 3325TIP3    H1 9918   0.269   2.953   1.194
 3325TIP3    H2 9919   0.281   3.015   1.331
 3326TIP3   OH2 9920   2.128   6.394   3.032
 3326TIP3    H1 9921   2.190   6.449   3.079
 3326TIP3    H2 9922   2.161   6.304   3.045
 3327TIP3   OH2 9923   3.096   0.115   5.803
 3327TIP3    H1 9924   3.156   0.053   5.845
 3327TIP3    H2 9925   3.130   0.125   5.714
 3328TIP3   OH2 9926   2.171   7.142   5.460
 3328TIP3    H1 9927   2.169   7.162   5.367
 3328TIP3    H2 9928   2.190   7.048   5.464
 3329TIP3   OH2 9929   7.651   2.283   5.063
 3329TIP3    H1 9930   7.594   2.253   5.134
 3329TIP3    H2 9931   7.605   2.358   5.026
 3330TIP3   OH2 9932   4.153   0.775   2.637
 3330TIP3    H1 9933   4.127   0.686   2.617
 3330TIP3    H2 9934   4.247   0.778   2.616
 3331TIP3   OH2 9935   2.626   3.977   6.451
 3331TIP3    H1 9936   2.628   4.018   6.537
 3331TIP3    H2 9937   2.576   4.038   6.397
 3332TIP3   OH2 9938   5.113   6.015   4.104
 3332TIP3    H1 9939   5.207   5.999   4.107
 3332TIP3    H2 9940   5.082   5.965   4.028
 3333TIP3   OH2 9941   7.768   1.559   5.825
 3333TIP3    H1 9942   7.763   1.593   5.915
 3333TIP3    H2 9943   7.688   1.509   5.814
 3334TIP3   OH2 9944   0.326   2.271   2.358
 3334TIP3    H1 9945   0.371   2.212   2.298
 3334TIP3    H2 9946   0.325   2.355   2.313
 3335TIP3   OH2 9947   2.195   2.411   2.072
 3335TIP3    H1 9948   2.239   2.446   2.150
 3335TIP3    H2 9949   2.255   2.431   2.000
 3336TIP3   OH2 9950   6.069   5.797   2.888
 3336TIP3    H1 9951   5.986   5.749   2.889
 3336TIP3    H2 9952   6.122   5.751   2.822
 3337TIP3   OH2 9953   5.736   5.946   1.661
 3337TIP3    H1 9954   5.777   5.911   1.582
 3337TIP3    H2 9955   5.658   5.991   1.629
 3338TIP3   OH2 9956   2.742   7.123   1.041
 3338TIP3    H1 9957   2.783   7.041   1.015
 3338TIP3    H2 9958   2.802   7.191   1.009
 3339TIP3   OH2 9959   1.958   7.287   5.503
 3339TIP3    H1 9960   2.030   7.225   5.516
 3339TIP3    H2 9961   1.995   7.355   5.447
 3340TIP3   OH2 9962   6.651   5.944   5.948
 3340TIP3    H1 9963   6.568   5.943   5.996
 3340TIP3    H2 9964   6.714   5.982   6.010
 3341TIP3   OH2 9965   2.762   4.301   5.550
 3341TIP3    H1 9966   2.776   4.371   5.614
 3341TIP3    H2 9967   2.718   4.344   5.477
 3342TIP3   OH2 9968   7.563   2.039   5.529
 3342TIP3    H1 9969   7.521   2.018   5.612
 3342TIP3    H2 9970   7.505   2.000   5.463
 3343TIP3   OH2 9971   3.673   3.454   1.960
 3343TIP3    H1 9972   3.732   3.384   1.934
 3343TIP3    H2 9973   3.592   3.436   1.912
 3344TIP3   OH2 9974   4.957   7.762   0.714
 3344TIP3    H1 9975   4.861   7.763   0.712
 3344TIP3    H2 9976   4.980   7.826   0.781
 3345TIP3   OH2 9977   1.990   7.766   1.518
 3345TIP3    H1 9978   1.926   7.790   1.452
 3345TIP3    H2 9979   2.024   7.849   1.551
 3346TIP3   OH2 9980   5.952   5.252   1.377
 3346TIP3    H1 9981   6.026   5.277   1.321
 3346TIP3    H2 9982   5.877   5.301   1.342
 3347TIP3   OH2 9983   4.052   5.722   0.389
 3347TIP3    H1 9984   4.145   5.738   0.374
 3347TIP3    H2 9985   4.009   5.760   0.312
 3348TIP3   OH2 9986   8.210   4.058   3.787
 3348TIP3    H1 9987   8.281   4.068   3.724
 3348TIP3    H2 9988   8.217   4.134   3.845
 3349TIP3   OH2 9989   5.163   0.640   1.397
 3349TIP3    H1 9990   5.140   0.576   1.464
 3349TIP3    H2 9991   5.159   0.591   1.315
 3350TIP3   OH2 9992   1.845   3.994   4.852
 3350TIP3    H1 9993   1.924   4.000   4.798
 3350TIP3    H2 9994   1.813   4.084   4.859
 3351TIP3   OH2 9995   2.080   7.573   6.437
 3351TIP3    H1 9996   2.118   7.656   6.410
 3351TIP3    H2 9997   1.987   7.592   6.452
 3352TIP3   OH2 9998   3.470   5.686   4.260
 3352TIP3    H1 9999   3.565   5.678   4.254
 3352TIP3    H210000   3.454   5.780   4.267
 3353TIP3   OH210001   6.611   7.572   5.958
 3353TIP3    H110002   6.536   7.609   6.003
 3353TIP3    H210003   6.685   7.625   5.986
 3354TIP3   OH210004   1.700   5.055   1.106
 3354TIP3    H110005   1.623   5.111   1.117
 3354TIP3    H210006   1.673   4.989   1.042
 3355TIP3   OH210007   1.327   6.612   6.128
 3355TIP3    H110008   1.371   6.646   6.050
 3355TIP3    H210009   1.397   6.571   6.179
 3356TIP3   OH210010   6.564   5.644   1.259
 3356TIP3    H110011   6.627   5.611   1.195
 3356TIP3    H210012   6.606   5.629   1.344
 3357TIP3   OH210013   7.765   6.635   1.568
 3357TIP3    H110014   7.853   6.615   1.534
 3357TIP3    H210015   7.706   6.583   1.514
 3358TIP3   OH210016   0.711   4.725   2.576
 3358TIP3    H110017   0.748   4.798   2.626
 3358TIP3    H210018   0.626   4.758   2.546
 3359TIP3   OH210019   7.151   3.468  -0.023
 3359TIP3    H110020   7.060   3.468  -0.053
 3359TIP3    H210021   7.145   3.467   0.072
 3360TIP3   OH210022   6.371   0.462   4.083
 3360TIP3    H110023   6.297   0.403   4.073
 3360TIP3    H210024   6.390   0.492   3.994
 3361TIP3   OH210025   1.877   6.063   5.849
 3361TIP3    H110026   1.919   6.044   5.933
 3361TIP3    H210027   1.947   6.093   5.793
 3362TIP3   OH210028   5.807   7.729   1.861
 3362TIP3    H110029   5.853   7.681   1.931
 3362TIP3    H210030   5.731   7.767   1.905
 3363TIP3   OH210031   5.036   5.094   5.825
 3363TIP3    H110032   5.010   5.035   5.896
 3363TIP3    H210033   5.000   5.179   5.850
 3364TIP3   OH210034   0.243   7.790   1.884
 3364TIP3    H110035   0.297   7.757   1.956
 3364TIP3    H210036   0.235   7.716   1.824
 3365TIP3   OH210037   4.213   2.530   3.875
 3365TIP3    H110038   4.122   2.553   3.854
 3365TIP3    H210039   4.263   2.609   3.856
 3366TIP3   OH210040   5.149   5.736   6.009
 3366TIP3    H110041   5.152   5.664   5.945
 3366TIP3    H210042   5.188   5.699   6.089
 3367TIP3   OH210043   5.565   6.580   5.254
 3367TIP3    H110044   5.550   6.634   5.332
 3367TIP3    H210045   5.630   6.629   5.204
 3368TIP3   OH210046   4.017   4.177   3.638
 3368TIP3    H110047   3.990   4.269   3.641
 3368TIP3    H210048   4.077   4.168   3.712
 3369TIP3   OH210049   4.498   4.515   2.162
 3369TIP3    H110050   4.472   4.428   2.132
 3369TIP3    H210051   4.519   4.502   2.255
 3370TIP3   OH210052   3.103   6.774   4.131
 3370TIP3    H110053   3.040   6.780   4.060
 3370TIP3    H210054   3.072   6.702   4.185
 3371TIP3   OH210055   5.400   4.615   2.615
 3371TIP3    H110056   5.455   4.654   2.683
 3371TIP3    H210057   5.445   4.635   2.533
 3372TIP3   OH210058   2.203   5.905   3.556
 3372TIP3    H110059   2.200   5.831   3.494
 3372TIP3    H210060   2.178   5.866   3.640
 3373TIP3   OH210061   1.513   5.983   1.820
 3373TIP3    H110062   1.473   5.956   1.902
 3373TIP3    H210063   1.460   6.057   1.790
 3374TIP3   OH210064   3.258   2.917   3.848
 3374TIP3    H110065   3.330   2.857   3.832
 3374TIP3    H210066   3.299   2.999   3.874
 3375TIP3   OH210067   6.163   5.420   6.331
 3375TIP3    H110068   6.163   5.359   6.405
 3375TIP3    H210069   6.254   5.452   6.326
 3376TIP3   OH210070   6.385   4.315   1.980
 3376TIP3    H110071   6.428   4.302   1.895
 3376TIP3    H210072   6.348   4.229   2.000
 3377TIP3   OH210073   4.122   2.641   6.286
 3377TIP3    H110074   4.184   2.648   6.213
 3377TIP3    H210075   4.143   2.715   6.343
 3378TIP3   OH210076   5.364   7.833   3.597
 3378TIP3    H110077   5.358   7.738   3.603
 3378TIP3    H210078   5.274   7.864   3.609
 3379TIP3   OH210079   3.257   2.064   2.122
 3379TIP3    H110080   3.341   2.090   2.159
 3379TIP3    H210081   3.279   1.997   2.057
 3380TIP3   OH210082   8.214   5.119   0.625
 3380TIP3    H110083   8.165   5.189   0.668
 3380TIP3    H210084   8.155   5.087   0.557
 3381TIP3   OH210085   6.529   4.171   4.399
 3381TIP3    H110086   6.578   4.139   4.475
 3381TIP3    H210087   6.557   4.263   4.390
 3382TIP3   OH210088   5.105   4.417   2.943
 3382TIP3    H110089   5.106   4.433   2.849
 3382TIP3    H210090   5.029   4.467   2.975
 3383TIP3   OH210091   0.959   4.000   0.293
 3383TIP3    H110092   0.937   3.993   0.200
 3383TIP3    H210093   0.930   3.917   0.331
 3384TIP3   OH210094   0.057   1.203   0.879
 3384TIP3    H110095   0.081   1.218   0.787
 3384TIP3    H210096  -0.004   1.129   0.876
 3385TIP3   OH210097   1.311   7.386   5.569
 3385TIP3    H110098   1.339   7.432   5.490
 3385TIP3    H210099   1.223   7.420   5.586
 3386TIP3   OH210100   3.956   1.068   4.646
 3386TIP3    H110101   3.905   1.148   4.632
 3386TIP3    H210102   3.922   1.006   4.581
 3387TIP3   OH210103   7.774   1.332   4.346
 3387TIP3    H110104   7.752   1.416   4.306
 3387TIP3    H210105   7.796   1.275   4.272
 3388TIP3   OH210106   3.328   1.744   2.293
 3388TIP3    H110107   3.281   1.739   2.210
 3388TIP3    H210108   3.310   1.661   2.337
 3389TIP3   OH210109   5.579   0.774   2.928
 3389TIP3    H110110   5.523   0.814   2.995
 3389TIP3    H210111   5.586   0.841   2.860
 3390TIP3   OH210112   0.440   1.964   3.160
 3390TIP3    H110113   0.439   1.964   3.256
 3390TIP3    H210114   0.359   2.009   3.135
 3391TIP3   OH210115   3.454   7.850   5.152
 3391TIP3    H110116   3.429   7.783   5.088
 3391TIP3    H210117   3.426   7.933   5.114
 3392TIP3   OH210118   5.557   6.996   1.273
 3392TIP3    H110119   5.549   7.083   1.234
 3392TIP3    H210120   5.649   6.991   1.301
 3393TIP3   OH210121   8.182   6.063   6.627
 3393TIP3    H110122   8.094   6.066   6.589
 3393TIP3    H210123   8.241   6.084   6.554
 3394TIP3   OH210124   0.826   0.316   4.429
 3394TIP3    H110125   0.899   0.369   4.460
 3394TIP3    H210126   0.804   0.259   4.504
 3395TIP3   OH210127   5.189   3.436   3.146
 3395TIP3    H110128   5.264   3.483   3.181
 3395TIP3    H210129   5.147   3.498   3.087
 3396TIP3   OH210130   0.801   3.317   5.749
 3396TIP3    H110131   0.894   3.295   5.745
 3396TIP3    H210132   0.762   3.272   5.674
 3397TIP3   OH210133   7.127   4.968   2.064
 3397TIP3    H110134   7.134   4.975   2.159
 3397TIP3    H210135   7.059   5.030   2.040
 3398TIP3   OH210136   6.721   7.058   2.499
 3398TIP3    H110137   6.738   7.091   2.411
 3398TIP3    H210138   6.655   7.118   2.535
 3399TIP3   OH210139   2.116   5.277   3.849
 3399TIP3    H110140   2.164   5.194   3.847
 3399TIP3    H210141   2.038   5.261   3.796
 3400TIP3   OH210142   0.781   4.628   5.549
 3400TIP3    H110143   0.726   4.602   5.623
 3400TIP3    H210144   0.863   4.657   5.589
 3401TIP3   OH210145   4.925   4.988   5.452
 3401TIP3    H110146   5.000   4.935   5.423
 3401TIP3    H210147   4.883   5.016   5.370
 3402TIP3   OH210148   3.741   0.878   0.288
 3402TIP3    H110149   3.816   0.933   0.265
 3402TIP3    H210150   3.765   0.838   0.371
 3403TIP3   OH210151   1.119   1.405   5.519
 3403TIP3    H110152   1.198   1.367   5.557
 3403TIP3    H210153   1.089   1.467   5.586
 3404TIP3   OH210154   8.136   5.759   2.571
 3404TIP3    H110155   8.047   5.752   2.536
 3404TIP3    H210156   8.128   5.816   2.647
 3405TIP3   OH210157   5.813   6.652   5.114
 3405TIP3    H110158   5.825   6.704   5.035
 3405TIP3    H210159   5.846   6.565   5.090
 3406TIP3   OH210160   4.401   1.156   0.265
 3406TIP3    H110161   4.397   1.249   0.286
 3406TIP3    H210162   4.428   1.154   0.173
 3407TIP3   OH210163   4.786   3.523   5.721
 3407TIP3    H110164   4.843   3.456   5.684
 3407TIP3    H210165   4.835   3.558   5.796
 3408TIP3   OH210166   1.138   5.657   0.727
 3408TIP3    H110167   1.212   5.597   0.737
 3408TIP3    H210168   1.102   5.638   0.641
 3409TIP3   OH210169   4.530   6.726   1.834
 3409TIP3    H110170   4.517   6.686   1.748
 3409TIP3    H210171   4.613   6.690   1.865
 3410TIP3   OH210172   6.647   2.639   1.296
 3410TIP3    H110173   6.699   2.623   1.217
 3410TIP3    H210174   6.654   2.734   1.310
 3411TIP3   OH210175   5.939   4.211   3.982
 3411TIP3    H110176   5.868   4.202   4.046
 3411TIP3    H210177   5.905   4.271   3.916
 3412TIP3   OH210178   3.547   0.977   0.932
 3412TIP3    H110179   3.483   0.907   0.921
 3412TIP3    H210180   3.494   1.057   0.934
 3413TIP3   OH210181   2.872   7.043   3.707
 3413TIP3    H110182   2.891   6.960   3.663
 3413TIP3    H210183   2.777   7.041   3.722
 3414TIP3   OH210184   2.469   5.923   3.479
 3414TIP3    H110185   2.379   5.913   3.512
 3414TIP3    H210186   2.461   5.986   3.407
 3415TIP3   OH210187   1.238   1.742   6.634
 3415TIP3    H110188   1.304   1.712   6.697
 3415TIP3    H210189   1.289   1.779   6.562
 3416TIP3   OH210190   1.314   4.829   1.270
 3416TIP3    H110191   1.331   4.800   1.359
 3416TIP3    H210192   1.278   4.752   1.226
 3417TIP3   OH210193   0.846   0.603   4.785
 3417TIP3    H110194   0.754   0.626   4.776
 3417TIP3    H210195   0.888   0.642   4.708
 3418TIP3   OH210196   4.930   4.974   4.443
 3418TIP3    H110197   4.929   4.956   4.537
 3418TIP3    H210198   4.948   5.068   4.436
 3419TIP3   OH210199   0.713   7.257   0.393
 3419TIP3    H110200   0.798   7.215   0.395
 3419TIP3    H210201   0.680   7.250   0.483
 3420TIP3   OH210202   2.419   3.268   6.484
 3420TIP3    H110203   2.466   3.349   6.464
 3420TIP3    H210204   2.336   3.276   6.436
 3421TIP3   OH210205   0.854   5.585   5.099
 3421TIP3    H110206   0.948   5.594   5.081
 3421TIP3    H210207   0.848   5.583   5.195
 3422TIP3   OH210208   1.017   5.173   0.160
 3422TIP3    H110209   1.060   5.090   0.178
 3422TIP3    H210210   1.029   5.224   0.240
 3423TIP3   OH210211   5.077   3.693   5.560
 3423TIP3    H110212   5.108   3.629   5.624
 3423TIP3    H210213   5.008   3.646   5.512
 3424TIP3   OH210214   1.244   5.937   2.301
 3424TIP3    H110215   1.247   6.016   2.356
 3424TIP3    H210216   1.326   5.938   2.253
 3425TIP3   OH210217   0.401   7.821   3.593
 3425TIP3    H110218   0.442   7.899   3.556
 3425TIP3    H210219   0.369   7.772   3.517
 3426TIP3   OH210220   6.266   6.259   0.291
 3426TIP3    H110221   6.260   6.180   0.238
 3426TIP3    H210222   6.176   6.277   0.319
 3427TIP3   OH210223   2.221   1.670   2.227
 3427TIP3    H110224   2.172   1.713   2.298
 3427TIP3    H210225   2.296   1.631   2.271
 3428TIP3   OH210226   0.015   0.314   2.866
 3428TIP3    H110227  -0.041   0.288   2.939
 3428TIP3    H210228   0.011   0.410   2.866
 3429TIP3   OH210229   1.204   4.382   2.009
 3429TIP3    H110230   1.120   4.355   2.046
 3429TIP3    H210231   1.245   4.300   1.980
 3430TIP3   OH210232   4.381   3.197   5.925
 3430TIP3    H110233   4.296   3.157   5.944
 3430TIP3    H210234   4.361   3.267   5.863
 3431TIP3   OH210235   3.850   2.302   6.399
 3431TIP3    H110236   3.865   2.334   6.309
 3431TIP3    H210237   3.756   2.284   6.402
 3432TIP3   OH210238   2.250   4.291   6.167
 3432TIP3    H110239   2.189   4.363   6.184
 3432TIP3    H210240   2.197   4.226   6.122
 3433TIP3   OH210241   0.936   5.163   5.013
 3433TIP3    H110242   0.843   5.144   5.023
 3433TIP3    H210243   0.970   5.091   4.960
 3434TIP3   OH210244   7.902   2.097   5.809
 3434TIP3    H110245   7.998   2.100   5.811
 3434TIP3    H210246   7.880   2.086   5.717
 3435TIP3   OH210247   2.688   3.607   4.695
 3435TIP3    H110248   2.756   3.591   4.761
 3435TIP3    H210249   2.625   3.664   4.739
 3436TIP3   OH210250   5.300   6.491   3.943
 3436TIP3    H110251   5.325   6.501   3.851
 3436TIP3    H210252   5.210   6.459   3.941
 3437TIP3   OH210253   4.696   6.886   2.606
 3437TIP3    H110254   4.770   6.845   2.649
 3437TIP3    H210255   4.642   6.921   2.677
 3438TIP3   OH210256   2.518   1.035   1.577
 3438TIP3    H110257   2.563   1.092   1.514
 3438TIP3    H210258   2.556   0.949   1.562
 3439TIP3   OH210259   3.408  -0.020   4.713
 3439TIP3    H110260   3.380   0.003   4.624
 3439TIP3    H210261   3.332  -0.004   4.767
 3440TIP3   OH210262   8.289   7.676   2.218
 3440TIP3    H110263   8.223   7.623   2.174
 3440TIP3    H210264   8.250   7.762   2.227
 3441TIP3   OH210265   6.243   6.418   5.189
 3441TIP3    H110266   6.270   6.377   5.106
 3441TIP3    H210267   6.321   6.462   5.221
 3442TIP3   OH210268   2.409   1.576   5.590
 3442TIP3    H110269   2.383   1.631   5.664
 3442TIP3    H210270   2.451   1.636   5.529
 3443TIP3   OH210271   1.680   5.215   1.835
 3443TIP3    H110272   1.625   5.293   1.842
 3443TIP3    H210273   1.627   5.152   1.787
 3444TIP3   OH210274   2.026   1.797   1.187
 3444TIP3    H110275   2.122   1.805   1.183
 3444TIP3    H210276   2.005   1.732   1.120
 3445TIP3   OH210277   0.921   0.696   2.635
 3445TIP3    H110278   0.900   0.771   2.580
 3445TIP3    H210279   0.915   0.620   2.577
 3446TIP3   OH210280   7.624   0.975   6.410
 3446TIP3    H110281   7.531   0.955   6.427
 3446TIP3    H210282   7.644   0.926   6.330
 3447TIP3   OH210283   3.333   6.855   3.222
 3447TIP3    H110284   3.386   6.777   3.204
 3447TIP3    H210285   3.394   6.928   3.212
 3448TIP3   OH210286   6.373   0.233   5.688
 3448TIP3    H110287   6.298   0.235   5.629
 3448TIP3    H210288   6.406   0.323   5.688
 3449TIP3   OH210289   2.534   7.457   4.779
 3449TIP3    H110290   2.551   7.551   4.769
 3449TIP3    H210291   2.528   7.424   4.689
 3450TIP3   OH210292   1.252   0.613   2.404
 3450TIP3    H110293   1.212   0.660   2.330
 3450TIP3    H210294   1.211   0.527   2.403
 3451TIP3   OH210295   1.981   7.781   0.578
 3451TIP3    H110296   2.062   7.738   0.550
 3451TIP3    H210297   1.926   7.783   0.499
 3452TIP3   OH210298   1.902   2.052   4.112
 3452TIP3    H110299   1.935   2.137   4.142
 3452TIP3    H210300   1.875   2.067   4.022
 3453TIP3   OH210301   0.142   2.540   5.783
 3453TIP3    H110302   0.227   2.500   5.764
 3453TIP3    H210303   0.162   2.618   5.834
 3454TIP3   OH210304   3.273   7.167   4.694
 3454TIP3    H110305   3.238   7.132   4.612
 3454TIP3    H210306   3.354   7.211   4.669
 3455TIP3   OH210307   7.051   7.248   1.084
 3455TIP3    H110308   7.045   7.159   1.120
 3455TIP3    H210309   6.976   7.256   1.026
 3456TIP3   OH210310   2.658   2.569   5.593
 3456TIP3    H110311   2.736   2.612   5.627
 3456TIP3    H210312   2.649   2.490   5.646
 3457TIP3   OH210313   8.138   3.009   6.586
 3457TIP3    H110314   8.226   3.044   6.593
 3457TIP3    H210315   8.140   2.929   6.638
 3458TIP3   OH210316   3.708   2.547   0.216
 3458TIP3    H110317   3.687   2.496   0.138
 3458TIP3    H210318   3.782   2.502   0.255
 3459TIP3   OH210319   6.599   1.304   5.330
 3459TIP3    H110320   6.532   1.373   5.336
 3459TIP3    H210321   6.671   1.336   5.384
 3460TIP3   OH210322   1.087   6.754   6.524
 3460TIP3    H110323   1.104   6.797   6.441
 3460TIP3    H210324   1.156   6.689   6.533
 3461TIP3   OH210325   4.869   2.561   2.357
 3461TIP3    H110326   4.876   2.654   2.337
 3461TIP3    H210327   4.892   2.554   2.449
 3462TIP3   OH210328   8.029   2.856   4.450
 3462TIP3    H110329   7.934   2.850   4.440
 3462TIP3    H210330   8.045   2.833   4.542
 3463TIP3   OH210331   8.153   4.935   1.296
 3463TIP3    H110332   8.163   4.864   1.359
 3463TIP3    H210333   8.121   4.892   1.217
 3464TIP3   OH210334   5.713   1.090   0.547
 3464TIP3    H110335   5.746   1.114   0.634
 3464TIP3    H210336   5.705   0.994   0.550
 3465TIP3   OH210337   0.816   7.366   2.717
 3465TIP3    H110338   0.853   7.408   2.639
 3465TIP3    H210339   0.767   7.436   2.760
 3466TIP3   OH210340   0.542   6.178   4.488
 3466TIP3    H110341   0.550   6.104   4.428
 3466TIP3    H210342   0.495   6.245   4.437
 3467TIP3   OH210343   0.697   2.453   2.605
 3467TIP3    H110344   0.768   2.389   2.615
 3467TIP3    H210345   0.741   2.538   2.608
 3468TIP3   OH210346   5.332   3.131   2.887
 3468TIP3    H110347   5.253   3.182   2.872
 3468TIP3    H210348   5.337   3.120   2.982
 3469TIP3   OH210349   6.513   2.355   4.374
 3469TIP3    H110350   6.493   2.268   4.338
 3469TIP3    H210351   6.515   2.412   4.298
 3470TIP3   OH210352   1.754   0.860   3.157
 3470TIP3    H110353   1.710   0.856   3.242
 3470TIP3    H210354   1.739   0.950   3.127
 3471TIP3   OH210355   6.479   6.504   3.897
 3471TIP3    H110356   6.433   6.502   3.981
 3471TIP3    H210357   6.457   6.589   3.859
 3472TIP3   OH210358   7.993   0.979   5.517
 3472TIP3    H110359   7.980   0.965   5.610
 3472TIP3    H210360   8.085   0.958   5.501
 3473TIP3   OH210361   2.745   1.329   3.767
 3473TIP3    H110362   2.674   1.371   3.815
 3473TIP3    H210363   2.702   1.291   3.690
 3474TIP3   OH210364   2.236   0.596   2.219
 3474TIP3    H110365   2.153   0.643   2.220
 3474TIP3    H210366   2.288   0.638   2.288
 3475TIP3   OH210367   4.785   6.328   5.587
 3475TIP3    H110368   4.819   6.248   5.627
 3475TIP3    H210369   4.753   6.381   5.661
 3476TIP3   OH210370   1.961   3.442   5.998
 3476TIP3    H110371   1.904   3.375   6.036
 3476TIP3    H210372   2.014   3.396   5.934
 3477TIP3   OH210373   1.722   2.887   0.173
 3477TIP3    H110374   1.659   2.856   0.108
 3477TIP3    H210375   1.766   2.808   0.204
 3478TIP3   OH210376   7.357   0.612   6.150
 3478TIP3    H110377   7.275   0.659   6.132
 3478TIP3    H210378   7.408   0.672   6.205
 3479TIP3   OH210379   4.245   4.983   6.400
 3479TIP3    H110380   4.236   5.028   6.316
 3479TIP3    H210381   4.312   5.033   6.446
 3480TIP3   OH210382   0.643   7.246   4.087
 3480TIP3    H110383   0.588   7.265   4.011
 3480TIP3    H210384   0.733   7.254   4.054
 3481TIP3   OH210385   5.925   6.104   4.319
 3481TIP3    H110386   5.892   6.130   4.233
 3481TIP3    H210387   5.850   6.062   4.361
 3482TIP3   OH210388   6.602   0.902   0.585
 3482TIP3    H110389   6.519   0.943   0.608
 3482TIP3    H210390   6.663   0.975   0.577
 3483TIP3   OH210391   4.844   4.249   4.176
 3483TIP3    H110392   4.898   4.180   4.137
 3483TIP3    H210393   4.852   4.322   4.114
 3484TIP3   OH210394   5.034   5.944   1.324
 3484TIP3    H110395   4.949   5.904   1.346
 3484TIP3    H210396   5.091   5.870   1.307
 3485TIP3   OH210397   5.246   0.237   4.372
 3485TIP3    H110398   5.224   0.232   4.465
 3485TIP3    H210399   5.179   0.294   4.335
 3486TIP3   OH210400   4.242   7.272   4.048
 3486TIP3    H110401   4.283   7.260   4.134
 3486TIP3    H210402   4.209   7.362   4.050
 3487TIP3   OH210403   7.448   3.805   3.423
 3487TIP3    H110404   7.485   3.883   3.465
 3487TIP3    H210405   7.356   3.827   3.407
 3488TIP3   OH210406   7.758   5.815   4.988
 3488TIP3    H110407   7.733   5.803   4.897
 3488TIP3    H210408   7.691   5.872   5.025
 3489TIP3   OH210409   3.343  -0.028   2.886
 3489TIP3    H110410   3.355   0.026   2.808
 3489TIP3    H210411   3.432  -0.045   2.917
 3490TIP3   OH210412   1.666   1.818   5.699
 3490TIP3    H110413   1.693   1.883   5.635
 3490TIP3    H210414   1.744   1.806   5.754
 3491TIP3   OH210415   2.672   3.173   4.456
 3491TIP3    H110416   2.662   3.265   4.479
 3491TIP3    H210417   2.598   3.155   4.397
 3492TIP3   OH210418   7.305   0.825   3.621
 3492TIP3    H110419   7.220   0.863   3.643
 3492TIP3    H210420   7.362   0.900   3.606
 3493TIP3   OH210421   4.577   5.217   1.824
 3493TIP3    H110422   4.553   5.204   1.732
 3493TIP3    H210423   4.580   5.312   1.835
 3494TIP3   OH210424   5.926   1.634   0.586
 3494TIP3    H110425   5.900   1.544   0.566
 3494TIP3    H210426   6.022   1.631   0.584
 3495TIP3   OH210427   1.631   0.598   3.748
 3495TIP3    H110428   1.704   0.588   3.687
 3495TIP3    H210429   1.577   0.668   3.710
 3496TIP3   OH210430   0.638   5.177   5.092
 3496TIP3    H110431   0.636   5.175   5.187
 3496TIP3    H210432   0.630   5.270   5.070
 3497TIP3   OH210433   0.773   6.861   3.894
 3497TIP3    H110434   0.847   6.830   3.947
 3497TIP3    H210435   0.715   6.786   3.887
 3498TIP3   OH210436   6.490   2.063   6.633
 3498TIP3    H110437   6.494   2.072   6.538
 3498TIP3    H210438   6.536   2.140   6.667
 3499TIP3   OH210439   1.435   5.564   2.715
 3499TIP3    H110440   1.520   5.564   2.672
 3499TIP3    H210441   1.375   5.601   2.650
 3500TIP3   OH210442   1.407   3.821   6.455
 3500TIP3    H110443   1.491   3.775   6.456
 3500TIP3    H210444   1.366   3.797   6.372
 3501TIP3   OH210445   3.686   7.424   3.762
 3501TIP3    H110446   3.638   7.464   3.689
 3501TIP3    H210447   3.704   7.496   3.822
 3502TIP3   OH210448   4.488   6.302   3.802
 3502TIP3    H110449   4.553   6.351   3.752
 3502TIP3    H210450   4.541   6.251   3.865
 3503TIP3   OH210451   0.713   1.937   3.772
 3503TIP3    H110452   0.752   1.952   3.858
 3503TIP3    H210453   0.619   1.932   3.790
 3504TIP3   OH210454   1.327   0.164   1.942
 3504TIP3    H110455   1.412   0.206   1.956
 3504TIP3    H210456   1.281   0.225   1.884
 3505TIP3   OH210457   5.570   6.378   4.014
 3505TIP3    H110458   5.475   6.383   4.001
 3505TIP3    H210459   5.605   6.365   3.925
 3506TIP3   OH210460   6.311   4.976   2.997
 3506TIP3    H110461   6.258   4.989   3.076
 3506TIP3    H210462   6.269   4.903   2.952
 3507TIP3   OH210463   1.768   7.053   0.799
 3507TIP3    H110464   1.822   7.096   0.866
 3507TIP3    H210465   1.739   6.971   0.840
 3508TIP3   OH210466   4.345   3.143   5.095
 3508TIP3    H110467   4.408   3.107   5.033
 3508TIP3    H210468   4.299   3.067   5.130
 3509TIP3   OH210469   2.767   6.857   2.773
 3509TIP3    H110470   2.806   6.924   2.716
 3509TIP3    H210471   2.685   6.896   2.803
 3510TIP3   OH210472   8.310   1.815   3.459
 3510TIP3    H110473   8.253   1.850   3.391
 3510TIP3    H210474   8.327   1.725   3.432
 3511TIP3   OH210475   8.269   1.669   1.527
 3511TIP3    H110476   8.339   1.615   1.565
 3511TIP3    H210477   8.284   1.756   1.563
 3512TIP3   OH210478   3.633   5.579   6.254
 3512TIP3    H110479   3.541   5.554   6.250
 3512TIP3    H210480   3.649   5.623   6.170
 3513TIP3   OH210481   0.863   0.930   0.561
 3513TIP3    H110482   0.941   0.933   0.615
 3513TIP3    H210483   0.887   0.875   0.486
 3514TIP3   OH210484   1.073  -0.005   2.349
 3514TIP3    H110485   1.029  -0.004   2.264
 3514TIP3    H210486   1.030   0.063   2.400
 3515TIP3   OH210487   5.513   4.379   0.878
 3515TIP3    H110488   5.423   4.407   0.897
 3515TIP3    H210489   5.534   4.421   0.795
 3516TIP3   OH210490   4.327   6.018   5.474
 3516TIP3    H110491   4.391   6.055   5.413
 3516TIP3    H210492   4.366   5.935   5.503
 3517TIP3   OH210493   6.142   5.028   4.038
 3517TIP3    H110494   6.124   4.953   4.095
 3517TIP3    H210495   6.057   5.053   4.003
 3518TIP3   OH210496   6.160   5.088   5.227
 3518TIP3    H110497   6.135   5.139   5.150
 3518TIP3    H210498   6.225   5.026   5.195
 3519TIP3   OH210499   4.148   4.502   5.930
 3519TIP3    H110500   4.057   4.495   5.901
 3519TIP3    H210501   4.179   4.583   5.890
 3520TIP3   OH210502   5.827   2.683   0.832
 3520TIP3    H110503   5.781   2.602   0.811
 3520TIP3    H210504   5.769   2.752   0.803
 3521TIP3   OH210505   1.670   1.778   1.927
 3521TIP3    H110506   1.735   1.765   1.996
 3521TIP3    H210507   1.694   1.863   1.888
 3522TIP3   OH210508   5.143   3.882   1.584
 3522TIP3    H110509   5.156   3.929   1.666
 3522TIP3    H210510   5.165   3.945   1.515
 3523TIP3   OH210511   4.346   1.381   2.302
 3523TIP3    H110512   4.396   1.305   2.331
 3523TIP3    H210513   4.280   1.346   2.243
 3524TIP3   OH210514   5.988   0.806   2.577
 3524TIP3    H110515   6.080   0.798   2.601
 3524TIP3    H210516   5.974   0.740   2.510
 3525TIP3   OH210517   0.767   0.215   6.634
 3525TIP3    H110518   0.828   0.143   6.651
 3525TIP3    H210519   0.801   0.258   6.556
 3526TIP3   OH210520   7.781   0.659   2.598
 3526TIP3    H110521   7.807   0.612   2.519
 3526TIP3    H210522   7.863   0.687   2.638
 3527TIP3   OH210523   0.810   7.014   3.053
 3527TIP3    H110524   0.849   7.061   2.979
 3527TIP3    H210525   0.717   7.008   3.030
 3528TIP3   OH210526   1.685   3.566   1.868
 3528TIP3    H110527   1.685   3.584   1.963
 3528TIP3    H210528   1.766   3.518   1.853
 3529TIP3   OH210529   2.611   1.265   5.118
 3529TIP3    H110530   2.697   1.260   5.160
 3529TIP3    H210531   2.551   1.285   5.190
 3530TIP3   OH210532   2.618   0.210   2.539
 3530TIP3    H110533   2.627   0.281   2.475
 3530TIP3    H210534   2.547   0.239   2.597
 3531TIP3   OH210535   0.273   5.183   1.518
 3531TIP3    H110536   0.189   5.147   1.489
 3531TIP3    H210537   0.331   5.107   1.525
 3532TIP3   OH210538   7.143   1.456   4.363
 3532TIP3    H110539   7.061   1.493   4.396
 3532TIP3    H210540   7.211   1.515   4.396
 3533TIP3   OH210541   2.432   5.273   2.033
 3533TIP3    H110542   2.470   5.316   1.957
 3533TIP3    H210543   2.407   5.345   2.092
 3534TIP3   OH210544   1.411   5.644   1.052
 3534TIP3    H110545   1.411   5.720   0.994
 3534TIP3    H210546   1.339   5.589   1.020
 3535TIP3   OH210547   1.762   1.954   3.333
 3535TIP3    H110548   1.714   1.879   3.369
 3535TIP3    H210549   1.853   1.939   3.359
 3536TIP3   OH210550   1.986   0.282   1.020
 3536TIP3    H110551   1.934   0.362   1.012
 3536TIP3    H210552   1.927   0.213   0.990
 3537TIP3   OH210553   0.580   7.300   1.521
 3537TIP3    H110554   0.606   7.387   1.551
 3537TIP3    H210555   0.555   7.253   1.600
 3538TIP3   OH210556   2.946   6.448   3.902
 3538TIP3    H110557   2.997   6.495   3.836
 3538TIP3    H210558   2.861   6.431   3.860
 3539TIP3   OH210559   6.640   6.845   1.467
 3539TIP3    H110560   6.639   6.925   1.414
 3539TIP3    H210561   6.666   6.875   1.555
 3540TIP3   OH210562   6.424   4.263   6.520
 3540TIP3    H110563   6.395   4.340   6.472
 3540TIP3    H210564   6.394   4.278   6.610
 3541TIP3   OH210565   2.688   3.576   5.707
 3541TIP3    H110566   2.634   3.575   5.786
 3541TIP3    H210567   2.771   3.537   5.734
 3542TIP3   OH210568   7.463   1.139   0.287
 3542TIP3    H110569   7.429   1.103   0.206
 3542TIP3    H210570   7.550   1.172   0.265
 3543TIP3   OH210571   7.895   1.186   4.161
 3543TIP3    H110572   7.979   1.157   4.127
 3543TIP3    H210573   7.831   1.126   4.121
 3544TIP3   OH210574   3.370   6.993   5.148
 3544TIP3    H110575   3.370   7.031   5.060
 3544TIP3    H210576   3.289   7.025   5.188
 3545TIP3   OH210577   0.537   7.395   3.531
 3545TIP3    H110578   0.633   7.395   3.531
 3545TIP3    H210579   0.513   7.468   3.474
 3546TIP3   OH210580   4.002   2.413   1.660
 3546TIP3    H110581   3.995   2.505   1.687
 3546TIP3    H210582   3.926   2.399   1.604
 3547TIP3   OH210583   3.833   6.653   6.084
 3547TIP3    H110584   3.811   6.571   6.038
 3547TIP3    H210585   3.769   6.659   6.155
 3548TIP3   OH210586   4.505   0.449   1.158
 3548TIP3    H110587   4.412   0.453   1.136
 3548TIP3    H210588   4.548   0.423   1.076
 3549TIP3   OH210589   3.927   7.503   6.390
 3549TIP3    H110590   3.964   7.563   6.455
 3549TIP3    H210591   4.002   7.473   6.339
 3550TIP3   OH210592   1.705   1.222   5.121
 3550TIP3    H110593   1.771   1.201   5.055
 3550TIP3    H210594   1.643   1.279   5.076
 3551TIP3   OH210595   7.737   5.226   4.367
 3551TIP3    H110596   7.735   5.322   4.368
 3551TIP3    H210597   7.670   5.202   4.303
 3552TIP3   OH210598   5.451   3.441   6.587
 3552TIP3    H110599   5.526   3.486   6.627
 3552TIP3    H210600   5.376   3.498   6.605
 3553TIP3   OH210601   0.808   1.624   2.855
 3553TIP3    H110602   0.863   1.586   2.786
 3553TIP3    H210603   0.830   1.573   2.933
 3554TIP3   OH210604   7.525   1.654   0.561
 3554TIP3    H110605   7.514   1.688   0.472
 3554TIP3    H210606   7.586   1.581   0.552
 3555TIP3   OH210607   0.497   6.046   1.838
 3555TIP3    H110608   0.412   6.052   1.795
 3555TIP3    H210609   0.559   6.029   1.767
 3556TIP3   OH210610   0.732   4.987   5.831
 3556TIP3    H110611   0.773   5.064   5.871
 3556TIP3    H210612   0.638   5.004   5.838
 3557TIP3   OH210613   1.068   1.425   6.778
 3557TIP3    H110614   1.102   1.425   6.868
 3557TIP3    H210615   1.024   1.509   6.769
 3558TIP3   OH210616   2.081   7.652   5.953
 3558TIP3    H110617   2.080   7.559   5.929
 3558TIP3    H210618   2.000   7.663   6.004
 3559TIP3   OH210619   1.457   4.891   0.995
 3559TIP3    H110620   1.389   4.907   1.061
 3559TIP3    H210621   1.422   4.822   0.939
 3560TIP3   OH210622   4.844   5.567   2.353
 3560TIP3    H110623   4.787   5.496   2.323
 3560TIP3    H210624   4.800   5.647   2.324
 3561TIP3   OH210625   2.758   6.323   5.450
 3561TIP3    H110626   2.743   6.280   5.365
 3561TIP3    H210627   2.827   6.387   5.432
 3562TIP3   OH210628   4.220   0.140   5.429
 3562TIP3    H110629   4.172   0.219   5.407
 3562TIP3    H210630   4.183   0.111   5.512
 3563TIP3   OH210631   1.339   3.883   5.704
 3563TIP3    H110632   1.407   3.838   5.653
 3563TIP3    H210633   1.260   3.831   5.689
 3564TIP3   OH210634   4.284   5.853   5.974
 3564TIP3    H110635   4.376   5.858   5.948
 3564TIP3    H210636   4.240   5.920   5.920
 3565TIP3   OH210637   5.898   1.201   1.847
 3565TIP3    H110638   5.963   1.267   1.869
 3565TIP3    H210639   5.873   1.222   1.757
 3566TIP3   OH210640   0.725   4.611   6.548
 3566TIP3    H110641   0.645   4.568   6.517
 3566TIP3    H210642   0.740   4.573   6.634
 3567TIP3   OH210643   3.040   5.276   2.576
 3567TIP3    H110644   2.992   5.211   2.525
 3567TIP3    H210645   3.131   5.246   2.573
 3568TIP3   OH210646   4.828   4.226   2.770
 3568TIP3    H110647   4.737   4.199   2.785
 3568TIP3    H210648   4.821   4.316   2.739
 3569TIP3   OH210649   4.045   7.633   4.201
 3569TIP3    H110650   3.961   7.659   4.239
 3569TIP3    H210651   4.098   7.606   4.276
 3570TIP3   OH210652   7.571   2.441   0.316
 3570TIP3    H110653   7.523   2.469   0.393
 3570TIP3    H210654   7.511   2.381   0.271
 3571TIP3   OH210655   8.018   5.426   5.998
 3571TIP3    H110656   8.089   5.442   6.060
 3571TIP3    H210657   7.952   5.493   6.020
 3572TIP3   OH210658   5.851   3.276   5.000
 3572TIP3    H110659   5.883   3.190   4.976
 3572TIP3    H210660   5.757   3.272   4.982
 3573TIP3   OH210661   2.059   6.038   4.054
 3573TIP3    H110662   2.037   5.988   3.974
 3573TIP3    H210663   2.096   6.120   4.022
 3574TIP3   OH210664   1.310   2.659   6.138
 3574TIP3    H110665   1.313   2.574   6.094
 3574TIP3    H210666   1.281   2.721   6.071
 3575TIP3   OH210667   5.334   0.551   0.888
 3575TIP3    H110668   5.416   0.518   0.851
 3575TIP3    H210669   5.276   0.475   0.888
 3576TIP3   OH210670   5.152   6.561   6.688
 3576TIP3    H110671   5.145   6.651   6.720
 3576TIP3    H210672   5.186   6.512   6.762
 3577TIP3   OH210673   2.539   6.115   2.618
 3577TIP3    H110674   2.510   6.202   2.646
 3577TIP3    H210675   2.614   6.132   2.562
 3578TIP3   OH210676   0.891   5.391   2.885
 3578TIP3    H110677   0.848   5.463   2.838
 3578TIP3    H210678   0.950   5.433   2.946
 3579TIP3   OH210679   2.602   1.919   4.957
 3579TIP3    H110680   2.523   1.865   4.953
 3579TIP3    H210681   2.570   2.007   4.980
 3580TIP3   OH210682   3.892   1.669   1.770
 3580TIP3    H110683   3.864   1.662   1.679
 3580TIP3    H210684   3.981   1.703   1.766
 3581TIP3   OH210685   2.801   2.486   2.822
 3581TIP3    H110686   2.879   2.496   2.877
 3581TIP3    H210687   2.833   2.439   2.744
 3582TIP3   OH210688   5.829   1.803   1.821
 3582TIP3    H110689   5.748   1.765   1.789
 3582TIP3    H210690   5.810   1.896   1.831
 3583TIP3   OH210691   2.183   6.977   1.014
 3583TIP3    H110692   2.210   6.964   0.923
 3583TIP3    H210693   2.128   6.901   1.033
 3584TIP3   OH210694   1.419   5.344   5.490
 3584TIP3    H110695   1.327   5.353   5.514
 3584TIP3    H210696   1.464   5.328   5.573
 3585TIP3   OH210697   0.160   1.042   5.025
 3585TIP3    H110698   0.208   0.970   4.985
 3585TIP3    H210699   0.152   1.017   5.117
 3586TIP3   OH210700   3.076   1.840   0.854
 3586TIP3    H110701   3.171   1.852   0.861
 3586TIP3    H210702   3.059   1.841   0.760
 3587TIP3   OH210703   4.730   7.726   0.441
 3587TIP3    H110704   4.809   7.777   0.423
 3587TIP3    H210705   4.695   7.765   0.521
 3588TIP3   OH210706   4.383   4.554   2.443
 3588TIP3    H110707   4.320   4.534   2.374
 3588TIP3    H210708   4.332   4.597   2.511
 3589TIP3   OH210709   1.277   1.782   4.491
 3589TIP3    H110710   1.307   1.834   4.565
 3589TIP3    H210711   1.263   1.694   4.528
 3590TIP3   OH210712   4.496   6.405   0.730
 3590TIP3    H110713   4.533   6.369   0.811
 3590TIP3    H210714   4.489   6.499   0.747
 3591TIP3   OH210715   0.198   5.999   1.394
 3591TIP3    H110716   0.284   5.962   1.374
 3591TIP3    H210717   0.161   6.019   1.308
 3592TIP3   OH210718   8.383   7.154   2.317
 3592TIP3    H110719   8.294   7.160   2.353
 3592TIP3    H210720   8.374   7.183   2.226
 3593TIP3   OH210721   6.365   3.132   1.491
 3593TIP3    H110722   6.345   3.072   1.418
 3593TIP3    H210723   6.458   3.115   1.510
 3594TIP3   OH210724   5.565   5.434   5.783
 3594TIP3    H110725   5.577   5.461   5.692
 3594TIP3    H210726   5.649   5.454   5.825
 3595TIP3   OH210727   0.222   4.595   6.511
 3595TIP3    H110728   0.160   4.606   6.440
 3595TIP3    H210729   0.263   4.681   6.522
 3596TIP3   OH210730   3.246   3.082   4.395
 3596TIP3    H110731   3.152   3.088   4.379
 3596TIP3    H210732   3.277   3.018   4.331
 3597TIP3   OH210733   2.791   3.799   3.569
 3597TIP3    H110734   2.847   3.761   3.502
 3597TIP3    H210735   2.813   3.893   3.569
 3598TIP3   OH210736   2.994   7.859   0.581
 3598TIP3    H110737   3.031   7.777   0.548
 3598TIP3    H210738   2.986   7.845   0.676
 3599TIP3   OH210739   5.523   5.072   4.143
 3599TIP3    H110740   5.432   5.050   4.124
 3599TIP3    H210741   5.572   4.993   4.119
 3600TIP3   OH210742   3.456   4.768   2.432
 3600TIP3    H110743   3.491   4.790   2.518
 3600TIP3    H210744   3.479   4.842   2.376
 3601TIP3   OH210745   0.163   1.561   0.343
 3601TIP3    H110746   0.169   1.506   0.421
 3601TIP3    H210747   0.245   1.545   0.296
 3602TIP3   OH210748   0.233   3.549   3.992
 3602TIP3    H110749   0.234   3.480   4.059
 3602TIP3    H210750   0.243   3.502   3.909
 3603TIP3   OH210751   7.806   4.798   0.495
 3603TIP3    H110752   7.740   4.853   0.538
 3603TIP3    H210753   7.772   4.786   0.406
 3604TIP3   OH210754   1.285   2.382   5.619
 3604TIP3    H110755   1.254   2.364   5.708
 3604TIP3    H210756   1.371   2.423   5.631
 3605TIP3   OH210757   3.723   0.454   6.455
 3605TIP3    H110758   3.817   0.441   6.466
 3605TIP3    H210759   3.713   0.547   6.435
 3606TIP3   OH210760   8.024   6.961   2.525
 3606TIP3    H110761   8.062   7.025   2.465
 3606TIP3    H210762   7.962   6.912   2.471
 3607TIP3   OH210763   4.082   4.702   0.867
 3607TIP3    H110764   4.095   4.682   0.774
 3607TIP3    H210765   3.992   4.735   0.872
 3608TIP3   OH210766   6.932   6.543   4.399
 3608TIP3    H110767   6.955   6.516   4.310
 3608TIP3    H210768   7.009   6.589   4.431
 3609TIP3   OH210769   1.797   0.082   2.947
 3609TIP3    H110770   1.705   0.080   2.920
 3609TIP3    H210771   1.797   0.131   3.029
 3610TIP3   OH210772   2.557   2.578   4.412
 3610TIP3    H110773   2.571   2.536   4.327
 3610TIP3    H210774   2.597   2.518   4.475
 3611TIP3   OH210775   6.717   5.767   0.361
 3611TIP3    H110776   6.811   5.749   0.367
 3611TIP3    H210777   6.688   5.777   0.452
 3612TIP3   OH210778   6.783   1.194   0.322
 3612TIP3    H110779   6.777   1.100   0.342
 3612TIP3    H210780   6.837   1.230   0.392
 3613TIP3   OH210781   8.100   2.659   4.262
 3613TIP3    H110782   8.085   2.701   4.347
 3613TIP3    H210783   8.039   2.703   4.203
 3614TIP3   OH210784   6.485   0.302   1.664
 3614TIP3    H110785   6.559   0.278   1.608
 3614TIP3    H210786   6.486   0.237   1.734
 3615TIP3   OH210787   4.909   3.131   6.296
 3615TIP3    H110788   4.922   3.226   6.297
 3615TIP3    H210789   4.829   3.119   6.246
 3616TIP3   OH210790   1.687   4.947   4.610
 3616TIP3    H110791   1.680   5.009   4.683
 3616TIP3    H210792   1.774   4.962   4.574
 3617TIP3   OH210793   4.749   1.875   2.435
 3617TIP3    H110794   4.759   1.966   2.463
 3617TIP3    H210795   4.666   1.873   2.388
 3618TIP3   OH210796   7.430   2.784   4.188
 3618TIP3    H110797   7.428   2.761   4.096
 3618TIP3    H210798   7.450   2.878   4.190
 3619TIP3   OH210799   4.891   7.493   0.120
 3619TIP3    H110800   4.927   7.568   0.071
 3619TIP3    H210801   4.919   7.507   0.210
 3620TIP3   OH210802   6.675   6.096   0.926
 3620TIP3    H110803   6.683   6.190   0.940
 3620TIP3    H210804   6.715   6.056   1.003
 3621TIP3   OH210805   4.722   2.814   4.432
 3621TIP3    H110806   4.706   2.891   4.487
 3621TIP3    H210807   4.705   2.739   4.490
 3622TIP3   OH210808   0.301   5.243   3.411
 3622TIP3    H110809   0.354   5.201   3.478
 3622TIP3    H210810   0.307   5.337   3.430
 3623TIP3   OH210811   1.246   4.637   3.341
 3623TIP3    H110812   1.326   4.588   3.322
 3623TIP3    H210813   1.217   4.670   3.255
 3624TIP3   OH210814   4.385   5.546   5.153
 3624TIP3    H110815   4.418   5.470   5.105
 3624TIP3    H210816   4.290   5.538   5.147
 3625TIP3   OH210817   5.601   7.615   3.879
 3625TIP3    H110818   5.512   7.596   3.910
 3625TIP3    H210819   5.632   7.686   3.935
 3626TIP3   OH210820   3.236   1.672   2.054
 3626TIP3    H110821   3.247   1.718   1.970
 3626TIP3    H210822   3.164   1.610   2.038
 3627TIP3   OH210823   5.810   3.238   1.990
 3627TIP3    H110824   5.837   3.264   1.902
 3627TIP3    H210825   5.803   3.143   1.985
 3628TIP3   OH210826   1.859   1.722   2.284
 3628TIP3    H110827   1.883   1.699   2.374
 3628TIP3    H210828   1.852   1.818   2.284
 3629TIP3   OH210829   6.311   3.773   0.845
 3629TIP3    H110830   6.278   3.778   0.934
 3629TIP3    H210831   6.239   3.803   0.790
 3630TIP3   OH210832   3.050   5.231   5.827
 3630TIP3    H110833   3.089   5.312   5.791
 3630TIP3    H210834   2.963   5.228   5.789
 3631TIP3   OH210835   0.541   0.480   0.094
 3631TIP3    H110836   0.526   0.550   0.030
 3631TIP3    H210837   0.455   0.465   0.133
 3632TIP3   OH210838   6.842   7.776   2.499
 3632TIP3    H110839   6.802   7.729   2.572
 3632TIP3    H210840   6.769   7.805   2.445
 3633TIP3   OH210841   6.639   3.170   6.187
 3633TIP3    H110842   6.590   3.128   6.117
 3633TIP3    H210843   6.607   3.260   6.188
 3634TIP3   OH210844   0.039   3.209   2.117
 3634TIP3    H110845   0.110   3.187   2.057
 3634TIP3    H210846   0.070   3.180   2.203
 3635TIP3   OH210847   4.098   6.777   2.288
 3635TIP3    H110848   4.098   6.854   2.346
 3635TIP3    H210849   4.157   6.715   2.330
 3636TIP3   OH210850   3.790   2.822   1.817
 3636TIP3    H110851   3.725   2.752   1.813
 3636TIP3    H210852   3.772   2.867   1.899
 3637TIP3   OH210853   7.147   2.577   1.134
 3637TIP3    H110854   7.106   2.555   1.217
 3637TIP3    H210855   7.225   2.628   1.158
 3638TIP3   OH210856   5.451   2.959   5.232
 3638TIP3    H110857   5.359   2.955   5.257
 3638TIP3    H210858   5.489   2.877   5.263
 3639TIP3   OH210859   4.544   3.128   2.177
 3639TIP3    H110860   4.463   3.134   2.126
 3639TIP3    H210861   4.590   3.209   2.158
 3640TIP3   OH210862   0.359   2.524   0.642
 3640TIP3    H110863   0.340   2.496   0.553
 3640TIP3    H210864   0.426   2.463   0.673
 3641TIP3   OH210865   2.032   4.272   1.431
 3641TIP3    H110866   2.013   4.220   1.353
 3641TIP3    H210867   2.125   4.259   1.446
 3642TIP3   OH210868   7.342   2.845   3.904
 3642TIP3    H110869   7.247   2.842   3.920
 3642TIP3    H210870   7.354   2.919   3.845
 3643TIP3   OH210871   3.242   6.577   2.660
 3643TIP3    H110872   3.150   6.595   2.644
 3643TIP3    H210873   3.246   6.483   2.678
 3644TIP3   OH210874   4.871   1.315   0.629
 3644TIP3    H110875   4.850   1.368   0.705
 3644TIP3    H210876   4.955   1.274   0.651
 3645TIP3   OH210877   7.316   5.991   4.516
 3645TIP3    H110878   7.393   6.048   4.513
 3645TIP3    H210879   7.252   6.039   4.569
 3646TIP3   OH210880   1.164   3.572   4.968
 3646TIP3    H110881   1.241   3.553   4.914
 3646TIP3    H210882   1.175   3.663   4.994
 3647TIP3   OH210883   7.938   4.368   6.215
 3647TIP3    H110884   7.860   4.345   6.264
 3647TIP3    H210885   8.011   4.330   6.264
 3648TIP3   OH210886   7.387   3.108   3.789
 3648TIP3    H110887   7.444   3.109   3.866
 3648TIP3    H210888   7.418   3.181   3.736
 3649TIP3   OH210889   7.624   4.173   1.628
 3649TIP3    H110890   7.653   4.084   1.644
 3649TIP3    H210891   7.648   4.221   1.707
 3650TIP3   OH210892   7.682   0.156   2.675
 3650TIP3    H110893   7.670   0.249   2.694
 3650TIP3    H210894   7.619   0.112   2.732
 3651TIP3   OH210895   5.890   1.630   4.376
 3651TIP3    H110896   5.945   1.567   4.328
 3651TIP3    H210897   5.953   1.684   4.424
 3652TIP3   OH210898   4.082   2.381   1.132
 3652TIP3    H110899   4.149   2.312   1.133
 3652TIP3    H210900   4.099   2.431   1.211
 3653TIP3   OH210901   7.473   5.484   0.077
 3653TIP3    H110902   7.453   5.538   0.154
 3653TIP3    H210903   7.388   5.469   0.036
 3654TIP3   OH210904   0.852   0.878   2.957
 3654TIP3    H110905   0.853   0.787   2.985
 3654TIP3    H210906   0.870   0.928   3.036
 3655TIP3   OH210907   1.667   0.722   0.809
 3655TIP3    H110908   1.737   0.788   0.808
 3655TIP3    H210909   1.592   0.766   0.768
 3656TIP3   OH210910   7.341   3.850   6.756
 3656TIP3    H110911   7.282   3.914   6.796
 3656TIP3    H210912   7.284   3.794   6.703
 3657TIP3   OH210913   4.138   5.783   1.752
 3657TIP3    H110914   4.212   5.843   1.743
 3657TIP3    H210915   4.152   5.717   1.684
 3658TIP3   OH210916   3.279   2.503   4.474
 3658TIP3    H110917   3.282   2.599   4.479
 3658TIP3    H210918   3.188   2.481   4.495
 3659TIP3   OH210919   4.818   4.820   4.269
 3659TIP3    H110920   4.862   4.880   4.329
 3659TIP3    H210921   4.812   4.737   4.318
 3660TIP3   OH210922   7.691   1.583   3.489
 3660TIP3    H110923   7.753   1.613   3.555
 3660TIP3    H210924   7.726   1.500   3.459
 3661TIP3   OH210925   6.783   6.554   1.172
 3661TIP3    H110926   6.700   6.599   1.157
 3661TIP3    H210927   6.763   6.461   1.160
 3662TIP3   OH210928   1.972   6.894   2.092
 3662TIP3    H110929   2.021   6.976   2.102
 3662TIP3    H210930   1.891   6.909   2.142
 3663TIP3   OH210931   6.705   4.970   2.330
 3663TIP3    H110932   6.740   4.912   2.263
 3663TIP3    H210933   6.711   5.057   2.292
 3664TIP3   OH210934   7.624   6.775   1.266
 3664TIP3    H110935   7.602   6.725   1.344
 3664TIP3    H210936   7.620   6.866   1.293
 3665TIP3   OH210937   3.479   5.551   1.704
 3665TIP3    H110938   3.388   5.567   1.679
 3665TIP3    H210939   3.496   5.613   1.775
 3666TIP3   OH210940   2.212   5.506   4.477
 3666TIP3    H110941   2.262   5.587   4.487
 3666TIP3    H210942   2.121   5.533   4.490
 3667TIP3   OH210943   1.422   4.794   1.826
 3667TIP3    H110944   1.481   4.721   1.810
 3667TIP3    H210945   1.334   4.757   1.816
 3668TIP3   OH210946   7.119   5.720   2.529
 3668TIP3    H110947   7.190   5.688   2.474
 3668TIP3    H210948   7.092   5.644   2.580
 3669TIP3   OH210949   2.622   4.065   3.426
 3669TIP3    H110950   2.531   4.096   3.429
 3669TIP3    H210951   2.626   4.010   3.348
 3670TIP3   OH210952   5.268   0.516   5.717
 3670TIP3    H110953   5.323   0.451   5.674
 3670TIP3    H210954   5.183   0.474   5.728
 3671TIP3   OH210955   7.344   3.414   5.588
 3671TIP3    H110956   7.392   3.475   5.532
 3671TIP3    H210957   7.368   3.440   5.677
 3672TIP3   OH210958   4.087   7.747   5.391
 3672TIP3    H110959   4.137   7.827   5.376
 3672TIP3    H210960   4.045   7.761   5.476
 3673TIP3   OH210961   4.662   5.541   5.058
 3673TIP3    H110962   4.671   5.606   5.128
 3673TIP3    H210963   4.715   5.467   5.087
 3674TIP3   OH210964   7.556   7.400   0.528
 3674TIP3    H110965   7.625   7.461   0.554
 3674TIP3    H210966   7.603   7.325   0.491
 3675TIP3   OH210967   4.559   4.203   5.320
 3675TIP3    H110968   4.534   4.246   5.402
 3675TIP3    H210969   4.608   4.271   5.273
 3676TIP3   OH210970   4.952   1.971   3.966
 3676TIP3    H110971   5.015   2.023   3.917
 3676TIP3    H210972   4.868   2.015   3.953
 3677TIP3   OH210973   7.223   3.492   2.780
 3677TIP3    H110974   7.128   3.503   2.768
 3677TIP3    H210975   7.255   3.461   2.696
 3678TIP3   OH210976   1.079   7.685   1.533
 3678TIP3    H110977   1.004   7.664   1.589
 3678TIP3    H210978   1.148   7.712   1.594
 3679TIP3   OH210979   4.143   7.115   5.728
 3679TIP3    H110980   4.170   7.047   5.666
 3679TIP3    H210981   4.061   7.149   5.692
 3680TIP3   OH210982   2.731   6.234   5.158
 3680TIP3    H110983   2.722   6.147   5.119
 3680TIP3    H210984   2.810   6.271   5.119
 3681TIP3   OH210985   6.354   0.838   2.755
 3681TIP3    H110986   6.349   0.795   2.669
 3681TIP3    H210987   6.295   0.788   2.810
 3682TIP3   OH210988   6.183   2.414   6.580
 3682TIP3    H110989   6.142   2.362   6.649
 3682TIP3    H210990   6.203   2.351   6.512
 3683TIP3   OH210991   6.005   0.144   3.900
 3683TIP3    H110992   6.075   0.173   3.841
 3683TIP3    H210993   5.924   0.178   3.861
 3684TIP3   OH210994   4.877   0.148   4.318
 3684TIP3    H110995   4.847   0.217   4.377
 3684TIP3    H210996   4.923   0.086   4.374
 3685TIP3   OH210997   5.492   2.353   2.065
 3685TIP3    H110998   5.437   2.348   1.986
 3685TIP3    H210999   5.433   2.383   2.134
 3686TIP3   OH211000   4.317   3.436   0.804
 3686TIP3    H111001   4.276   3.427   0.718
 3686TIP3    H211002   4.406   3.403   0.792
 3687TIP3   OH211003   5.897   5.514   1.587
 3687TIP3    H111004   5.931   5.429   1.613
 3687TIP3    H211005   5.872   5.557   1.669
 3688TIP3   OH211006   1.580   5.055   6.192
 3688TIP3    H111007   1.646   5.117   6.225
 3688TIP3    H211008   1.606   4.970   6.229
 3689TIP3   OH211009   7.513   6.325   3.287
 3689TIP3    H111010   7.601   6.288   3.281
 3689TIP3    H211011   7.456   6.250   3.305
 3690TIP3   OH211012   0.250   4.593   1.705
 3690TIP3    H111013   0.208   4.653   1.643
 3690TIP3    H211014   0.326   4.560   1.659
 3691TIP3   OH211015   5.215   2.016   1.529
 3691TIP3    H111016   5.161   2.054   1.459
 3691TIP3    H211017   5.297   1.991   1.487
 3692TIP3   OH211018   1.537   1.026   1.994
 3692TIP3    H111019   1.491   0.948   2.024
 3692TIP3    H211020   1.487   1.056   1.918
 3693TIP3   OH211021   1.257   3.240   5.166
 3693TIP3    H111022   1.257   3.152   5.205
 3693TIP3    H211023   1.281   3.225   5.074
 3694TIP3   OH211024   3.345   5.943   0.441
 3694TIP3    H111025   3.281   5.961   0.373
 3694TIP3    H211026   3.357   6.027   0.486
 3695TIP3   OH211027   2.539   3.720   2.546
 3695TIP3    H111028   2.461   3.670   2.571
 3695TIP3    H211029   2.560   3.689   2.458
 3696TIP3   OH211030   0.909   6.547   1.469
 3696TIP3    H111031   0.982   6.521   1.526
 3696TIP3    H211032   0.884   6.467   1.423
 3697TIP3   OH211033   2.064   0.076   0.230
 3697TIP3    H111034   2.084   0.115   0.315
 3697TIP3    H211035   2.134   0.013   0.216
 3698TIP3   OH211036   3.969   3.876   0.669
 3698TIP3    H111037   3.971   3.807   0.602
 3698TIP3    H211038   3.916   3.839   0.739
 3699TIP3   OH211039   3.070   2.537   1.095
 3699TIP3    H111040   3.046   2.565   1.006
 3699TIP3    H211041   3.164   2.521   1.091
 3700TIP3   OH211042   6.392   7.415   2.178
 3700TIP3    H111043   6.477   7.386   2.214
 3700TIP3    H211044   6.329   7.352   2.213
 3701TIP3   OH211045   7.251   5.819   0.872
 3701TIP3    H111046   7.171   5.846   0.827
 3701TIP3    H211047   7.247   5.861   0.957
 3702TIP3   OH211048   1.127   6.177   3.520
 3702TIP3    H111049   1.116   6.192   3.614
 3702TIP3    H211050   1.043   6.143   3.492
 3703TIP3   OH211051   6.424   2.931   2.428
 3703TIP3    H111052   6.334   2.903   2.411
 3703TIP3    H211053   6.416   3.004   2.489
 3704TIP3   OH211054   1.656   7.262   5.396
 3704TIP3    H111055   1.647   7.322   5.470
 3704TIP3    H211056   1.619   7.309   5.321
 3705TIP3   OH211057   4.975   4.435   0.806
 3705TIP3    H111058   4.930   4.431   0.890
 3705TIP3    H211059   4.918   4.386   0.746
 3706TIP3   OH211060   0.207   3.368   5.869
 3706TIP3    H111061   0.259   3.442   5.901
 3706TIP3    H211062   0.260   3.329   5.800
 3707TIP3   OH211063   0.595   2.482   6.324
 3707TIP3    H111064   0.553   2.441   6.249
 3707TIP3    H211065   0.612   2.411   6.385
 3708TIP3   OH211066   0.138   0.199   6.334
 3708TIP3    H111067   0.198   0.270   6.312
 3708TIP3    H211068   0.129   0.204   6.429
 3709TIP3   OH211069   1.825   2.793   6.090
 3709TIP3    H111070   1.750   2.757   6.042
 3709TIP3    H211071   1.892   2.724   6.084
 3710TIP3   OH211072   8.224   4.226   4.886
 3710TIP3    H111073   8.295   4.236   4.949
 3710TIP3    H211074   8.226   4.134   4.861
 3711TIP3   OH211075   0.265   2.218   5.149
 3711TIP3    H111076   0.342   2.185   5.103
 3711TIP3    H211077   0.287   2.212   5.242
 3712TIP3   OH211078   2.586   7.051   0.363
 3712TIP3    H111079   2.636   7.123   0.401
 3712TIP3    H211080   2.603   7.056   0.269
 3713TIP3   OH211081   0.519   2.817   3.069
 3713TIP3    H111082   0.601   2.860   3.046
 3713TIP3    H211083   0.478   2.796   2.985
 3714TIP3   OH211084   1.017   1.917   5.001
 3714TIP3    H111085   1.033   1.917   5.095
 3714TIP3    H211086   0.943   1.858   4.988
 3715TIP3   OH211087   6.458   3.096   3.451
 3715TIP3    H111088   6.548   3.102   3.419
 3715TIP3    H211089   6.454   3.158   3.523
 3716TIP3   OH211090   6.253   0.178   1.315
 3716TIP3    H111091   6.249   0.134   1.400
 3716TIP3    H211092   6.312   0.253   1.330
 3717TIP3   OH211093   2.312   4.343   5.212
 3717TIP3    H111094   2.351   4.389   5.286
 3717TIP3    H211095   2.355   4.380   5.135
 3718TIP3   OH211096   0.160   0.279   3.408
 3718TIP3    H111097   0.155   0.344   3.338
 3718TIP3    H211098   0.078   0.231   3.402
 3719TIP3   OH211099   6.296   0.107   6.487
 3719TIP3    H111100   6.385   0.074   6.479
 3719TIP3    H211101   6.297   0.191   6.441
 3720TIP3   OH211102   3.892   3.904   1.580
 3720TIP3    H111103   3.890   3.983   1.526
 3720TIP3    H211104   3.907   3.936   1.669
 3721TIP3   OH211105   3.925   7.115   6.224
 3721TIP3    H111106   3.964   7.028   6.235
 3721TIP3    H211107   3.840   7.097   6.182
 3722TIP3   OH211108   5.342   5.941   3.459
 3722TIP3    H111109   5.254   5.917   3.489
 3722TIP3    H211110   5.326   6.002   3.387
 3723TIP3   OH211111   2.061   3.532   0.251
 3723TIP3    H111112   1.994   3.464   0.240
 3723TIP3    H211113   2.012   3.608   0.282
 3724TIP3   OH211114   5.985   3.463   4.367
 3724TIP3    H111115   5.961   3.532   4.429
 3724TIP3    H211116   6.007   3.510   4.287
 3725TIP3   OH211117   2.831   4.772   0.419
 3725TIP3    H111118   2.823   4.723   0.501
 3725TIP3    H211119   2.762   4.839   0.425
 3726TIP3   OH211120   1.491   1.176   6.319
 3726TIP3    H111121   1.425   1.117   6.356
 3726TIP3    H211122   1.495   1.152   6.227
 3727TIP3   OH211123   4.100   5.525   5.130
 3727TIP3    H111124   4.051   5.449   5.160
 3727TIP3    H211125   4.035   5.578   5.082
 3728TIP3   OH211126   2.210   6.078   1.785
 3728TIP3    H111127   2.150   6.090   1.859
 3728TIP3    H211128   2.216   5.983   1.775
 3729TIP3   OH211129   6.700   2.670   4.756
 3729TIP3    H111130   6.781   2.672   4.705
 3729TIP3    H211131   6.642   2.613   4.705
 3730TIP3   OH211132   5.516   4.269   4.738
 3730TIP3    H111133   5.492   4.183   4.705
 3730TIP3    H211134   5.500   4.265   4.832
 3731TIP3   OH211135   0.054   4.899   1.813
 3731TIP3    H111136   0.094   4.899   1.900
 3731TIP3    H211137  -0.004   4.975   1.814
 3732TIP3   OH211138   6.094   2.301   2.246
 3732TIP3    H111139   6.075   2.385   2.203
 3732TIP3    H211140   6.078   2.318   2.339
 3733TIP3   OH211141   3.618   1.920   2.771
 3733TIP3    H111142   3.560   1.981   2.817
 3733TIP3    H211143   3.559   1.854   2.735
 3734TIP3   OH211144   7.913   7.535   3.262
 3734TIP3    H111145   7.866   7.541   3.344
 3734TIP3    H211146   7.999   7.574   3.280
 3735TIP3   OH211147   5.487   2.032   5.312
 3735TIP3    H111148   5.422   1.996   5.251
 3735TIP3    H211149   5.476   1.979   5.391
 3736TIP3   OH211150   2.247   6.297   3.323
 3736TIP3    H111151   2.195   6.358   3.375
 3736TIP3    H211152   2.295   6.352   3.262
 3737TIP3   OH211153   7.651   5.889   3.452
 3737TIP3    H111154   7.653   5.810   3.506
 3737TIP3    H211155   7.695   5.864   3.371
 3738TIP3   OH211156   5.099   3.276   0.563
 3738TIP3    H111157   5.130   3.222   0.490
 3738TIP3    H211158   5.164   3.347   0.569
 3739TIP3   OH211159   2.205   4.835   6.558
 3739TIP3    H111160   2.254   4.753   6.570
 3739TIP3    H211161   2.209   4.852   6.464
 3740TIP3   OH211162   1.125   7.691   2.703
 3740TIP3    H111163   1.163   7.779   2.704
 3740TIP3    H211164   1.106   7.673   2.795
 3741TIP3   OH211165   2.649   0.140   6.514
 3741TIP3    H111166   2.633   0.220   6.464
 3741TIP3    H211167   2.562   0.116   6.548
 3742TIP3   OH211168   3.557   5.246   3.283
 3742TIP3    H111169   3.489   5.198   3.235
 3742TIP3    H211170   3.512   5.280   3.360
 3743TIP3   OH211171   3.462   7.240   4.507
 3743TIP3    H111172   3.546   7.253   4.463
 3743TIP3    H211173   3.424   7.163   4.466
 3744TIP3   OH211174   8.135   5.286   1.245
 3744TIP3    H111175   8.147   5.212   1.303
 3744TIP3    H211176   8.101   5.248   1.164
 3745TIP3   OH211177   4.374   0.511   0.736
 3745TIP3    H111178   4.347   0.597   0.702
 3745TIP3    H211179   4.462   0.498   0.700
 3746TIP3   OH211180   6.042   4.394   2.521
 3746TIP3    H111181   6.054   4.385   2.426
 3746TIP3    H211182   5.949   4.377   2.535
 3747TIP3   OH211183   2.445   7.529   0.724
 3747TIP3    H111184   2.524   7.505   0.772
 3747TIP3    H211185   2.381   7.463   0.750
 3748TIP3   OH211186   1.237   1.469   0.344
 3748TIP3    H111187   1.295   1.538   0.376
 3748TIP3    H211188   1.290   1.423   0.279
 3749TIP3   OH211189   7.573   2.412   0.905
 3749TIP3    H111190   7.559   2.504   0.929
 3749TIP3    H211191   7.489   2.383   0.869
 3750TIP3   OH211192   3.742   6.821   1.417
 3750TIP3    H111193   3.759   6.876   1.493
 3750TIP3    H211194   3.826   6.815   1.372
 3751TIP3   OH211195   6.922   5.087   5.996
 3751TIP3    H111196   6.975   5.158   6.033
 3751TIP3    H211197   6.862   5.131   5.935
 3752TIP3   OH211198   3.022   5.556   2.616
 3752TIP3    H111199   3.023   5.478   2.561
 3752TIP3    H211200   3.115   5.575   2.632
 3753TIP3   OH211201   8.227   1.256   5.693
 3753TIP3    H111202   8.138   1.241   5.727
 3753TIP3    H211203   8.213   1.276   5.600
 3754TIP3   OH211204   3.413   5.946   4.298
 3754TIP3    H111205   3.328   5.985   4.276
 3754TIP3    H211206   3.475   6.020   4.294
 3755TIP3   OH211207   1.141   0.468   0.765
 3755TIP3    H111208   1.134   0.373   0.764
 3755TIP3    H211209   1.220   0.487   0.714
 3756TIP3   OH211210   1.049   4.911   5.108
 3756TIP3    H111211   0.965   4.941   5.143
 3756TIP3    H211212   1.046   4.816   5.117
 3757TIP3   OH211213   2.629   3.223   3.548
 3757TIP3    H111214   2.590   3.270   3.474
 3757TIP3    H211215   2.662   3.142   3.511
 3758TIP3   OH211216   4.982   2.055   3.162
 3758TIP3    H111217   4.915   1.989   3.180
 3758TIP3    H211218   5.033   2.019   3.089
 3759TIP3   OH211219   4.189   6.443   3.365
 3759TIP3    H111220   4.202   6.413   3.455
 3759TIP3    H211221   4.110   6.497   3.369
 3760TIP3   OH211222   5.760   2.948   5.568
 3760TIP3    H111223   5.784   2.874   5.624
 3760TIP3    H211224   5.807   2.933   5.486
 3761TIP3   OH211225   4.402   4.570   4.338
 3761TIP3    H111226   4.449   4.644   4.301
 3761TIP3    H211227   4.385   4.511   4.264
 3762TIP3   OH211228   7.376   1.417   0.523
 3762TIP3    H111229   7.398   1.509   0.509
 3762TIP3    H211230   7.319   1.417   0.600
 3763TIP3   OH211231   5.914   7.246   1.758
 3763TIP3    H111232   5.837   7.292   1.725
 3763TIP3    H211233   5.917   7.269   1.851
 3764TIP3   OH211234   6.624   5.718   1.782
 3764TIP3    H111235   6.584   5.679   1.704
 3764TIP3    H211236   6.603   5.811   1.774
 3765TIP3   OH211237   3.503   2.350   2.924
 3765TIP3    H111238   3.564   2.388   2.987
 3765TIP3    H211239   3.555   2.343   2.843
 3766TIP3   OH211240   2.546   2.871   5.982
 3766TIP3    H111241   2.573   2.779   5.975
 3766TIP3    H211242   2.518   2.880   6.073
 3767TIP3   OH211243   6.313   5.342   0.133
 3767TIP3    H111244   6.297   5.340   0.227
 3767TIP3    H211245   6.238   5.296   0.095
 3768TIP3   OH211246   5.850   1.858   3.380
 3768TIP3    H111247   5.775   1.896   3.334
 3768TIP3    H211248   5.868   1.919   3.451
 3769TIP3   OH211249   0.560   2.540   5.504
 3769TIP3    H111250   0.603   2.519   5.421
 3769TIP3    H211251   0.476   2.578   5.479
 3770TIP3   OH211252   5.251   2.677   0.174
 3770TIP3    H111253   5.299   2.603   0.211
 3770TIP3    H211254   5.197   2.710   0.246
 3771TIP3   OH211255   0.904   3.760   1.052
 3771TIP3    H111256   0.908   3.707   0.972
 3771TIP3    H211257   0.821   3.807   1.046
 3772TIP3   OH211258   3.095   4.018   6.430
 3772TIP3    H111259   3.098   3.931   6.392
 3772TIP3    H211260   3.163   4.018   6.498
 3773TIP3   OH211261   7.859   7.108   3.705
 3773TIP3    H111262   7.808   7.050   3.647
 3773TIP3    H211263   7.919   7.153   3.646
 3774TIP3   OH211264   0.218   7.680   3.440
 3774TIP3    H111265   0.179   7.710   3.522
 3774TIP3    H211266   0.150   7.693   3.374
 3775TIP3   OH211267   7.335   2.896   1.181
 3775TIP3    H111268   7.288   2.879   1.099
 3775TIP3    H211269   7.321   2.817   1.233
 3776TIP3   OH211270   1.609   4.528   1.142
 3776TIP3    H111271   1.597   4.514   1.048
 3776TIP3    H211272   1.703   4.545   1.152
 3777TIP3   OH211273   7.007   2.425   5.129
 3777TIP3    H111274   7.101   2.440   5.121
 3777TIP3    H211275   6.968   2.475   5.058
 3778TIP3   OH211276   1.592   3.771   6.017
 3778TIP3    H111277   1.526   3.840   6.011
 3778TIP3    H211278   1.666   3.804   5.965
 3779TIP3   OH211279   0.286   5.504   3.480
 3779TIP3    H111280   0.227   5.578   3.489
 3779TIP3    H211281   0.369   5.535   3.515
 3780TIP3   OH211282   6.864   7.766   1.141
 3780TIP3    H111283   6.778   7.747   1.104
 3780TIP3    H211284   6.856   7.855   1.175
 3781TIP3   OH211285   5.732   3.304   0.709
 3781TIP3    H111286   5.672   3.357   0.761
 3781TIP3    H211287   5.797   3.272   0.773
 3782TIP3   OH211288   8.087   4.200   0.184
 3782TIP3    H111289   8.016   4.229   0.127
 3782TIP3    H211290   8.059   4.224   0.272
 3783TIP3   OH211291   6.470   7.317   4.784
 3783TIP3    H111292   6.395   7.261   4.806
 3783TIP3    H211293   6.490   7.295   4.693
 3784TIP3   OH211294   4.496   1.198   4.773
 3784TIP3    H111295   4.462   1.280   4.738
 3784TIP3    H211296   4.420   1.153   4.809
 3785TIP3   OH211297   0.504   6.910   1.333
 3785TIP3    H111298   0.452   6.988   1.312
 3785TIP3    H211299   0.569   6.941   1.396
 3786TIP3   OH211300   3.416   0.384   4.780
 3786TIP3    H111301   3.464   0.379   4.698
 3786TIP3    H211302   3.331   0.345   4.760
 3787TIP3   OH211303   0.889   0.362   5.864
 3787TIP3    H111304   0.924   0.404   5.786
 3787TIP3    H211305   0.888   0.431   5.930
 3788TIP3   OH211306   0.414   2.323   5.601
 3788TIP3    H111307   0.406   2.335   5.696
 3788TIP3    H211308   0.453   2.404   5.569
 3789TIP3   OH211309   3.106   3.121   2.279
 3789TIP3    H111310   3.086   3.157   2.192
 3789TIP3    H211311   3.077   3.030   2.274
 3790TIP3   OH211312   6.951   1.747   0.824
 3790TIP3    H111313   6.948   1.697   0.743
 3790TIP3    H211314   6.956   1.681   0.893
 3791TIP3   OH211315   5.134   1.227   1.569
 3791TIP3    H111316   5.182   1.202   1.489
 3791TIP3    H211317   5.047   1.187   1.557
 3792TIP3   OH211318   3.606   2.043   3.150
 3792TIP3    H111319   3.561   2.012   3.071
 3792TIP3    H211320   3.684   2.088   3.117
 3793TIP3   OH211321   0.102   2.891   2.231
 3793TIP3    H111322   0.154   2.968   2.254
 3793TIP3    H211323   0.120   2.876   2.138
 3794TIP3   OH211324   5.914   7.705   6.073
 3794TIP3    H111325   5.933   7.779   6.131
 3794TIP3    H211326   5.865   7.744   6.001
 3795TIP3   OH211327   2.934   1.980   2.781
 3795TIP3    H111328   2.919   2.005   2.872
 3795TIP3    H211329   3.020   1.937   2.782
 3796TIP3   OH211330   5.514   5.002   2.769
 3796TIP3    H111331   5.468   5.044   2.696
 3796TIP3    H211332   5.448   4.994   2.837
 3797TIP3   OH211333   0.164   1.174   5.768
 3797TIP3    H111334   0.072   1.191   5.748
 3797TIP3    H211335   0.181   1.087   5.734
 3798TIP3   OH211336   0.912   6.183   3.709
 3798TIP3    H111337   0.825   6.145   3.715
 3798TIP3    H211338   0.941   6.194   3.800
 3799TIP3   OH211339   2.461   6.085   5.983
 3799TIP3    H111340   2.466   6.180   5.982
 3799TIP3    H211341   2.401   6.063   5.912
 3800TIP3   OH211342   5.881   6.865   2.280
 3800TIP3    H111343   5.912   6.800   2.216
 3800TIP3    H211344   5.791   6.883   2.255
 3801TIP3   OH211345   4.685   6.402   4.486
 3801TIP3    H111346   4.666   6.386   4.393
 3801TIP3    H211347   4.682   6.314   4.526
 3802TIP3   OH211348   7.122   0.889   2.396
 3802TIP3    H111349   7.136   0.979   2.367
 3802TIP3    H211350   7.183   0.837   2.344
 3803TIP3   OH211351   4.032   5.446   0.472
 3803TIP3    H111352   4.025   5.539   0.451
 3803TIP3    H211353   4.123   5.433   0.500
 3804TIP3   OH211354   4.449   6.977   0.306
 3804TIP3    H111355   4.439   7.031   0.227
 3804TIP3    H211356   4.408   7.029   0.376
 3805TIP3   OH211357   6.041   2.557   4.014
 3805TIP3    H111358   5.954   2.573   4.051
 3805TIP3    H211359   6.024   2.529   3.924
 3806TIP3   OH211360   1.024   6.331   6.000
 3806TIP3    H111361   1.098   6.290   5.955
 3806TIP3    H211362   0.969   6.365   5.930
 3807TIP3   OH211363   5.047   6.690   3.339
 3807TIP3    H111364   4.958   6.674   3.308
 3807TIP3    H211365   5.065   6.781   3.315
 3808TIP3   OH211366   1.844   0.121   6.720
 3808TIP3    H111367   1.836   0.075   6.636
 3808TIP3    H211368   1.856   0.052   6.785
 3809TIP3   OH211369   3.739   0.764   3.027
 3809TIP3    H111370   3.702   0.771   3.115
 3809TIP3    H211371   3.788   0.846   3.015
 3810TIP3   OH211372   1.751   1.113   6.503
 3810TIP3    H111373   1.684   1.157   6.451
 3810TIP3    H211374   1.762   1.169   6.580
 3811TIP3   OH211375   0.294   4.062   6.585
 3811TIP3    H111376   0.243   4.142   6.575
 3811TIP3    H211377   0.371   4.089   6.635
 3812TIP3   OH211378   5.637   5.998   0.387
 3812TIP3    H111379   5.563   6.040   0.431
 3812TIP3    H211380   5.698   5.976   0.457
 3813TIP3   OH211381   1.537   6.866   2.572
 3813TIP3    H111382   1.552   6.842   2.664
 3813TIP3    H211383   1.458   6.920   2.574
 3814TIP3   OH211384   0.420   4.663   5.253
 3814TIP3    H111385   0.344   4.704   5.294
 3814TIP3    H211386   0.397   4.571   5.248
 3815TIP3   OH211387   7.438   3.879   6.481
 3815TIP3    H111388   7.514   3.821   6.489
 3815TIP3    H211389   7.396   3.876   6.567
 3816TIP3   OH211390   3.336   2.501   0.740
 3816TIP3    H111391   3.422   2.535   0.719
 3816TIP3    H211392   3.308   2.454   0.661
 3817TIP3   OH211393   1.446   3.889   4.670
 3817TIP3    H111394   1.446   3.816   4.607
 3817TIP3    H211395   1.354   3.899   4.694
 3818TIP3   OH211396   8.002   7.509   0.098
 3818TIP3    H111397   8.081   7.456   0.105
 3818TIP3    H211398   7.932   7.446   0.082
 3819TIP3   OH211399   5.877   5.416   4.944
 3819TIP3    H111400   5.783   5.431   4.930
 3819TIP3    H211401   5.918   5.499   4.922
 3820TIP3   OH211402   6.142   3.869   5.113
 3820TIP3    H111403   6.095   3.844   5.034
 3820TIP3    H211404   6.232   3.884   5.083
 3821TIP3   OH211405   7.312   3.833   1.895
 3821TIP3    H111406   7.320   3.738   1.889
 3821TIP3    H211407   7.254   3.857   1.823
 3822TIP3   OH211408   6.897   1.505   3.601
 3822TIP3    H111409   6.907   1.411   3.620
 3822TIP3    H211410   6.806   1.524   3.621
 3823TIP3   OH211411   4.982   6.832   5.129
 3823TIP3    H111412   4.907   6.877   5.167
 3823TIP3    H211413   5.052   6.896   5.130
 3824TIP3   OH211414   2.551   2.651   1.799
 3824TIP3    H111415   2.538   2.742   1.823
 3824TIP3    H211416   2.605   2.655   1.720
 3825TIP3   OH211417   2.911   0.037   0.486
 3825TIP3    H111418   2.844   0.091   0.445
 3825TIP3    H211419   2.989   0.048   0.430
 3826TIP3   OH211420   7.582   2.498   2.475
 3826TIP3    H111421   7.663   2.489   2.525
 3826TIP3    H211422   7.559   2.590   2.485
 3827TIP3   OH211423   2.084   4.294   3.552
 3827TIP3    H111424   2.023   4.236   3.507
 3827TIP3    H211425   2.030   4.362   3.592
 3828TIP3   OH211426   3.045   6.516   4.772
 3828TIP3    H111427   3.015   6.552   4.689
 3828TIP3    H211428   3.061   6.423   4.755
 3829TIP3   OH211429   2.612   7.334   3.858
 3829TIP3    H111430   2.635   7.360   3.769
 3829TIP3    H211431   2.595   7.240   3.852
 3830TIP3   OH211432   4.896   3.315   0.142
 3830TIP3    H111433   4.936   3.235   0.175
 3830TIP3    H211434   4.929   3.384   0.199
 3831TIP3   OH211435   0.289   5.908   5.738
 3831TIP3    H111436   0.327   5.854   5.668
 3831TIP3    H211437   0.344   5.986   5.741
 3832TIP3   OH211438   6.480   4.160   1.467
 3832TIP3    H111439   6.562   4.112   1.469
 3832TIP3    H211440   6.455   4.163   1.375
 3833TIP3   OH211441   5.990   1.393   1.242
 3833TIP3    H111442   6.029   1.324   1.295
 3833TIP3    H211443   5.953   1.454   1.305
 3834TIP3   OH211444   6.161   5.547   2.216
 3834TIP3    H111445   6.115   5.501   2.146
 3834TIP3    H211446   6.092   5.594   2.263
 3835TIP3   OH211447   4.392   0.104   2.376
 3835TIP3    H111448   4.397   0.018   2.334
 3835TIP3    H211449   4.309   0.141   2.345
 3836TIP3   OH211450   2.653   2.390   3.301
 3836TIP3    H111451   2.736   2.352   3.271
 3836TIP3    H211452   2.601   2.314   3.328
 3837TIP3   OH211453   8.199   1.630   2.187
 3837TIP3    H111454   8.219   1.722   2.208
 3837TIP3    H211455   8.284   1.591   2.169
 3838TIP3   OH211456   4.733   5.420   3.460
 3838TIP3    H111457   4.810   5.429   3.516
 3838TIP3    H211458   4.730   5.326   3.440
 3839TIP3   OH211459   7.601   6.366   0.644
 3839TIP3    H111460   7.560   6.288   0.606
 3839TIP3    H211461   7.688   6.370   0.604
 3840TIP3   OH211462   0.064   5.869   0.155
 3840TIP3    H111463   0.062   5.815   0.076
 3840TIP3    H211464  -0.029   5.881   0.178
 3841TIP3   OH211465   1.087   1.524   3.593
 3841TIP3    H111466   1.031   1.447   3.596
 3841TIP3    H211467   1.030   1.597   3.616
 3842TIP3   OH211468   7.929   5.583   2.813
 3842TIP3    H111469   8.012   5.541   2.835
 3842TIP3    H211470   7.906   5.548   2.727
 3843TIP3   OH211471   0.317   5.858   4.530
 3843TIP3    H111472   0.272   5.876   4.448
 3843TIP3    H211473   0.253   5.877   4.598
 3844TIP3   OH211474   5.881   6.522   4.097
 3844TIP3    H111475   5.868   6.617   4.103
 3844TIP3    H211476   5.922   6.509   4.012
 3845TIP3   OH211477   4.749   5.375   0.925
 3845TIP3    H111478   4.733   5.389   0.831
 3845TIP3    H211479   4.840   5.346   0.929
 3846TIP3   OH211480   4.800   4.911   0.197
 3846TIP3    H111481   4.769   4.987   0.147
 3846TIP3    H211482   4.876   4.879   0.149
 3847TIP3   OH211483   7.377   2.671   1.306
 3847TIP3    H111484   7.445   2.607   1.284
 3847TIP3    H211485   7.332   2.633   1.382
 3848TIP3   OH211486   1.535   2.304   2.448
 3848TIP3    H111487   1.453   2.299   2.498
 3848TIP3    H211488   1.516   2.257   2.366
 3849TIP3   OH211489   6.436   3.488   3.915
 3849TIP3    H111490   6.434   3.531   4.001
 3849TIP3    H211491   6.529   3.490   3.890
 3850TIP3   OH211492   7.942   4.294   5.087
 3850TIP3    H111493   7.940   4.367   5.149
 3850TIP3    H211494   8.013   4.316   5.026
 3851TIP3   OH211495   0.035   4.260   4.169
 3851TIP3    H111496  -0.035   4.277   4.231
 3851TIP3    H211497  -0.009   4.251   4.084
 3852TIP3   OH211498   7.996   7.351   4.537
 3852TIP3    H111499   8.060   7.290   4.499
 3852TIP3    H211500   7.921   7.347   4.478
 3853TIP3   OH211501   8.142   0.396   5.282
 3853TIP3    H111502   8.047   0.392   5.271
 3853TIP3    H211503   8.171   0.466   5.224
 3854TIP3   OH211504   1.097   7.122   4.327
 3854TIP3    H111505   1.006   7.109   4.353
 3854TIP3    H211506   1.148   7.095   4.404
 3855TIP3   OH211507   1.115   0.389   2.738
 3855TIP3    H111508   1.075   0.469   2.772
 3855TIP3    H211509   1.177   0.419   2.672
 3856TIP3   OH211510   2.255   0.714   4.080
 3856TIP3    H111511   2.224   0.699   4.169
 3856TIP3    H211512   2.187   0.769   4.040
 3857TIP3   OH211513   4.827   0.497   2.425
 3857TIP3    H111514   4.740   0.458   2.433
 3857TIP3    H211515   4.848   0.490   2.331
 3858TIP3   OH211516   5.211   6.629   4.143
 3858TIP3    H111517   5.170   6.571   4.207
 3858TIP3    H211518   5.246   6.570   4.076
 3859TIP3   OH211519   2.252   2.567   4.361
 3859TIP3    H111520   2.253   2.527   4.274
 3859TIP3    H211521   2.339   2.551   4.397
 3860TIP3   OH211522   2.365   1.848   6.262
 3860TIP3    H111523   2.323   1.859   6.348
 3860TIP3    H211524   2.417   1.768   6.271
 3861TIP3   OH211525   7.131   3.392   3.982
 3861TIP3    H111526   7.187   3.321   4.015
 3861TIP3    H211527   7.060   3.398   4.046
 3862TIP3   OH211528   1.815   5.471   0.178
 3862TIP3    H111529   1.864   5.411   0.235
 3862TIP3    H211530   1.791   5.418   0.103
 3863TIP3   OH211531   1.485   4.066   0.236
 3863TIP3    H111532   1.563   4.100   0.192
 3863TIP3    H211533   1.481   4.115   0.318
 3864TIP3   OH211534   0.551   7.301   2.820
 3864TIP3    H111535   0.597   7.385   2.822
 3864TIP3    H211536   0.481   7.313   2.756
 3865TIP3   OH211537   6.769   0.567   0.716
 3865TIP3    H111538   6.698   0.578   0.653
 3865TIP3    H211539   6.818   0.650   0.712
 3866TIP3   OH211540   2.195   0.218   2.052
 3866TIP3    H111541   2.256   0.165   2.002
 3866TIP3    H211542   2.150   0.272   1.987
 3867TIP3   OH211543   1.551   0.322   1.996
 3867TIP3    H111544   1.534   0.379   2.071
 3867TIP3    H211545   1.640   0.344   1.969
 3868TIP3   OH211546   5.975   2.175   5.932
 3868TIP3    H111547   6.056   2.146   5.891
 3868TIP3    H211548   5.942   2.244   5.875
 3869TIP3   OH211549   0.538   4.146   5.374
 3869TIP3    H111550   0.580   4.061   5.358
 3869TIP3    H211551   0.505   4.141   5.463
 3870TIP3   OH211552   6.278   5.283   1.456
 3870TIP3    H111553   6.274   5.196   1.497
 3870TIP3    H211554   6.203   5.285   1.397
 3871TIP3   OH211555   3.559   0.054   5.110
 3871TIP3    H111556   3.561   0.008   5.194
 3871TIP3    H211557   3.500   0.128   5.124
 3872TIP3   OH211558   0.050   5.273   0.378
 3872TIP3    H111559  -0.027   5.226   0.412
 3872TIP3    H211560   0.015   5.328   0.308
 3873TIP3   OH211561   8.188   3.313   5.998
 3873TIP3    H111562   8.197   3.227   6.039
 3873TIP3    H211563   8.183   3.373   6.072
 3874TIP3   OH211564   2.243   0.566   0.278
 3874TIP3    H111565   2.338   0.567   0.265
 3874TIP3    H211566   2.216   0.658   0.270
 3875TIP3   OH211567   3.443   1.625   3.771
 3875TIP3    H111568   3.454   1.717   3.795
 3875TIP3    H211569   3.348   1.614   3.762
 3876TIP3   OH211570   2.526   2.296   3.949
 3876TIP3    H111571   2.534   2.204   3.922
 3876TIP3    H211572   2.561   2.346   3.876
 3877TIP3   OH211573   1.840   1.285   1.660
 3877TIP3    H111574   1.822   1.321   1.747
 3877TIP3    H211575   1.821   1.358   1.600
 3878TIP3   OH211576   3.917   5.743   0.617
 3878TIP3    H111577   3.972   5.732   0.540
 3878TIP3    H211578   3.977   5.731   0.691
 3879TIP3   OH211579   4.799   4.572   4.353
 3879TIP3    H111580   4.864   4.556   4.422
 3879TIP3    H211581   4.716   4.548   4.393
 3880TIP3   OH211582   3.313   7.333   1.704
 3880TIP3    H111583   3.325   7.270   1.632
 3880TIP3    H211584   3.232   7.306   1.746
 3881TIP3   OH211585   7.781   5.773   4.557
 3881TIP3    H111586   7.686   5.774   4.550
 3881TIP3    H211587   7.802   5.694   4.607
 3882TIP3   OH211588   2.850   5.242   3.436
 3882TIP3    H111589   2.885   5.153   3.443
 3882TIP3    H211590   2.757   5.229   3.414
 3883TIP3   OH211591   1.731   3.936   5.840
 3883TIP3    H111592   1.804   3.897   5.792
 3883TIP3    H211593   1.745   4.030   5.832
 3884TIP3   OH211594   6.861   5.987   6.161
 3884TIP3    H111595   6.907   5.939   6.091
 3884TIP3    H211596   6.824   5.918   6.217
 3885TIP3   OH211597   5.385   2.877   4.776
 3885TIP3    H111598   5.319   2.938   4.744
 3885TIP3    H211599   5.381   2.802   4.717
 3886TIP3   OH211600   6.076   2.681   5.581
 3886TIP3    H111601   6.129   2.607   5.550
 3886TIP3    H211602   6.140   2.747   5.605
 3887TIP3   OH211603   1.900   1.706   5.179
 3887TIP3    H111604   1.928   1.641   5.244
 3887TIP3    H211605   1.812   1.677   5.154
 3888TIP3   OH211606   7.541   1.891   0.748
 3888TIP3    H111607   7.524   1.828   0.679
 3888TIP3    H211608   7.637   1.893   0.756
 3889TIP3   OH211609   2.223   3.741   1.688
 3889TIP3    H111610   2.207   3.766   1.779
 3889TIP3    H211611   2.176   3.807   1.637
 3890TIP3   OH211612   6.638   3.576   0.350
 3890TIP3    H111613   6.679   3.509   0.296
 3890TIP3    H211614   6.660   3.659   0.307
 3891TIP3   OH211615   4.833   1.829   0.027
 3891TIP3    H111616   4.842   1.748   0.076
 3891TIP3    H211617   4.920   1.869   0.028
 3892TIP3   OH211618   2.451   3.317   3.726
 3892TIP3    H111619   2.500   3.263   3.664
 3892TIP3    H211620   2.423   3.393   3.675
 3893TIP3   OH211621   7.936   5.103   4.473
 3893TIP3    H111622   7.858   5.139   4.432
 3893TIP3    H211623   7.973   5.044   4.407
 3894TIP3   OH211624   3.373   5.525   6.258
 3894TIP3    H111625   3.303   5.575   6.216
 3894TIP3    H211626   3.343   5.434   6.255
 3895TIP3   OH211627   7.885   2.885   6.237
 3895TIP3    H111628   7.976   2.857   6.238
 3895TIP3    H211629   7.889   2.979   6.219
 3896TIP3   OH211630   3.173   7.524   5.066
 3896TIP3    H111631   3.183   7.449   5.125
 3896TIP3    H211632   3.263   7.551   5.047
 3897TIP3   OH211633   3.919   3.684   3.278
 3897TIP3    H111634   3.879   3.702   3.364
 3897TIP3    H211635   4.001   3.734   3.279
 3898TIP3   OH211636   2.388   7.802   0.679
 3898TIP3    H111637   2.394   7.709   0.700
 3898TIP3    H211638   2.471   7.822   0.636
 3899TIP3   OH211639   5.884   6.324   2.011
 3899TIP3    H111640   5.946   6.339   1.940
 3899TIP3    H211641   5.805   6.290   1.969
 3900TIP3   OH211642   7.533   4.854   1.976
 3900TIP3    H111643   7.549   4.930   1.920
 3900TIP3    H211644   7.464   4.883   2.036
 3901TIP3   OH211645   1.078   4.975   6.159
 3901TIP3    H111646   1.007   4.923   6.198
 3901TIP3    H211647   1.034   5.051   6.120
 3902TIP3   OH211648   4.619   6.815   4.292
 3902TIP3    H111649   4.571   6.878   4.239
 3902TIP3    H211650   4.670   6.764   4.228
 3903TIP3   OH211651   7.869   2.812   4.153
 3903TIP3    H111652   7.789   2.834   4.104
 3903TIP3    H211653   7.849   2.836   4.244
 3904TIP3   OH211654   2.885   5.477   6.103
 3904TIP3    H111655   2.929   5.555   6.136
 3904TIP3    H211656   2.797   5.507   6.080
 3905TIP3   OH211657   4.059   5.127   6.580
 3905TIP3    H111658   4.105   5.083   6.508
 3905TIP3    H211659   4.078   5.220   6.568
 3906TIP3   OH211660   6.822   5.156   1.086
 3906TIP3    H111661   6.788   5.118   1.005
 3906TIP3    H211662   6.754   5.140   1.151
 3907TIP3   OH211663   6.648   2.906   0.452
 3907TIP3    H111664   6.725   2.962   0.465
 3907TIP3    H211665   6.651   2.881   0.360
 3908TIP3   OH211666   4.174   2.826   3.552
 3908TIP3    H111667   4.266   2.808   3.567
 3908TIP3    H211668   4.132   2.740   3.557
 3909TIP3   OH211669   3.551   3.798   1.967
 3909TIP3    H111670   3.511   3.726   2.016
 3909TIP3    H211671   3.499   3.804   1.887
 3910TIP3   OH211672   6.285   7.288   3.396
 3910TIP3    H111673   6.377   7.306   3.377
 3910TIP3    H211674   6.246   7.263   3.312
 3911TIP3   OH211675   3.869   0.959   2.873
 3911TIP3    H111676   3.918   0.985   2.795
 3911TIP3    H211677   3.873   1.036   2.930
 3912TIP3   OH211678   3.049   4.863   4.481
 3912TIP3    H111679   2.989   4.880   4.409
 3912TIP3    H211680   3.048   4.767   4.490
 3913TIP3   OH211681   4.691   4.463   3.779
 3913TIP3    H111682   4.679   4.537   3.838
 3913TIP3    H211683   4.621   4.402   3.802
 3914TIP3   OH211684   1.663   0.969   4.327
 3914TIP3    H111685   1.651   1.057   4.290
 3914TIP3    H211686   1.610   0.913   4.271
 3915TIP3   OH211687   3.222   1.881   4.975
 3915TIP3    H111688   3.263   1.967   4.973
 3915TIP3    H211689   3.128   1.899   4.987
 3916TIP3   OH211690   4.508   3.183   1.288
 3916TIP3    H111691   4.427   3.233   1.278
 3916TIP3    H211692   4.557   3.231   1.355
 3917TIP3   OH211693   2.288   1.880   2.477
 3917TIP3    H111694   2.356   1.899   2.412
 3917TIP3    H211695   2.330   1.897   2.561
 3918TIP3   OH211696   4.033   0.698   5.096
 3918TIP3    H111697   4.066   0.732   5.013
 3918TIP3    H211698   3.947   0.661   5.075
 3919TIP3   OH211699   4.521   0.898   3.532
 3919TIP3    H111700   4.562   0.893   3.619
 3919TIP3    H211701   4.427   0.896   3.550
 3920TIP3   OH211702   6.091   6.225   5.342
 3920TIP3    H111703   6.001   6.254   5.358
 3920TIP3    H211704   6.143   6.306   5.339
 3921TIP3   OH211705   1.774   5.334   3.408
 3921TIP3    H111706   1.784   5.347   3.313
 3921TIP3    H211707   1.751   5.421   3.441
 3922TIP3   OH211708   0.168   6.962   5.485
 3922TIP3    H111709   0.117   6.909   5.546
 3922TIP3    H211710   0.230   6.900   5.446
 3923TIP3   OH211711   7.197   5.965   1.626
 3923TIP3    H111712   7.123   5.903   1.631
 3923TIP3    H211713   7.190   6.016   1.707
 3924TIP3   OH211714   5.389   3.522   1.739
 3924TIP3    H111715   5.433   3.576   1.673
 3924TIP3    H211716   5.298   3.520   1.711
 3925TIP3   OH211717   3.052   7.012   5.210
 3925TIP3    H111718   3.048   7.063   5.291
 3925TIP3    H211719   3.033   7.076   5.141
 3926TIP3   OH211720   3.623   5.159   3.838
 3926TIP3    H111721   3.635   5.241   3.885
 3926TIP3    H211722   3.697   5.104   3.866
 3927TIP3   OH211723   5.289   5.637   2.585
 3927TIP3    H111724   5.298   5.585   2.665
 3927TIP3    H211725   5.208   5.606   2.545
 3928TIP3   OH211726   1.789   7.570   1.478
 3928TIP3    H111727   1.766   7.552   1.570
 3928TIP3    H211728   1.755   7.658   1.462
 3929TIP3   OH211729   7.553   6.741   6.365
 3929TIP3    H111730   7.498   6.819   6.360
 3929TIP3    H211731   7.638   6.773   6.395
 3930TIP3   OH211732   3.330   2.933   4.831
 3930TIP3    H111733   3.319   3.019   4.791
 3930TIP3    H211734   3.397   2.890   4.777
 3931TIP3   OH211735   0.740   1.188   0.287
 3931TIP3    H111736   0.798   1.262   0.305
 3931TIP3    H211737   0.799   1.116   0.263
 3932TIP3   OH211738   8.177   6.353   2.677
 3932TIP3    H111739   8.083   6.360   2.659
 3932TIP3    H211740   8.199   6.436   2.719
 3933TIP3   OH211741   5.808   6.783   0.241
 3933TIP3    H111742   5.791   6.695   0.274
 3933TIP3    H211743   5.734   6.803   0.184
 3934TIP3   OH211744   2.739   3.415   2.296
 3934TIP3    H111745   2.820   3.452   2.332
 3934TIP3    H211746   2.699   3.370   2.371
 3935TIP3   OH211747   4.513   6.322   2.838
 3935TIP3    H111748   4.533   6.294   2.749
 3935TIP3    H211749   4.467   6.248   2.877
 3936TIP3   OH211750   5.441   0.307   5.663
 3936TIP3    H111751   5.498   0.297   5.587
 3936TIP3    H211752   5.368   0.247   5.645
 3937TIP3   OH211753   5.449   6.051   4.809
 3937TIP3    H111754   5.459   6.140   4.774
 3937TIP3    H211755   5.364   6.022   4.778
 3938TIP3   OH211756   4.962   3.727   3.518
 3938TIP3    H111757   4.988   3.657   3.458
 3938TIP3    H211758   4.938   3.800   3.461
 3939TIP3   OH211759   7.485   5.737   0.591
 3939TIP3    H111760   7.523   5.755   0.677
 3939TIP3    H211761   7.484   5.641   0.585
 3940TIP3   OH211762   3.556   2.751   3.399
 3940TIP3    H111763   3.555   2.821   3.334
 3940TIP3    H211764   3.623   2.779   3.462
 3941TIP3   OH211765   6.713   7.785   5.393
 3941TIP3    H111766   6.746   7.727   5.462
 3941TIP3    H211767   6.772   7.770   5.320
 3942TIP3   OH211768   8.181   4.302   4.388
 3942TIP3    H111769   8.174   4.322   4.481
 3942TIP3    H211770   8.098   4.332   4.351
 3943TIP3   OH211771   7.460   5.444   4.475
 3943TIP3    H111772   7.413   5.388   4.536
 3943TIP3    H211773   7.431   5.414   4.388
 3944TIP3   OH211774   5.761   0.512   0.187
 3944TIP3    H111775   5.716   0.552   0.262
 3944TIP3    H211776   5.690   0.485   0.129
 3945TIP3   OH211777   0.506   0.846   2.303
 3945TIP3    H111778   0.562   0.771   2.286
 3945TIP3    H211779   0.566   0.918   2.320
 3946TIP3   OH211780   1.905   3.001   6.539
 3946TIP3    H111781   1.857   3.026   6.460
 3946TIP3    H211782   1.857   2.926   6.574
 3947TIP3   OH211783   2.213   1.380   6.683
 3947TIP3    H111784   2.284   1.398   6.620
 3947TIP3    H211785   2.207   1.460   6.735
 3948TIP3   OH211786   6.188   2.449   5.172
 3948TIP3    H111787   6.273   2.450   5.128
 3948TIP3    H211788   6.132   2.396   5.115
 3949TIP3   OH211789   8.128   6.827   1.756
 3949TIP3    H111790   8.203   6.786   1.714
 3949TIP3    H211791   8.072   6.855   1.684
 3950TIP3   OH211792   0.002   6.291   3.481
 3950TIP3    H111793   0.021   6.207   3.522
 3950TIP3    H211794   0.006   6.273   3.387
 3951TIP3   OH211795   2.107   2.208   1.636
 3951TIP3    H111796   2.128   2.239   1.548
 3951TIP3    H211797   2.192   2.188   1.675
 3952TIP3   OH211798   1.086   3.276   3.995
 3952TIP3    H111799   1.004   3.235   3.967
 3952TIP3    H211800   1.060   3.361   4.032
 3953TIP3   OH211801   7.165   7.272   6.411
 3953TIP3    H111802   7.150   7.190   6.364
 3953TIP3    H211803   7.139   7.341   6.350
 3954TIP3   OH211804   1.045   0.113   1.074
 3954TIP3    H111805   0.966   0.110   1.127
 3954TIP3    H211806   1.029   0.052   1.002
 3955TIP3   OH211807   1.069   6.513   3.746
 3955TIP3    H111808   1.040   6.426   3.719
 3955TIP3    H211809   0.999   6.544   3.804
 3956TIP3   OH211810   0.144   4.994   4.571
 3956TIP3    H111811   0.121   5.060   4.637
 3956TIP3    H211812   0.218   4.946   4.609
 3957TIP3   OH211813   4.161   3.684   2.475
 3957TIP3    H111814   4.070   3.713   2.482
 3957TIP3    H211815   4.156   3.589   2.482
 3958TIP3   OH211816   4.215   6.660   0.996
 3958TIP3    H111817   4.223   6.674   0.901
 3958TIP3    H211818   4.141   6.716   1.022
 3959TIP3   OH211819   3.616   6.431   2.180
 3959TIP3    H111820   3.526   6.425   2.148
 3959TIP3    H211821   3.659   6.493   2.121
 3960TIP3   OH211822   3.704   7.089   1.921
 3960TIP3    H111823   3.687   7.181   1.939
 3960TIP3    H211824   3.639   7.042   1.973
 3961TIP3   OH211825   6.336   7.004   1.203
 3961TIP3    H111826   6.408   7.019   1.141
 3961TIP3    H211827   6.346   6.913   1.229
 3962TIP3   OH211828   7.931   7.627   1.081
 3962TIP3    H111829   7.936   7.558   1.015
 3962TIP3    H211830   7.862   7.598   1.140
 3963TIP3   OH211831   2.638   3.689   4.430
 3963TIP3    H111832   2.547   3.680   4.402
 3963TIP3    H211833   2.644   3.635   4.509
 3964TIP3   OH211834   0.525   0.930   5.738
 3964TIP3    H111835   0.570   0.952   5.819
 3964TIP3    H211836   0.583   0.961   5.669
 3965TIP3   OH211837   3.831   5.809   1.485
 3965TIP3    H111838   3.772   5.795   1.411
 3965TIP3    H211839   3.911   5.764   1.461
 3966TIP3   OH211840   0.420   2.918   6.658
 3966TIP3    H111841   0.480   2.977   6.612
 3966TIP3    H211842   0.459   2.831   6.647
 3967TIP3   OH211843   4.421   7.193   3.346
 3967TIP3    H111844   4.464   7.175   3.262
 3967TIP3    H211845   4.470   7.140   3.409
 3968TIP3   OH211846   3.507   2.256   5.497
 3968TIP3    H111847   3.489   2.173   5.541
 3968TIP3    H211848   3.506   2.321   5.567
 3969TIP3   OH211849   1.754   1.323   4.247
 3969TIP3    H111850   1.794   1.397   4.292
 3969TIP3    H211851   1.805   1.313   4.167
 3970TIP3   OH211852   6.665   2.271   5.732
 3970TIP3    H111853   6.701   2.184   5.749
 3970TIP3    H211854   6.608   2.289   5.807
 3971TIP3   OH211855   7.340   4.227   1.785
 3971TIP3    H111856   7.322   4.262   1.872
 3971TIP3    H211857   7.399   4.153   1.801
 3972TIP3   OH211858   0.365   3.784   4.050
 3972TIP3    H111859   0.461   3.786   4.040
 3972TIP3    H211860   0.341   3.695   4.026
 3973TIP3   OH211861   7.207   3.794   4.346
 3973TIP3    H111862   7.172   3.833   4.265
 3973TIP3    H211863   7.284   3.847   4.367
 3974TIP3   OH211864   4.201   2.688   1.144
 3974TIP3    H111865   4.247   2.659   1.224
 3974TIP3    H211866   4.254   2.761   1.111
 3975TIP3   OH211867   5.939   0.990   5.259
 3975TIP3    H111868   5.905   0.952   5.178
 3975TIP3    H211869   6.029   1.015   5.238
 3976TIP3   OH211870   3.600   2.882   3.644
 3976TIP3    H111871   3.567   2.857   3.730
 3976TIP3    H211872   3.532   2.938   3.607
 3977TIP3   OH211873   6.646   4.152   1.098
 3977TIP3    H111874   6.699   4.073   1.108
 3977TIP3    H211875   6.642   4.166   1.003
 3978TIP3   OH211876   7.646   4.467   6.513
 3978TIP3    H111877   7.671   4.559   6.508
 3978TIP3    H211878   7.591   4.461   6.591
 3979TIP3   OH211879   3.832   3.270   4.801
 3979TIP3    H111880   3.796   3.347   4.846
 3979TIP3    H211881   3.920   3.261   4.837
 3980TIP3   OH211882   0.247   1.761   4.534
 3980TIP3    H111883   0.291   1.839   4.501
 3980TIP3    H211884   0.244   1.702   4.459
 3981TIP3   OH211885   4.261   6.875   1.351
 3981TIP3    H111886   4.333   6.816   1.325
 3981TIP3    H211887   4.298   6.963   1.341
 3982TIP3   OH211888   8.099   7.782   4.430
 3982TIP3    H111889   8.030   7.745   4.485
 3982TIP3    H211890   8.078   7.875   4.424
 3983TIP3   OH211891   3.137   5.511   1.864
 3983TIP3    H111892   3.150   5.604   1.846
 3983TIP3    H211893   3.098   5.475   1.785
 3984TIP3   OH211894   3.996   6.269   0.088
 3984TIP3    H111895   3.988   6.352   0.136
 3984TIP3    H211896   4.035   6.294   0.004
 3985TIP3   OH211897   0.815   4.695   4.579
 3985TIP3    H111898   0.879   4.634   4.614
 3985TIP3    H211899   0.768   4.644   4.512
 3986TIP3   OH211900   3.806   3.470   1.370
 3986TIP3    H111901   3.746   3.538   1.340
 3986TIP3    H211902   3.869   3.516   1.426
 3987TIP3   OH211903   4.597   5.153   1.038
 3987TIP3    H111904   4.566   5.078   0.988
 3987TIP3    H211905   4.656   5.199   0.979
 3988TIP3   OH211906   5.546   3.688   1.585
 3988TIP3    H111907   5.607   3.737   1.640
 3988TIP3    H211908   5.555   3.728   1.499
 3989TIP3   OH211909   2.227  -0.013   3.826
 3989TIP3    H111910   2.243   0.081   3.838
 3989TIP3    H211911   2.171  -0.037   3.899
 3990TIP3   OH211912   1.604   4.720   6.603
 3990TIP3    H111913   1.664   4.737   6.676
 3990TIP3    H211914   1.652   4.661   6.545
 3991TIP3   OH211915   0.614   6.784   2.893
 3991TIP3    H111916   0.575   6.872   2.889
 3991TIP3    H211917   0.702   6.796   2.858
 3992TIP3   OH211918   3.716   3.786   0.833
 3992TIP3    H111919   3.769   3.713   0.863
 3992TIP3    H211920   3.630   3.748   0.815
 3993TIP3   OH211921   2.091   0.453   1.429
 3993TIP3    H111922   2.101   0.542   1.395
 3993TIP3    H211923   2.071   0.400   1.352
 3994TIP3   OH211924   7.664   3.486   6.010
 3994TIP3    H111925   7.618   3.421   6.063
 3994TIP3    H211926   7.635   3.570   6.045
 3995TIP3   OH211927   8.178   4.267   2.452
 3995TIP3    H111928   8.101   4.225   2.413
 3995TIP3    H211929   8.203   4.334   2.388
 3996TIP3   OH211930   4.540   2.920   1.862
 3996TIP3    H111931   4.560   3.013   1.850
 3996TIP3    H211932   4.598   2.875   1.800
 3997TIP3   OH211933   2.310   1.819   1.197
 3997TIP3    H111934   2.310   1.798   1.290
 3997TIP3    H211935   2.386   1.774   1.162
 3998TIP3   OH211936   4.614   7.716   3.636
 3998TIP3    H111937   4.554   7.740   3.706
 3998TIP3    H211938   4.567   7.738   3.556
 3999TIP3   OH211939   1.620   1.027   4.846
 3999TIP3    H111940   1.555   1.097   4.836
 3999TIP3    H211941   1.698   1.061   4.803
 4000TIP3   OH211942   0.474   4.482   6.588
 4000TIP3    H111943   0.404   4.530   6.631
 4000TIP3    H211944   0.467   4.393   6.621
 4001TIP3   OH211945   2.558   4.642   1.664
 4001TIP3    H111946   2.628   4.616   1.724
 4001TIP3    H211947   2.497   4.569   1.666
 4002TIP3   OH211948   8.192   3.163   4.722
 4002TIP3    H111949   8.149   3.198   4.644
 4002TIP3    H211950   8.260   3.105   4.687
 4003TIP3   OH211951   3.363   0.019   5.334
 4003TIP3    H111952   3.340   0.085   5.268
 4003TIP3    H211953   3.285   0.013   5.389
 4004TIP3   OH211954   1.279   3.801   2.270
 4004TIP3    H111955   1.337   3.747   2.324
 4004TIP3    H211956   1.291   3.769   2.181
 4005TIP3   OH211957   7.609   1.165   0.605
 4005TIP3    H111958   7.630   1.242   0.551
 4005TIP3    H211959   7.571   1.103   0.544
 4006TIP3   OH211960   1.678   3.677   1.328
 4006TIP3    H111961   1.684   3.761   1.373
 4006TIP3    H211962   1.634   3.697   1.246
 4007TIP3   OH211963   3.726   0.075   1.836
 4007TIP3    H111964   3.807   0.084   1.784
 4007TIP3    H211965   3.720  -0.018   1.854
 4008TIP3   OH211966   1.230   3.779   3.191
 4008TIP3    H111967   1.199   3.738   3.111
 4008TIP3    H211968   1.163   3.759   3.256
 4009TIP3   OH211969   8.245   1.577   0.127
 4009TIP3    H111970   8.303   1.636   0.175
 4009TIP3    H211971   8.265   1.490   0.161
 4010TIP3   OH211972   1.972   6.987   1.554
 4010TIP3    H111973   2.024   7.009   1.476
 4010TIP3    H211974   2.012   6.906   1.588
 4011TIP3   OH211975   4.659   1.744   0.754
 4011TIP3    H111976   4.653   1.725   0.848
 4011TIP3    H211977   4.597   1.815   0.740
 4012TIP3   OH211978   3.115   0.480   3.309
 4012TIP3    H111979   3.152   0.450   3.226
 4012TIP3    H211980   3.177   0.450   3.375
 4013TIP3   OH211981   2.788   0.632   0.644
 4013TIP3    H111982   2.737   0.567   0.694
 4013TIP3    H211983   2.812   0.586   0.564
 4014TIP3   OH211984   1.041   0.855   3.306
 4014TIP3    H111985   0.991   0.927   3.345
 4014TIP3    H211986   0.974   0.798   3.267
 4015TIP3   OH211987   0.388   5.034   2.141
 4015TIP3    H111988   0.447   4.964   2.166
 4015TIP3    H211989   0.329   4.994   2.076
 4016TIP3   OH211990   2.386   7.068   3.884
 4016TIP3    H111991   2.312   7.022   3.844
 4016TIP3    H211992   2.349   7.151   3.915
 4017TIP3   OH211993   6.363   5.460   1.127
 4017TIP3    H111994   6.358   5.504   1.043
 4017TIP3    H211995   6.437   5.501   1.172
 4018TIP3   OH211996   1.560   3.027   3.006
 4018TIP3    H111997   1.575   3.049   3.098
 4018TIP3    H211998   1.568   2.932   3.003
 4019TIP3   OH211999   7.321   0.694   5.439
 4019TIP3    H112000   7.377   0.617   5.432
 4019TIP3    H212001   7.324   0.718   5.532
 4020TIP3   OH212002   6.919   6.828   4.310
 4020TIP3    H112003   6.871   6.899   4.352
 4020TIP3    H212004   6.874   6.748   4.340
 4021TIP3   OH212005   8.078   3.476   3.532
 4021TIP3    H112006   8.005   3.496   3.474
 4021TIP3    H212007   8.156   3.499   3.482
 4022TIP3   OH212008   1.308   5.380   4.030
 4022TIP3    H112009   1.215   5.385   4.052
 4022TIP3    H212010   1.353   5.391   4.114
 4023TIP3   OH212011   8.107   1.274   4.362
 4023TIP3    H112012   8.049   1.294   4.289
 4023TIP3    H212013   8.076   1.330   4.434
 4024TIP3   OH212014   5.825   4.012   5.560
 4024TIP3    H112015   5.737   3.976   5.553
 4024TIP3    H212016   5.877   3.959   5.500
 4025TIP3   OH212017   6.509   3.457   4.617
 4025TIP3    H112018   6.599   3.427   4.601
 4025TIP3    H212019   6.486   3.421   4.703
 4026TIP3   OH212020   5.360   4.736   4.068
 4026TIP3    H112021   5.387   4.667   4.129
 4026TIP3    H212022   5.427   4.735   3.999
 4027TIP3   OH212023   3.264   1.337   2.216
 4027TIP3    H112024   3.315   1.414   2.241
 4027TIP3    H212025   3.195   1.331   2.283
 4028TIP3   OH212026   6.901   2.012   0.300
 4028TIP3    H112027   6.829   2.057   0.344
 4028TIP3    H212028   6.932   1.948   0.365
 4029TIP3   OH212029   6.069   7.500   1.734
 4029TIP3    H112030   6.119   7.419   1.723
 4029TIP3    H212031   6.094   7.532   1.821
 4030TIP3   OH212032   1.720   5.590   5.065
 4030TIP3    H112033   1.664   5.582   4.988
 4030TIP3    H212034   1.775   5.512   5.063
 4031TIP3   OH212035   3.013   2.488   0.843
 4031TIP3    H112036   3.065   2.562   0.814
 4031TIP3    H212037   2.945   2.478   0.777
 4032TIP3   OH212038   6.401   1.090   3.866
 4032TIP3    H112039   6.371   1.020   3.924
 4032TIP3    H212040   6.497   1.080   3.864
 4033TIP3   OH212041   8.067   0.823   0.313
 4033TIP3    H112042   8.012   0.825   0.235
 4033TIP3    H212043   8.019   0.769   0.375
 4034TIP3   OH212044   7.559   7.629   4.735
 4034TIP3    H112045   7.556   7.712   4.688
 4034TIP3    H212046   7.471   7.619   4.771
 4035TIP3   OH212047   2.843   4.424   2.074
 4035TIP3    H112048   2.924   4.375   2.057
 4035TIP3    H212049   2.853   4.455   2.164
 4036TIP3   OH212050   7.997   0.113   2.271
 4036TIP3    H112051   7.956   0.030   2.247
 4036TIP3    H212052   7.955   0.138   2.353
 4037TIP3   OH212053   0.635   1.368   1.794
 4037TIP3    H112054   0.609   1.335   1.880
 4037TIP3    H212055   0.730   1.357   1.792
 4038TIP3   OH212056   6.376   5.621   0.513
 4038TIP3    H112057   6.389   5.584   0.426
 4038TIP3    H212058   6.460   5.660   0.535
 4039TIP3   OH212059   7.687   1.598   2.112
 4039TIP3    H112060   7.742   1.581   2.036
 4039TIP3    H212061   7.651   1.513   2.136
 4040TIP3   OH212062   2.593   4.988   5.727
 4040TIP3    H112063   2.529   4.919   5.746
 4040TIP3    H212064   2.611   5.028   5.812
 4041TIP3   OH212065   5.924   5.541   0.962
 4041TIP3    H112066   6.002   5.486   0.961
 4041TIP3    H212067   5.859   5.493   0.911
 4042TIP3   OH212068   5.313   0.800   6.782
 4042TIP3    H112069   5.390   0.816   6.727
 4042TIP3    H212070   5.239   0.819   6.724
 4043TIP3   OH212071   2.097   4.047   4.379
 4043TIP3    H112072   2.141   4.108   4.438
 4043TIP3    H212073   2.093   4.093   4.295
 4044TIP3   OH212074   5.298   5.482   4.680
 4044TIP3    H112075   5.227   5.520   4.629
 4044TIP3    H212076   5.373   5.480   4.620
 4045TIP3   OH212077   4.237   6.201   2.320
 4045TIP3    H112078   4.172   6.247   2.374
 4045TIP3    H212079   4.214   6.224   2.230
 4046TIP3   OH212080   3.771   5.127   1.345
 4046TIP3    H112081   3.861   5.100   1.366
 4046TIP3    H212082   3.745   5.070   1.273
 4047TIP3   OH212083   1.132   1.620   5.699
 4047TIP3    H112084   1.085   1.614   5.782
 4047TIP3    H212085   1.214   1.664   5.720
 4048TIP3   OH212086   2.323   4.207   6.543
 4048TIP3    H112087   2.359   4.179   6.459
 4048TIP3    H212088   2.314   4.127   6.594
 4049TIP3   OH212089   7.660   6.472   2.492
 4049TIP3    H112090   7.581   6.470   2.438
 4049TIP3    H212091   7.731   6.448   2.432
 4050TIP3   OH212092   5.665   4.718   6.783
 4050TIP3    H112093   5.756   4.747   6.790
 4050TIP3    H212094   5.669   4.623   6.794
 4051TIP3   OH212095   5.332   6.454   5.205
 4051TIP3    H112096   5.404   6.517   5.206
 4051TIP3    H212097   5.262   6.497   5.254
 4052TIP3   OH212098   0.171   1.431   0.588
 4052TIP3    H112099   0.082   1.394   0.597
 4052TIP3    H212100   0.228   1.354   0.582
 4053TIP3   OH212101   4.248   6.062   5.796
 4053TIP3    H112102   4.223   6.146   5.834
 4053TIP3    H212103   4.216   6.066   5.706
 4054TIP3   OH212104   5.480   7.344   5.779
 4054TIP3    H112105   5.483   7.255   5.744
 4054TIP3    H212106   5.428   7.393   5.715
 4055TIP3   OH212107   7.775   5.949   3.879
 4055TIP3    H112108   7.713   6.018   3.856
 4055TIP3    H212109   7.772   5.945   3.975
 4056TIP3   OH212110   6.217   2.301   1.965
 4056TIP3    H112111   6.216   2.303   2.061
 4056TIP3    H212112   6.282   2.235   1.943
 4057TIP3   OH212113   3.609   5.938   0.337
 4057TIP3    H112114   3.518   5.910   0.338
 4057TIP3    H212115   3.642   5.915   0.424
 4058TIP3   OH212116   7.205   1.503   0.726
 4058TIP3    H112117   7.208   1.569   0.656
 4058TIP3    H212118   7.112   1.482   0.736
 4059TIP3   OH212119   5.890   4.604   6.336
 4059TIP3    H112120   5.884   4.646   6.422
 4059TIP3    H212121   5.803   4.564   6.323
 4060TIP3   OH212122   0.180   2.739   6.432
 4060TIP3    H112123   0.165   2.736   6.527
 4060TIP3    H212124   0.274   2.719   6.423
 4061TIP3   OH212125   0.056   2.582   5.486
 4061TIP3    H112126   0.036   2.566   5.578
 4061TIP3    H212127   0.061   2.495   5.446
 4062TIP3   OH212128   6.272   3.291   5.456
 4062TIP3    H112129   6.304   3.271   5.368
 4062TIP3    H212130   6.180   3.268   5.453
 4063TIP3   OH212131   2.538   5.336   0.256
 4063TIP3    H112132   2.483   5.415   0.264
 4063TIP3    H212133   2.503   5.291   0.179
 4064TIP3   OH212134   1.014   6.434   5.267
 4064TIP3    H112135   1.082   6.439   5.200
 4064TIP3    H212136   1.059   6.396   5.343
 4065TIP3   OH212137   8.325   6.220   4.003
 4065TIP3    H112138   8.366   6.279   4.067
 4065TIP3    H212139   8.231   6.231   4.016
 4066TIP3   OH212140   0.569   0.899   3.494
 4066TIP3    H112141   0.595   0.981   3.536
 4066TIP3    H212142   0.590   0.912   3.402
 4067TIP3   OH212143   7.587   0.332   6.349
 4067TIP3    H112144   7.632   0.262   6.395
 4067TIP3    H212145   7.568   0.397   6.416
 4068TIP3   OH212146   8.201   4.766   0.367
 4068TIP3    H112147   8.253   4.833   0.410
 4068TIP3    H212148   8.263   4.698   0.342
 4069TIP3   OH212149   1.088   4.121   6.298
 4069TIP3    H112150   1.081   4.084   6.210
 4069TIP3    H212151   1.044   4.205   6.293
 4070TIP3   OH212152   1.335   3.615   2.482
 4070TIP3    H112153   1.358   3.664   2.561
 4070TIP3    H212154   1.406   3.552   2.471
 4071TIP3   OH212155   5.276   7.434   2.222
 4071TIP3    H112156   5.329   7.492   2.277
 4071TIP3    H212157   5.206   7.404   2.280
 4072TIP3   OH212158   4.282   6.960   3.225
 4072TIP3    H112159   4.197   7.002   3.210
 4072TIP3    H212160   4.270   6.913   3.308
 4073TIP3   OH212161   8.225   7.109   3.719
 4073TIP3    H112162   8.195   7.061   3.642
 4073TIP3    H212163   8.275   7.183   3.684
 4074TIP3   OH212164   2.547   4.115   4.250
 4074TIP3    H112165   2.622   4.058   4.262
 4074TIP3    H212166   2.523   4.142   4.339
 4075TIP3   OH212167   1.335   4.344   1.155
 4075TIP3    H112168   1.394   4.322   1.228
 4075TIP3    H212169   1.269   4.275   1.155
 4076TIP3   OH212170   4.753   0.300   0.301
 4076TIP3    H112171   4.734   0.210   0.327
 4076TIP3    H212172   4.739   0.301   0.207
 4077TIP3   OH212173   7.697   0.515   0.446
 4077TIP3    H112174   7.713   0.426   0.479
 4077TIP3    H212175   7.775   0.534   0.393
 4078TIP3   OH212176   5.149   0.593   2.270
 4078TIP3    H112177   5.075   0.637   2.229
 4078TIP3    H212178   5.112   0.512   2.306
 4079TIP3   OH212179   0.439   3.226   3.411
 4079TIP3    H112180   0.345   3.211   3.396
 4079TIP3    H212181   0.470   3.144   3.450
 4080TIP3   OH212182   3.896   0.422   5.885
 4080TIP3    H112183   3.900   0.464   5.970
 4080TIP3    H212184   3.819   0.461   5.843
 4081TIP3   OH212185   1.416   5.477   4.990
 4081TIP3    H112186   1.423   5.406   5.055
 4081TIP3    H212187   1.432   5.434   4.906
 4082TIP3   OH212188   4.124   5.629   6.484
 4082TIP3    H112189   4.166   5.708   6.519
 4082TIP3    H212190   4.130   5.640   6.389
 4083TIP3   OH212191   0.635   2.261   1.423
 4083TIP3    H112192   0.569   2.196   1.446
 4083TIP3    H212193   0.718   2.214   1.431
 4084TIP3   OH212194   1.559   2.836   0.985
 4084TIP3    H112195   1.545   2.772   1.055
 4084TIP3    H212196   1.599   2.785   0.914
 4085TIP3   OH212197   2.299   5.070   5.924
 4085TIP3    H112198   2.239   5.056   5.850
 4085TIP3    H212199   2.364   5.131   5.890
 4086TIP3   OH212200   2.704   2.658   4.084
 4086TIP3    H112201   2.672   2.569   4.100
 4086TIP3    H212202   2.726   2.659   3.991
 4087TIP3   OH212203   6.389   7.272   4.520
 4087TIP3    H112204   6.299   7.240   4.519
 4087TIP3    H212205   6.399   7.318   4.436
 4088TIP3   OH212206   4.180   1.750   2.314
 4088TIP3    H112207   4.245   1.811   2.349
 4088TIP3    H212208   4.198   1.748   2.220
 4089TIP3   OH212209   3.713   0.439   2.441
 4089TIP3    H112210   3.645   0.404   2.498
 4089TIP3    H212211   3.766   0.496   2.497
 4090TIP3   OH212212   2.378   4.068   0.530
 4090TIP3    H112213   2.471   4.093   0.526
 4090TIP3    H212214   2.336   4.119   0.461
 4091TIP3   OH212215   7.422   1.317   6.416
 4091TIP3    H112216   7.394   1.227   6.432
 4091TIP3    H212217   7.342   1.364   6.393
 4092TIP3   OH212218   0.586   3.620   1.756
 4092TIP3    H112219   0.491   3.619   1.760
 4092TIP3    H212220   0.611   3.529   1.776
 4093TIP3   OH212221   6.668   5.699   2.246
 4093TIP3    H112222   6.636   5.774   2.195
 4093TIP3    H212223   6.589   5.651   2.271
 4094TIP3   OH212224   0.342   7.325   4.689
 4094TIP3    H112225   0.366   7.416   4.671
 4094TIP3    H212226   0.426   7.280   4.700
 4095TIP3   OH212227   1.919   0.066   3.797
 4095TIP3    H112228   1.951   0.124   3.866
 4095TIP3    H212229   1.852   0.013   3.839
 4096TIP3   OH212230   6.477   0.929   2.430
 4096TIP3    H112231   6.396   0.945   2.381
 4096TIP3    H212232   6.504   1.016   2.460
 4097TIP3   OH212233   6.474   7.819   4.682
 4097TIP3    H112234   6.559   7.775   4.668
 4097TIP3    H212235   6.416   7.749   4.711
 4098TIP3   OH212236   8.270   7.609   3.819
 4098TIP3    H112237   8.210   7.538   3.795
 4098TIP3    H212238   8.223   7.659   3.886
 4099TIP3   OH212239   0.454   0.082   1.804
 4099TIP3    H112240   0.421   0.116   1.721
 4099TIP3    H212241   0.397   0.007   1.824
 4100TIP3   OH212242   2.780   4.435   6.211
 4100TIP3    H112243   2.687   4.414   6.197
 4100TIP3    H212244   2.806   4.485   6.134
 4101TIP3   OH212245   2.212   0.692   6.541
 4101TIP3    H112246   2.271   0.759   6.507
 4101TIP3    H212247   2.140   0.689   6.477
 4102TIP3   OH212248   0.270   5.693   4.859
 4102TIP3    H112249   0.357   5.698   4.821
 4102TIP3    H212250   0.244   5.601   4.848
 4103TIP3   OH212251   5.859   2.545   1.695
 4103TIP3    H112252   5.881   2.526   1.603
 4103TIP3    H212253   5.943   2.551   1.739
 4104TIP3   OH212254   3.881   1.992   6.575
 4104TIP3    H112255   3.976   1.983   6.582
 4104TIP3    H212256   3.849   1.980   6.664
 4105TIP3   OH212257   7.283   6.287   0.722
 4105TIP3    H112258   7.197   6.324   0.743
 4105TIP3    H212259   7.342   6.326   0.787
 4106TIP3   OH212260   5.694   5.126   4.974
 4106TIP3    H112261   5.751   5.089   5.041
 4106TIP3    H212262   5.749   5.189   4.928
 4107TIP3   OH212263   1.561   0.590   6.080
 4107TIP3    H112264   1.635   0.636   6.041
 4107TIP3    H212265   1.532   0.646   6.152
 4108TIP3   OH212266   0.722   4.338   1.688
 4108TIP3    H112267   0.722   4.424   1.730
 4108TIP3    H212268   0.794   4.291   1.731
 4109TIP3   OH212269   7.093   0.764   5.117
 4109TIP3    H112270   7.059   0.814   5.043
 4109TIP3    H212271   7.184   0.747   5.093
 4110TIP3   OH212272   7.558   6.531   2.790
 4110TIP3    H112273   7.605   6.607   2.823
 4110TIP3    H212274   7.607   6.505   2.711
 4111TIP3   OH212275   6.566   0.624   0.528
 4111TIP3    H112276   6.590   0.626   0.436
 4111TIP3    H212277   6.564   0.716   0.555
 4112TIP3   OH212278   4.276   5.521   5.646
 4112TIP3    H112279   4.337   5.505   5.718
 4112TIP3    H212280   4.331   5.550   5.573
 4113TIP3   OH212281   2.005   6.656   0.609
 4113TIP3    H112282   1.964   6.630   0.691
 4113TIP3    H212283   1.951   6.729   0.577
 4114TIP3   OH212284   2.570   3.915   3.213
 4114TIP3    H112285   2.516   3.911   3.134
 4114TIP3    H212286   2.602   3.825   3.224
 4115TIP3   OH212287   3.173   2.377   1.589
 4115TIP3    H112288   3.137   2.361   1.676
 4115TIP3    H212289   3.139   2.304   1.536
 4116TIP3   OH212290   5.946   1.667   3.211
 4116TIP3    H112291   5.880   1.693   3.147
 4116TIP3    H212292   5.930   1.724   3.286
 4117TIP3   OH212293   1.057   2.316   6.504
 4117TIP3    H112294   1.048   2.365   6.422
 4117TIP3    H212295   1.151   2.299   6.512
 4118TIP3   OH212296   4.286   3.203   6.534
 4118TIP3    H112297   4.295   3.298   6.531
 4118TIP3    H212298   4.240   3.186   6.617
 4119TIP3   OH212299   3.123   7.477   6.301
 4119TIP3    H112300   3.032   7.488   6.276
 4119TIP3    H212301   3.164   7.561   6.283
 4120TIP3   OH212302   3.763   4.062   6.022
 4120TIP3    H112303   3.733   4.002   5.954
 4120TIP3    H212304   3.696   4.131   6.025
 4121TIP3   OH212305   5.000   1.767   5.849
 4121TIP3    H112306   5.083   1.795   5.811
 4121TIP3    H212307   4.942   1.842   5.838
 4122TIP3   OH212308   3.117   4.941   5.155
 4122TIP3    H112309   3.048   4.875   5.155
 4122TIP3    H212310   3.106   4.987   5.072
 4123TIP3   OH212311   7.233   7.859   2.668
 4123TIP3    H112312   7.197   7.837   2.582
 4123TIP3    H212313   7.328   7.863   2.654
 4124TIP3   OH212314   3.415   0.833   0.409
 4124TIP3    H112315   3.397   0.801   0.497
 4124TIP3    H212316   3.499   0.878   0.416
 4125TIP3   OH212317   6.505   5.919   0.781
 4125TIP3    H112318   6.569   5.971   0.831
 4125TIP3    H212319   6.443   5.888   0.847
 4126TIP3   OH212320   7.937   5.578   1.932
 4126TIP3    H112321   7.951   5.539   2.018
 4126TIP3    H212322   8.005   5.645   1.924
 4127TIP3   OH212323   2.186   7.167   1.858
 4127TIP3    H112324   2.156   7.207   1.776
 4127TIP3    H212325   2.147   7.220   1.927
 4128TIP3   OH212326   4.336   0.537   1.499
 4128TIP3    H112327   4.295   0.540   1.412
 4128TIP3    H212328   4.360   0.446   1.511
 4129TIP3   OH212329   1.156   0.508   0.219
 4129TIP3    H112330   1.173   0.453   0.143
 4129TIP3    H212331   1.242   0.538   0.247
 4130TIP3   OH212332   0.683   7.717   3.373
 4130TIP3    H112333   0.757   7.776   3.358
 4130TIP3    H212334   0.723   7.634   3.398
 4131TIP3   OH212335   1.657   3.246   1.990
 4131TIP3    H112336   1.570   3.266   1.954
 4131TIP3    H212337   1.705   3.329   1.984
 4132TIP3   OH212338   4.350   6.439   6.495
 4132TIP3    H112339   4.294   6.366   6.522
 4132TIP3    H212340   4.427   6.397   6.456
 4133TIP3   OH212341   3.170   2.393   5.574
 4133TIP3    H112342   3.232   2.411   5.503
 4133TIP3    H212343   3.103   2.337   5.534
 4134TIP3   OH212344   1.461   5.459   4.244
 4134TIP3    H112345   1.495   5.484   4.330
 4134TIP3    H212346   1.467   5.539   4.192
 4135TIP3   OH212347   4.756   6.949   0.979
 4135TIP3    H112348   4.725   7.002   1.052
 4135TIP3    H212349   4.826   6.896   1.016
 4136TIP3   OH212350   1.133   6.248   5.455
 4136TIP3    H112351   1.113   6.205   5.372
 4136TIP3    H212352   1.221   6.284   5.443
 4137TIP3   OH212353   5.211   2.370   5.292
 4137TIP3    H112354   5.174   2.282   5.291
 4137TIP3    H212355   5.272   2.372   5.219
 4138TIP3   OH212356   7.174   7.628   4.507
 4138TIP3    H112357   7.198   7.717   4.534
 4138TIP3    H212358   7.220   7.615   4.424
 4139TIP3   OH212359   2.249   7.280   4.944
 4139TIP3    H112360   2.338   7.316   4.952
 4139TIP3    H212361   2.261   7.195   4.903
 4140TIP3   OH212362   3.583   2.984   0.041
 4140TIP3    H112363   3.549   3.007   0.127
 4140TIP3    H212364   3.675   2.961   0.056
 4141TIP3   OH212365   5.398   3.432   5.776
 4141TIP3    H112366   5.391   3.380   5.856
 4141TIP3    H212367   5.471   3.492   5.792
 4142TIP3   OH212368   5.994   5.540   0.618
 4142TIP3    H112369   5.912   5.518   0.662
 4142TIP3    H212370   5.973   5.534   0.525
 4143TIP3   OH212371   3.162   2.656   3.911
 4143TIP3    H112372   3.083   2.639   3.858
 4143TIP3    H212373   3.188   2.745   3.886
 4144TIP3   OH212374   2.936   5.534   5.466
 4144TIP3    H112375   2.958   5.622   5.495
 4144TIP3    H212376   2.841   5.530   5.469
 4145TIP3   OH212377   3.666   4.523   3.757
 4145TIP3    H112378   3.726   4.498   3.827
 4145TIP3    H212379   3.579   4.504   3.793
 4146TIP3   OH212380   1.450   3.088   0.957
 4146TIP3    H112381   1.370   3.084   1.010
 4146TIP3    H212382   1.484   2.999   0.959
 4147TIP3   OH212383   4.492   5.127   2.338
 4147TIP3    H112384   4.452   5.190   2.278
 4147TIP3    H212385   4.513   5.052   2.283
 4148TIP3   OH212386   4.759   0.816   0.330
 4148TIP3    H112387   4.682   0.765   0.356
 4148TIP3    H212388   4.728   0.907   0.327
 4149TIP3   OH212389   7.831   0.541   1.083
 4149TIP3    H112390   7.854   0.632   1.102
 4149TIP3    H212391   7.859   0.493   1.161
 4150TIP3   OH212392   4.177   5.422   0.987
 4150TIP3    H112393   4.272   5.421   0.983
 4150TIP3    H212394   4.157   5.439   1.079
 4151TIP3   OH212395   4.884   1.911   1.511
 4151TIP3    H112396   4.952   1.892   1.576
 4151TIP3    H212397   4.930   1.960   1.442
 4152TIP3   OH212398   2.088   6.078   3.377
 4152TIP3    H112399   2.139   6.157   3.356
 4152TIP3    H212400   2.137   6.036   3.448
 4153TIP3   OH212401   5.268   4.990   4.060
 4153TIP3    H112402   5.177   4.984   4.031
 4153TIP3    H212403   5.297   4.899   4.065
 4154TIP3   OH212404   4.108   0.324   1.180
 4154TIP3    H112405   4.179   0.278   1.224
 4154TIP3    H212406   4.028   0.283   1.213
 4155TIP3   OH212407   2.705   6.579   6.536
 4155TIP3    H112408   2.738   6.557   6.449
 4155TIP3    H212409   2.780   6.618   6.581
 4156TIP3   OH212410   2.029   7.452   4.660
 4156TIP3    H112411   2.095   7.486   4.721
 4156TIP3    H212412   2.079   7.402   4.596
 4157TIP3   OH212413   0.312   7.029   2.378
 4157TIP3    H112414   0.238   7.089   2.382
 4157TIP3    H212415   0.275   6.944   2.402
 4158TIP3   OH212416   2.123   7.672   4.316
 4158TIP3    H112417   2.121   7.744   4.253
 4158TIP3    H212418   2.170   7.708   4.391
 4159TIP3   OH212419   2.772   0.956   6.586
 4159TIP3    H112420   2.846   0.999   6.542
 4159TIP3    H212421   2.813   0.896   6.648
 4160TIP3   OH212422   6.438   3.548   5.227
 4160TIP3    H112423   6.497   3.607   5.179
 4160TIP3    H212424   6.477   3.539   5.313
 4161TIP3   OH212425   5.560   2.456   3.873
 4161TIP3    H112426   5.530   2.366   3.864
 4161TIP3    H212427   5.613   2.472   3.795
 4162TIP3   OH212428   5.920   4.924   5.788
 4162TIP3    H112429   5.884   4.851   5.738
 4162TIP3    H212430   5.859   4.937   5.860
 4163TIP3   OH212431   0.916   4.903   1.996
 4163TIP3    H112432   0.983   4.938   2.055
 4163TIP3    H212433   0.835   4.907   2.047
 4164TIP3   OH212434   0.456   7.159   5.295
 4164TIP3    H112435   0.421   7.204   5.372
 4164TIP3    H212436   0.538   7.205   5.276
 4165TIP3   OH212437   8.329   1.222   4.813
 4165TIP3    H112438   8.362   1.161   4.880
 4165TIP3    H212439   8.337   1.308   4.854
 4166TIP3   OH212440   6.111   1.153   0.909
 4166TIP3    H112441   6.062   1.231   0.883
 4166TIP3    H212442   6.203   1.179   0.905
 4167TIP3   OH212443   0.574   2.712   2.420
 4167TIP3    H112444   0.537   2.798   2.399
 4167TIP3    H212445   0.499   2.652   2.414
 4168TIP3   OH212446   7.823   7.448   3.772
 4168TIP3    H112447   7.831   7.358   3.740
 4168TIP3    H212448   7.878   7.451   3.850
 4169TIP3   OH212449   6.109   4.216   1.698
 4169TIP3    H112450   6.125   4.236   1.606
 4169TIP3    H212451   6.029   4.163   1.697
 4170TIP3   OH212452   3.147   1.155   6.734
 4170TIP3    H112453   3.211   1.226   6.732
 4170TIP3    H212454   3.065   1.198   6.759
 4171TIP3   OH212455   4.982   3.451   1.241
 4171TIP3    H112456   4.924   3.476   1.313
 4171TIP3    H212457   4.969   3.520   1.175
 4172TIP3   OH212458   5.380   7.555   4.028
 4172TIP3    H112459   5.292   7.548   4.064
 4172TIP3    H212460   5.410   7.464   4.022
 4173TIP3   OH212461   3.821   5.900   5.674
 4173TIP3    H112462   3.910   5.872   5.698
 4173TIP3    H212463   3.823   5.905   5.578
 4174TIP3   OH212464   1.530   7.659   2.944
 4174TIP3    H112465   1.590   7.603   2.895
 4174TIP3    H212466   1.552   7.748   2.917
 4175TIP3   OH212467   1.665   6.522   4.361
 4175TIP3    H112468   1.678   6.467   4.284
 4175TIP3    H212469   1.658   6.611   4.325
 4176TIP3   OH212470   7.407   6.132   1.964
 4176TIP3    H112471   7.461   6.189   1.910
 4176TIP3    H212472   7.470   6.072   2.005
 4177TIP3   OH212473   5.680   6.863   6.648
 4177TIP3    H112474   5.671   6.790   6.586
 4177TIP3    H212475   5.724   6.825   6.724
 4178TIP3   OH212476   5.570   3.909   5.465
 4178TIP3    H112477   5.491   3.937   5.512
 4178TIP3    H212478   5.588   3.821   5.499
 4179TIP3   OH212479   1.456   5.067   1.765
 4179TIP3    H112480   1.432   4.979   1.797
 4179TIP3    H212481   1.401   5.081   1.689
 4180TIP3   OH212482   3.074   4.276   2.012
 4180TIP3    H112483   3.106   4.341   1.949
 4180TIP3    H212484   3.136   4.203   2.004
 4181TIP3   OH212485   4.621   4.620   1.101
 4181TIP3    H112486   4.614   4.698   1.047
 4181TIP3    H212487   4.531   4.585   1.103
 4182TIP3   OH212488   7.502   4.390   2.750
 4182TIP3    H112489   7.542   4.411   2.665
 4182TIP3    H212490   7.471   4.300   2.740
 4183TIP3   OH212491   1.329   6.558   6.489
 4183TIP3    H112492   1.380   6.597   6.418
 4183TIP3    H212493   1.353   6.465   6.488
 4184TIP3   OH212494   0.833   2.241   0.401
 4184TIP3    H112495   0.921   2.242   0.438
 4184TIP3    H212496   0.847   2.253   0.307
 4185TIP3   OH212497   5.273   1.231   3.868
 4185TIP3    H112498   5.241   1.195   3.785
 4185TIP3    H212499   5.195   1.268   3.910
 4186TIP3   OH212500   1.909   5.844   2.731
 4186TIP3    H112501   1.968   5.794   2.787
 4186TIP3    H212502   1.967   5.892   2.672
 4187TIP3   OH212503   2.717   4.812   3.912
 4187TIP3    H112504   2.756   4.873   3.849
 4187TIP3    H212505   2.786   4.747   3.927
 4188TIP3   OH212506   7.501   3.109   5.817
 4188TIP3    H112507   7.411   3.131   5.792
 4188TIP3    H212508   7.546   3.193   5.821
 4189TIP3   OH212509   3.462   7.043   5.938
 4189TIP3    H112510   3.423   6.989   5.869
 4189TIP3    H212511   3.415   7.018   6.018
 4190TIP3   OH212512   8.096   2.443   5.268
 4190TIP3    H112513   8.172   2.394   5.297
 4190TIP3    H212514   8.030   2.427   5.336
 4191TIP3   OH212515   6.821   2.704   6.176
 4191TIP3    H112516   6.857   2.782   6.134
 4191TIP3    H212517   6.762   2.739   6.243
 4192TIP3   OH212518   8.126   6.279   2.184
 4192TIP3    H112519   8.150   6.192   2.215
 4192TIP3    H212520   8.087   6.265   2.098
 4193TIP3   OH212521   1.866   4.266   0.739
 4193TIP3    H112522   1.874   4.331   0.810
 4193TIP3    H212523   1.884   4.182   0.782
 4194TIP3   OH212524   6.498   4.874   0.649
 4194TIP3    H112525   6.551   4.901   0.574
 4194TIP3    H212526   6.499   4.779   0.647
 4195TIP3   OH212527   6.089   0.962   1.808
 4195TIP3    H112528   6.016   1.006   1.851
 4195TIP3    H212529   6.120   0.899   1.873
 4196TIP3   OH212530   1.218   5.026   1.116
 4196TIP3    H112531   1.134   4.988   1.089
 4196TIP3    H212532   1.247   4.970   1.188
 4197TIP3   OH212533   4.606   4.370   2.442
 4197TIP3    H112534   4.537   4.435   2.455
 4197TIP3    H212535   4.579   4.296   2.497
 4198TIP3   OH212536   1.693   2.369   0.080
 4198TIP3    H112537   1.602   2.357   0.108
 4198TIP3    H212538   1.745   2.317   0.141
 4199TIP3   OH212539   2.985   1.691   5.994
 4199TIP3    H112540   2.985   1.612   5.940
 4199TIP3    H212541   2.908   1.740   5.966
 4200TIP3   OH212542   5.597   0.468   3.824
 4200TIP3    H112543   5.588   0.443   3.916
 4200TIP3    H212544   5.554   0.553   3.818
 4201TIP3   OH212545   0.279   3.213   5.062
 4201TIP3    H112546   0.323   3.260   5.133
 4201TIP3    H212547   0.188   3.204   5.092
 4202TIP3   OH212548   5.148   7.814   4.664
 4202TIP3    H112549   5.183   7.733   4.701
 4202TIP3    H212550   5.054   7.799   4.658
 4203TIP3   OH212551   7.784   0.399   4.333
 4203TIP3    H112552   7.841   0.329   4.303
 4203TIP3    H212553   7.743   0.365   4.412
 4204TIP3   OH212554   0.604   0.839   2.656
 4204TIP3    H112555   0.695   0.839   2.627
 4204TIP3    H212556   0.582   0.746   2.665
 4205TIP3   OH212557   0.628   3.844   0.317
 4205TIP3    H112558   0.699   3.822   0.378
 4205TIP3    H212559   0.548   3.830   0.368
 4206TIP3   OH212560   1.427   6.387   3.670
 4206TIP3    H112561   1.410   6.302   3.712
 4206TIP3    H212562   1.511   6.415   3.706
 4207TIP3   OH212563   1.033   4.623   6.257
 4207TIP3    H112564   1.038   4.703   6.206
 4207TIP3    H212565   1.089   4.639   6.333
 4208TIP3   OH212566   5.187   7.702   4.346
 4208TIP3    H112567   5.111   7.677   4.293
 4208TIP3    H212568   5.171   7.794   4.369
 4209TIP3   OH212569   4.706   6.538   5.775
 4209TIP3    H112570   4.645   6.585   5.719
 4209TIP3    H212571   4.722   6.596   5.849
 4210TIP3   OH212572   1.879   4.741   4.572
 4210TIP3    H112573   1.910   4.831   4.564
 4210TIP3    H212574   1.854   4.732   4.664
 4211TIP3   OH212575   7.740   6.190   2.357
 4211TIP3    H112576   7.801   6.260   2.334
 4211TIP3    H212577   7.725   6.202   2.451
 4212TIP3   OH212578   5.634   2.251   2.523
 4212TIP3    H112579   5.545   2.275   2.496
 4212TIP3    H212580   5.630   2.156   2.536
 4213TIP3   OH212581   6.129   4.276   4.216
 4213TIP3    H112582   6.106   4.190   4.250
 4213TIP3    H212583   6.078   4.285   4.135
 4214TIP3   OH212584   4.282   5.834   6.617
 4214TIP3    H112585   4.364   5.785   6.617
 4214TIP3    H212586   4.258   5.841   6.709
 4215TIP3   OH212587   3.929   0.114   5.282
 4215TIP3    H112588   3.947   0.059   5.205
 4215TIP3    H212589   3.903   0.198   5.245
 4216TIP3   OH212590   8.067   1.514   5.708
 4216TIP3    H112591   8.062   1.420   5.725
 4216TIP3    H212592   8.132   1.522   5.638
 4217TIP3   OH212593   3.788   3.123   3.668
 4217TIP3    H112594   3.840   3.089   3.595
 4217TIP3    H212595   3.723   3.055   3.684
 4218TIP3   OH212596   5.997   7.289   0.451
 4218TIP3    H112597   5.945   7.358   0.491
 4218TIP3    H212598   5.947   7.209   0.466
 4219TIP3   OH212599   5.576   6.445   6.199
 4219TIP3    H112600   5.514   6.517   6.210
 4219TIP3    H212601   5.567   6.420   6.107
 4220TIP3   OH212602   1.092   5.522   0.154
 4220TIP3    H112603   1.051   5.469   0.221
 4220TIP3    H212604   1.074   5.612   0.179
 4221TIP3   OH212605   0.375   4.851   6.504
 4221TIP3    H112606   0.355   4.837   6.412
 4221TIP3    H212607   0.459   4.808   6.517
 4222TIP3   OH212608   2.013   5.810   1.020
 4222TIP3    H112609   1.941   5.783   0.963
 4222TIP3    H212610   2.032   5.900   0.994
 4223TIP3   OH212611   6.444   1.653   6.322
 4223TIP3    H112612   6.357   1.618   6.301
 4223TIP3    H212613   6.453   1.642   6.416
 4224TIP3   OH212614   0.605   0.467   4.475
 4224TIP3    H112615   0.683   0.417   4.451
 4224TIP3    H212616   0.539   0.441   4.410
 4225TIP3   OH212617   5.838   6.400   6.685
 4225TIP3    H112618   5.846   6.338   6.756
 4225TIP3    H212619   5.912   6.380   6.627
 4226TIP3   OH212620   3.552   0.990   3.056
 4226TIP3    H112621   3.614   0.933   3.011
 4226TIP3    H212622   3.574   1.078   3.026
 4227TIP3   OH212623   7.253   4.784   5.291
 4227TIP3    H112624   7.279   4.811   5.379
 4227TIP3    H212625   7.162   4.754   5.300
 4228TIP3   OH212626   1.124   6.558   5.580
 4228TIP3    H112627   1.126   6.597   5.493
 4228TIP3    H212628   1.208   6.514   5.589
 4229TIP3   OH212629   2.524   7.003   1.215
 4229TIP3    H112630   2.506   7.049   1.297
 4229TIP3    H212631   2.563   7.070   1.158
 4230TIP3   OH212632   8.147   3.671   5.979
 4230TIP3    H112633   8.179   3.611   6.046
 4230TIP3    H212634   8.077   3.624   5.935
 4231TIP3   OH212635   0.828   3.720   6.035
 4231TIP3    H112636   0.885   3.682   5.969
 4231TIP3    H212637   0.749   3.746   5.987
 4232TIP3   OH212638   4.915   6.538   2.041
 4232TIP3    H112639   4.954   6.451   2.028
 4232TIP3    H212640   4.901   6.545   2.135
 4233TIP3   OH212641   4.784   0.758   2.554
 4233TIP3    H112642   4.804   0.664   2.547
 4233TIP3    H212643   4.698   0.762   2.597
 4234TIP3   OH212644   0.969   2.784   0.661
 4234TIP3    H112645   0.929   2.839   0.593
 4234TIP3    H212646   0.897   2.732   0.695
 4235TIP3   OH212647   5.698   6.184   1.316
 4235TIP3    H112648   5.776   6.168   1.264
 4235TIP3    H212649   5.636   6.226   1.256
 4236TIP3   OH212650   5.302   5.530   4.171
 4236TIP3    H112651   5.365   5.463   4.197
 4236TIP3    H212652   5.284   5.511   4.078
 4237TIP3   OH212653   0.362   5.557   2.146
 4237TIP3    H112654   0.333   5.466   2.150
 4237TIP3    H212655   0.385   5.579   2.236
 4238TIP3   OH212656   1.565   7.108   2.320
 4238TIP3    H112657   1.563   7.195   2.280
 4238TIP3    H212658   1.473   7.091   2.343
 4239TIP3   OH212659   0.844   0.348   5.154
 4239TIP3    H112660   0.828   0.259   5.125
 4239TIP3    H212661   0.929   0.344   5.198
 4240TIP3   OH212662   4.917   1.569   5.680
 4240TIP3    H112663   4.886   1.609   5.599
 4240TIP3    H212664   4.951   1.642   5.731
 4241TIP3   OH212665   1.289   7.139   0.760
 4241TIP3    H112666   1.292   7.101   0.672
 4241TIP3    H212667   1.197   7.164   0.772
 4242TIP3   OH212668   6.621   1.305   1.648
 4242TIP3    H112669   6.696   1.344   1.604
 4242TIP3    H212670   6.579   1.251   1.581
 4243TIP3   OH212671   4.803   0.090   3.375
 4243TIP3    H112672   4.726   0.122   3.329
 4243TIP3    H212673   4.800   0.134   3.460
 4244TIP3   OH212674   4.467   5.875   4.790
 4244TIP3    H112675   4.521   5.805   4.827
 4244TIP3    H212676   4.442   5.928   4.866
 4245TIP3   OH212677   1.814   0.200   5.158
 4245TIP3    H112678   1.749   0.217   5.226
 4245TIP3    H212679   1.852   0.116   5.183
 4246TIP3   OH212680   0.931   6.829   6.104
 4246TIP3    H112681   0.898   6.791   6.185
 4246TIP3    H212682   0.980   6.759   6.062
 4247TIP3   OH212683   1.267   3.253   5.989
 4247TIP3    H112684   1.296   3.339   5.958
 4247TIP3    H212685   1.273   3.259   6.085
 4248TIP3   OH212686   7.279   7.070   0.454
 4248TIP3    H112687   7.317   7.100   0.371
 4248TIP3    H212688   7.185   7.066   0.437
 4249TIP3   OH212689   2.101   5.538   5.667
 4249TIP3    H112690   2.048   5.581   5.734
 4249TIP3    H212691   2.056   5.456   5.650
 4250TIP3   OH212692   4.166   1.662   0.421
 4250TIP3    H112693   4.107   1.649   0.347
 4250TIP3    H212694   4.203   1.575   0.439
 4251TIP3   OH212695   7.833   7.768   0.196
 4251TIP3    H112696   7.899   7.814   0.144
 4251TIP3    H212697   7.878   7.690   0.229
 4252TIP3   OH212698   2.266   0.670   2.639
 4252TIP3    H112699   2.336   0.731   2.614
 4252TIP3    H212700   2.246   0.622   2.558
 4253TIP3   OH212701   6.346   7.035   4.887
 4253TIP3    H112702   6.406   6.993   4.826
 4253TIP3    H212703   6.312   6.964   4.941
 4254TIP3   OH212704   5.662   6.100   2.009
 4254TIP3    H112705   5.645   6.099   2.103
 4254TIP3    H212706   5.577   6.123   1.970
 4255TIP3   OH212707   4.636   3.597   0.122
 4255TIP3    H112708   4.619   3.521   0.067
 4255TIP3    H212709   4.711   3.572   0.175
 4256TIP3   OH212710   7.215   1.936   6.666
 4256TIP3    H112711   7.161   1.860   6.687
 4256TIP3    H212712   7.154   1.998   6.626
 4257TIP3   OH212713   2.558   4.216   1.248
 4257TIP3    H112714   2.643   4.248   1.278
 4257TIP3    H212715   2.561   4.226   1.153
 4258TIP3   OH212716   4.748   4.646   0.684
 4258TIP3    H112717   4.679   4.614   0.627
 4258TIP3    H212718   4.794   4.567   0.714
 4259TIP3   OH212719   8.228   0.324   1.018
 4259TIP3    H112720   8.298   0.386   1.038
 4259TIP3    H212721   8.232   0.260   1.090
 4260TIP3   OH212722   2.376   7.629   4.139
 4260TIP3    H112723   2.424   7.683   4.076
 4260TIP3    H212724   2.427   7.636   4.220
 4261TIP3   OH212725   0.489   1.167   4.359
 4261TIP3    H112726   0.452   1.166   4.447
 4261TIP3    H212727   0.573   1.121   4.368
 4262TIP3   OH212728   6.288   7.504   4.664
 4262TIP3    H112729   6.321   7.464   4.583
 4262TIP3    H212730   6.327   7.452   4.734
 4263TIP3   OH212731   3.990   7.849   0.804
 4263TIP3    H112732   3.902   7.833   0.769
 4263TIP3    H212733   4.035   7.765   0.794
 4264TIP3   OH212734   5.022   0.809   1.626
 4264TIP3    H112735   5.107   0.789   1.588
 4264TIP3    H212736   4.967   0.836   1.552
 4265TIP3   OH212737   6.053   3.526   1.914
 4265TIP3    H112738   6.033   3.609   1.870
 4265TIP3    H212739   6.011   3.459   1.860
 4266TIP3   OH212740   3.491   7.320   5.887
 4266TIP3    H112741   3.456   7.236   5.915
 4266TIP3    H212742   3.425   7.384   5.914
 4267TIP3   OH212743   3.825   2.802   0.762
 4267TIP3    H112744   3.866   2.853   0.832
 4267TIP3    H212745   3.823   2.861   0.687
 4268TIP3   OH212746   2.028   0.356   3.061
 4268TIP3    H112747   1.994   0.436   3.021
 4268TIP3    H212748   1.998   0.359   3.152
 4269TIP3   OH212749   4.662   1.530   5.338
 4269TIP3    H112750   4.570   1.526   5.363
 4269TIP3    H212751   4.701   1.589   5.403
 4270TIP3   OH212752   5.147   6.418   0.885
 4270TIP3    H112753   5.098   6.411   0.803
 4270TIP3    H212754   5.208   6.490   0.870
 4271TIP3   OH212755   6.362   7.124   0.216
 4271TIP3    H112756   6.333   7.215   0.222
 4271TIP3    H212757   6.282   7.074   0.200
 4272TIP3   OH212758   4.908   0.837   3.783
 4272TIP3    H112759   4.814   0.832   3.800
 4272TIP3    H212760   4.924   0.772   3.715
 4273TIP3   OH212761   7.035   3.276   3.211
 4273TIP3    H112762   7.105   3.337   3.186
 4273TIP3    H212763   6.979   3.271   3.134
 4274TIP3   OH212764   2.980   0.849   3.989
 4274TIP3    H112765   3.000   0.758   3.967
 4274TIP3    H212766   2.984   0.851   4.085
 4275TIP3   OH212767   0.139   2.872   6.674
 4275TIP3    H112768   0.231   2.876   6.700
 4275TIP3    H212769   0.109   2.962   6.679
 4276TIP3   OH212770   3.845   1.704   0.642
 4276TIP3    H112771   3.936   1.733   0.638
 4276TIP3    H212772   3.811   1.743   0.723
 4277TIP3   OH212773   6.394   5.681   3.320
 4277TIP3    H112774   6.366   5.693   3.229
 4277TIP3    H212775   6.318   5.640   3.362
 4278TIP3   OH212776   6.248   4.702   6.009
 4278TIP3    H112777   6.232   4.754   5.930
 4278TIP3    H212778   6.231   4.612   5.983
 4279TIP3   OH212779   6.638   6.563   5.005
 4279TIP3    H112780   6.697   6.630   4.969
 4279TIP3    H212781   6.649   6.488   4.946
 4280TIP3   OH212782   8.241   2.988   4.349
 4280TIP3    H112783   8.170   2.930   4.376
 4280TIP3    H212784   8.300   2.991   4.424
 4281TIP3   OH212785   4.764   3.255   3.449
 4281TIP3    H112786   4.752   3.290   3.361
 4281TIP3    H212787   4.759   3.332   3.506
 4282TIP3   OH212788   0.915   2.716   1.496
 4282TIP3    H112789   0.824   2.745   1.505
 4282TIP3    H212790   0.923   2.690   1.404
 4283TIP3   OH212791   6.522   1.293   4.967
 4283TIP3    H112792   6.465   1.343   5.025
 4283TIP3    H212793   6.609   1.332   4.978
 4284TIP3   OH212794   1.836   0.085   0.892
 4284TIP3    H112795   1.786   0.027   0.835
 4284TIP3    H212796   1.885   0.027   0.949
 4285TIP3   OH212797   6.342   2.731   6.338
 4285TIP3    H112798   6.254   2.726   6.301
 4285TIP3    H212799   6.400   2.709   6.265
 4286TIP3   OH212800   2.742   0.372   6.352
 4286TIP3    H112801   2.709   0.430   6.284
 4286TIP3    H212802   2.770   0.294   6.306
 4287TIP3   OH212803   8.159   5.433   4.249
 4287TIP3    H112804   8.243   5.434   4.203
 4287TIP3    H212805   8.178   5.395   4.334
 4288TIP3   OH212806   5.314   1.569   5.635
 4288TIP3    H112807   5.294   1.529   5.720
 4288TIP3    H212808   5.387   1.516   5.601
 4289TIP3   OH212809   3.205   1.547   2.849
 4289TIP3    H112810   3.264   1.478   2.878
 4289TIP3    H212811   3.229   1.623   2.902
 4290TIP3   OH212812   3.684   5.953   3.108
 4290TIP3    H112813   3.764   5.943   3.056
 4290TIP3    H212814   3.681   6.046   3.130
 4291TIP3   OH212815   2.617   0.414   3.645
 4291TIP3    H112816   2.699   0.419   3.695
 4291TIP3    H212817   2.549   0.405   3.712
 4292TIP3   OH212818   2.163   7.442   0.759
 4292TIP3    H112819   2.091   7.461   0.819
 4292TIP3    H212820   2.206   7.364   0.796
 4293TIP3   OH212821   3.427   2.001   5.525
 4293TIP3    H112822   3.345   1.952   5.521
 4293TIP3    H212823   3.479   1.966   5.453
 4294TIP3   OH212824   2.374   4.305   2.406
 4294TIP3    H112825   2.312   4.358   2.455
 4294TIP3    H212826   2.460   4.345   2.425
 4295TIP3   OH212827   4.943   2.732   5.857
 4295TIP3    H112828   4.932   2.723   5.952
 4295TIP3    H212829   4.865   2.691   5.820
 4296TIP3   OH212830   1.559   1.910   6.201
 4296TIP3    H112831   1.627   1.854   6.163
 4296TIP3    H212832   1.489   1.911   6.135
 4297TIP3   OH212833   2.968   6.660   4.566
 4297TIP3    H112834   3.052   6.686   4.527
 4297TIP3    H212835   2.938   6.738   4.612
 4298TIP3   OH212836   2.074   4.869   5.986
 4298TIP3    H112837   2.063   4.939   5.921
 4298TIP3    H212838   2.030   4.901   6.064
 4299TIP3   OH212839   4.542   4.681   4.735
 4299TIP3    H112840   4.504   4.698   4.821
 4299TIP3    H212841   4.634   4.706   4.744
 4300TIP3   OH212842   2.620   5.473   3.597
 4300TIP3    H112843   2.706   5.437   3.619
 4300TIP3    H212844   2.562   5.441   3.666
 4301TIP3   OH212845   6.254   4.776   3.578
 4301TIP3    H112846   6.299   4.724   3.645
 4301TIP3    H212847   6.324   4.808   3.521
 4302TIP3   OH212848   2.721   7.270   0.439
 4302TIP3    H112849   2.713   7.362   0.467
 4302TIP3    H212850   2.813   7.261   0.414
 4303TIP3   OH212851   4.751   5.448   0.141
 4303TIP3    H112852   4.816   5.469   0.208
 4303TIP3    H212853   4.693   5.525   0.139
 4304TIP3   OH212854   5.028   7.415   5.457
 4304TIP3    H112855   4.979   7.451   5.531
 4304TIP3    H212856   5.019   7.481   5.388
 4305TIP3   OH212857   3.093   2.252   5.084
 4305TIP3    H112858   3.186   2.234   5.096
 4305TIP3    H212859   3.076   2.227   4.993
 4306TIP3   OH212860   5.392   2.552   4.872
 4306TIP3    H112861   5.473   2.589   4.837
 4306TIP3    H212862   5.351   2.625   4.919
 4307TIP3   OH212863   2.159   1.133   4.296
 4307TIP3    H112864   2.199   1.117   4.381
 4307TIP3    H212865   2.076   1.087   4.298
 4308TIP3   OH212866   7.183   6.513   2.875
 4308TIP3    H112867   7.240   6.589   2.862
 4308TIP3    H212868   7.235   6.454   2.930
 4309TIP3   OH212869   0.559   0.180   0.252
 4309TIP3    H112870   0.489   0.116   0.242
 4309TIP3    H212871   0.527   0.241   0.318
 4310TIP3   OH212872   0.768   6.874   0.380
 4310TIP3    H112873   0.686   6.894   0.425
 4310TIP3    H212874   0.742   6.856   0.290
 4311TIP3   OH212875   2.101   0.179   0.772
 4311TIP3    H112876   2.023   0.212   0.728
 4311TIP3    H212877   2.109   0.234   0.850
 4312TIP3   OH212878   7.291   4.553   3.168
 4312TIP3    H112879   7.350   4.567   3.242
 4312TIP3    H212880   7.208   4.590   3.197
 4313TIP3   OH212881   3.967   0.875   1.563
 4313TIP3    H112882   3.964   0.809   1.494
 4313TIP3    H212883   4.035   0.844   1.623
 4314TIP3   OH212884   5.459   4.007   6.268
 4314TIP3    H112885   5.380   4.056   6.291
 4314TIP3    H212886   5.529   4.049   6.318
 4315TIP3   OH212887   6.263   7.048   0.574
 4315TIP3    H112888   6.346   7.016   0.539
 4315TIP3    H212889   6.196   6.999   0.527
 4316TIP3   OH212890   4.937   6.179   1.673
 4316TIP3    H112891   4.945   6.112   1.605
 4316TIP3    H212892   4.873   6.241   1.638
 4317TIP3   OH212893   3.691   0.129   5.984
 4317TIP3    H112894   3.632   0.086   6.045
 4317TIP3    H212895   3.733   0.198   6.035
 4318TIP3   OH212896   6.542   5.470   0.004
 4318TIP3    H112897   6.465   5.420   0.029
 4318TIP3    H212898   6.576   5.506   0.086
 4319TIP3   OH212899   6.665   3.663   3.614
 4319TIP3    H112900   6.653   3.707   3.530
 4319TIP3    H212901   6.752   3.691   3.643
 4320TIP3   OH212902   4.476   2.286   4.695
 4320TIP3    H112903   4.479   2.259   4.787
 4320TIP3    H212904   4.499   2.379   4.697
 4321TIP3   OH212905   4.185   0.446   4.827
 4321TIP3    H112906   4.234   0.529   4.833
 4321TIP3    H212907   4.195   0.407   4.914
 4322TIP3   OH212908   7.048   0.335   5.066
 4322TIP3    H112909   7.047   0.357   4.972
 4322TIP3    H212910   7.125   0.382   5.100
 4323TIP3   OH212911   3.412   7.209   5.399
 4323TIP3    H112912   3.430   7.270   5.470
 4323TIP3    H212913   3.498   7.190   5.362
 4324TIP3   OH212914   1.179   1.028   1.319
 4324TIP3    H112915   1.270   1.006   1.339
 4324TIP3    H212916   1.177   1.123   1.318
 4325TIP3   OH212917   1.977   4.189   6.758
 4325TIP3    H112918   1.915   4.192   6.685
 4325TIP3    H212919   1.955   4.265   6.812
 4326TIP3   OH212920   3.120   5.568   1.313
 4326TIP3    H112921   3.207   5.533   1.332
 4326TIP3    H212922   3.063   5.492   1.308
 4327TIP3   OH212923   4.769   0.568   1.817
 4327TIP3    H112924   4.791   0.596   1.728
 4327TIP3    H212925   4.682   0.606   1.833
 4328TIP3   OH212926   1.654   6.014   3.950
 4328TIP3    H112927   1.716   5.978   3.887
 4328TIP3    H212928   1.702   6.016   4.033
 4329TIP3   OH212929   8.092   1.950   2.065
 4329TIP3    H112930   8.114   2.021   2.005
 4329TIP3    H212931   8.171   1.939   2.118
 4330TIP3   OH212932   7.917   7.832   4.773
 4330TIP3    H112933   7.907   7.778   4.695
 4330TIP3    H212934   7.920   7.770   4.846
 4331TIP3   OH212935   2.598   2.255   6.311
 4331TIP3    H112936   2.650   2.175   6.320
 4331TIP3    H212937   2.602   2.296   6.397
 4332TIP3   OH212938   0.937   5.898   2.999
 4332TIP3    H112939   0.917   5.954   3.074
 4332TIP3    H212940   1.004   5.946   2.950
 4333TIP3   OH212941   5.650   0.435   2.264
 4333TIP3    H112942   5.654   0.341   2.279
 4333TIP3    H212943   5.579   0.465   2.320
 4334TIP3   OH212944   7.649   6.577   3.751
 4334TIP3    H112945   7.575   6.546   3.804
 4334TIP3    H212946   7.620   6.562   3.661
 4335TIP3   OH212947   6.579   5.409   5.570
 4335TIP3    H112948   6.627   5.402   5.488
 4335TIP3    H212949   6.511   5.475   5.554
 4336TIP3   OH212950   0.503   6.753   4.896
 4336TIP3    H112951   0.571   6.709   4.946
 4336TIP3    H212952   0.421   6.724   4.937
 4337TIP3   OH212953   2.489   6.045   1.725
 4337TIP3    H112954   2.394   6.040   1.731
 4337TIP3    H212955   2.519   5.958   1.749
 4338TIP3   OH212956   7.604   3.365   4.602
 4338TIP3    H112957   7.627   3.301   4.535
 4338TIP3    H212958   7.683   3.374   4.655
 4339TIP3   OH212959   7.584   2.639   3.576
 4339TIP3    H112960   7.604   2.645   3.669
 4339TIP3    H212961   7.490   2.656   3.570
 4340TIP3   OH212962   0.252   6.749   2.410
 4340TIP3    H112963   0.157   6.762   2.411
 4340TIP3    H212964   0.263   6.657   2.386
 4341TIP3   OH212965   7.412   1.741   1.504
 4341TIP3    H112966   7.338   1.730   1.445
 4341TIP3    H212967   7.378   1.713   1.589
 4342TIP3   OH212968   2.688   4.100   2.372
 4342TIP3    H112969   2.652   4.151   2.298
 4342TIP3    H212970   2.733   4.027   2.330
 4343TIP3   OH212971   6.504   2.247   5.974
 4343TIP3    H112972   6.455   2.198   5.907
 4343TIP3    H212973   6.541   2.179   6.030
 4344TIP3   OH212974   2.906   4.932   0.910
 4344TIP3    H112975   2.904   4.972   0.997
 4344TIP3    H212976   2.830   4.875   0.908
 4345TIP3   OH212977   4.316   1.234   3.283
 4345TIP3    H112978   4.397   1.187   3.266
 4345TIP3    H212979   4.283   1.258   3.196
 4346TIP3   OH212980   2.354   6.400   1.754
 4346TIP3    H112981   2.295   6.326   1.766
 4346TIP3    H212982   2.383   6.394   1.663
 4347TIP3   OH212983   7.626   2.462   4.699
 4347TIP3    H112984   7.561   2.523   4.734
 4347TIP3    H212985   7.703   2.474   4.754
 4348TIP3   OH212986   6.281   5.631   4.734
 4348TIP3    H112987   6.318   5.543   4.743
 4348TIP3    H212988   6.285   5.650   4.640
 4349TIP3   OH212989   3.974   5.330   0.778
 4349TIP3    H112990   3.967   5.412   0.729
 4349TIP3    H212991   4.049   5.343   0.836
 4350TIP3   OH212992   1.907   5.343   1.497
 4350TIP3    H112993   1.848   5.274   1.467
 4350TIP3    H212994   1.915   5.329   1.591
 4351TIP3   OH212995   3.347   7.606   1.605
 4351TIP3    H112996   3.274   7.621   1.545
 4351TIP3    H212997   3.350   7.511   1.616
 4352TIP3   OH212998   5.422   5.583   0.256
 4352TIP3    H112999   5.508   5.549   0.279
 4352TIP3    H213000   5.436   5.633   0.175
 4353TIP3   OH213001   6.433   3.305   0.345
 4353TIP3    H113002   6.426   3.219   0.387
 4353TIP3    H213003   6.478   3.360   0.408
 4354TIP3   OH213004   2.812   3.876   2.555
 4354TIP3    H113005   2.814   3.928   2.635
 4354TIP3    H213006   2.735   3.820   2.565
 4355TIP3   OH213007   3.456   5.079   2.014
 4355TIP3    H113008   3.398   5.116   1.946
 4355TIP3    H213009   3.490   5.155   2.060
 4356TIP3   OH213010   4.643   6.334   2.360
 4356TIP3    H113011   4.684   6.255   2.325
 4356TIP3    H213012   4.567   6.349   2.304
 4357TIP3   OH213013   1.842   0.101   1.913
 4357TIP3    H113014   1.785   0.050   1.969
 4357TIP3    H213015   1.867   0.177   1.966
 4358TIP3   OH213016   7.627   6.718   5.253
 4358TIP3    H113017   7.572   6.789   5.221
 4358TIP3    H213018   7.608   6.714   5.347
 4359TIP3   OH213019   2.970   4.992   3.457
 4359TIP3    H113020   2.997   4.974   3.367
 4359TIP3    H213021   3.052   5.004   3.505
 4360TIP3   OH213022   3.957   5.353   0.229
 4360TIP3    H113023   3.926   5.401   0.306
 4360TIP3    H213024   3.977   5.265   0.261
 4361TIP3   OH213025   4.788   2.232   2.010
 4361TIP3    H113026   4.716   2.230   2.072
 4361TIP3    H213027   4.782   2.318   1.968
 4362TIP3   OH213028   0.838   0.676   3.202
 4362TIP3    H113029   0.917   0.622   3.193
 4362TIP3    H213030   0.774   0.618   3.244
 4363TIP3   OH213031   0.146   2.264   5.945
 4363TIP3    H113032   0.097   2.286   6.024
 4363TIP3    H213033   0.088   2.289   5.873
 4364TIP3   OH213034   8.072   0.139   4.471
 4364TIP3    H113035   8.009   0.120   4.541
 4364TIP3    H213036   8.146   0.082   4.489
 4365TIP3   OH213037   3.278   2.174   5.324
 4365TIP3    H113038   3.307   2.091   5.286
 4365TIP3    H213039   3.355   2.207   5.371
 4366TIP3   OH213040   2.837   6.014   3.193
 4366TIP3    H113041   2.796   5.979   3.272
 4366TIP3    H213042   2.792   6.096   3.176
 4367TIP3   OH213043   5.765   7.828   0.694
 4367TIP3    H113044   5.735   7.876   0.771
 4367TIP3    H213045   5.748   7.736   0.714
 4368TIP3   OH213046   2.290   6.335   5.653
 4368TIP3    H113047   2.359   6.387   5.613
 4368TIP3    H213048   2.336   6.281   5.718
 4369TIP3   OH213049   7.922   6.459   3.681
 4369TIP3    H113050   7.895   6.372   3.652
 4369TIP3    H213051   8.017   6.458   3.675
 4370TIP3   OH213052   4.898   3.475   6.663
 4370TIP3    H113053   4.872   3.540   6.729
 4370TIP3    H213054   4.900   3.392   6.710
 4371TIP3   OH213055   1.313   1.284   2.328
 4371TIP3    H113056   1.292   1.369   2.289
 4371TIP3    H213057   1.397   1.260   2.291
 4372TIP3   OH213058   3.020   2.753   6.227
 4372TIP3    H113059   3.096   2.800   6.192
 4372TIP3    H213060   3.056   2.670   6.260
 4373TIP3   OH213061   7.824   7.417   5.819
 4373TIP3    H113062   7.900   7.442   5.872
 4373TIP3    H213063   7.819   7.485   5.751
 4374TIP3   OH213064   5.290   5.790   4.252
 4374TIP3    H113065   5.295   5.696   4.233
 4374TIP3    H213066   5.339   5.832   4.181
 4375TIP3   OH213067   2.642   1.291  -0.018
 4375TIP3    H113068   2.662   1.334  -0.101
 4375TIP3    H213069   2.618   1.362   0.041
 4376TIP3   OH213070   5.630   6.947   3.083
 4376TIP3    H113071   5.572   7.005   3.033
 4376TIP3    H213072   5.571   6.881   3.120
 4377TIP3   OH213073   6.773   3.600   0.881
 4377TIP3    H113074   6.843   3.544   0.915
 4377TIP3    H213075   6.772   3.581   0.787
 4378TIP3   OH213076   7.653   2.354   1.935
 4378TIP3    H113077   7.592   2.314   1.998
 4378TIP3    H213078   7.611   2.436   1.909
 4379TIP3   OH213079   8.069   4.048   4.589
 4379TIP3    H113080   8.150   4.081   4.550
 4379TIP3    H213081   8.068   3.955   4.567
 4380TIP3   OH213082   4.481   0.617   6.620
 4380TIP3    H113083   4.480   0.712   6.634
 4380TIP3    H213084   4.439   0.581   6.699
 4381TIP3   OH213085   4.303   5.268   3.410
 4381TIP3    H113086   4.315   5.334   3.479
 4381TIP3    H213087   4.260   5.315   3.339
 4382TIP3   OH213088   7.945   4.840   6.283
 4382TIP3    H113089   8.020   4.886   6.246
 4382TIP3    H213090   7.932   4.879   6.369
 4383TIP3   OH213091   2.465   4.859   1.832
 4383TIP3    H113092   2.413   4.799   1.886
 4383TIP3    H213093   2.514   4.801   1.773
 4384TIP3   OH213094   2.841   6.169   0.356
 4384TIP3    H113095   2.764   6.194   0.407
 4384TIP3    H213096   2.810   6.168   0.265
 4385TIP3   OH213097   2.247   3.296   4.215
 4385TIP3    H113098   2.274   3.313   4.125
 4385TIP3    H213099   2.181   3.227   4.208
 4386TIP3   OH213100   7.077   1.347   0.078
 4386TIP3    H113101   7.156   1.401   0.089
 4386TIP3    H213102   7.060   1.311   0.165
 4387TIP3   OH213103   7.914   6.592   6.406
 4387TIP3    H113104   7.916   6.594   6.502
 4387TIP3    H213105   7.972   6.664   6.379
 4388TIP3   OH213106   8.104   2.868   1.613
 4388TIP3    H113107   8.036   2.927   1.580
 4388TIP3    H213108   8.059   2.785   1.626
 4389TIP3   OH213109   5.832   3.731   5.154
 4389TIP3    H113110   5.895   3.795   5.120
 4389TIP3    H213111   5.868   3.646   5.129
 4390TIP3   OH213112   3.392   3.577   0.213
 4390TIP3    H113113   3.414   3.645   0.149
 4390TIP3    H213114   3.298   3.562   0.200
 4391TIP3   OH213115   4.719   0.010   2.259
 4391TIP3    H113116   4.647   0.068   2.235
 4391TIP3    H213117   4.715   0.004   2.355
 4392TIP3   OH213118   8.203   5.184   5.363
 4392TIP3    H113119   8.183   5.124   5.292
 4392TIP3    H213120   8.171   5.140   5.442
 4393TIP3   OH213121   3.348   6.075   3.200
 4393TIP3    H113122   3.415   6.008   3.214
 4393TIP3    H213123   3.274   6.046   3.253
 4394TIP3   OH213124   8.203   1.560   4.757
 4394TIP3    H113125   8.284   1.560   4.809
 4394TIP3    H213126   8.138   1.601   4.814
 4395TIP3   OH213127   5.490   2.977   3.454
 4395TIP3    H113128   5.576   2.935   3.456
 4395TIP3    H213129   5.446   2.946   3.533
 4396TIP3   OH213130   2.735   5.514  -0.009
 4396TIP3    H113131   2.675   5.493  -0.080
 4396TIP3    H213132   2.805   5.449  -0.018
 4397TIP3   OH213133   3.390   0.738   0.944
 4397TIP3    H113134   3.472   0.711   0.984
 4397TIP3    H213135   3.323   0.686   0.989
 4398TIP3   OH213136   0.056   1.548   3.446
 4398TIP3    H113137   0.067   1.474   3.387
 4398TIP3    H213138   0.119   1.533   3.516
 4399TIP3   OH213139   4.844   1.750   3.327
 4399TIP3    H113140   4.891   1.676   3.366
 4399TIP3    H213141   4.796   1.712   3.254
 4400TIP3   OH213142   0.245   6.333   4.605
 4400TIP3    H113143   0.291   6.392   4.665
 4400TIP3    H213144   0.279   6.356   4.518
 4401TIP3   OH213145   4.123   0.427   0.032
 4401TIP3    H113146   4.033   0.453   0.048
 4401TIP3    H213147   4.122   0.332   0.033
 4402TIP3   OH213148   5.597   6.725   0.810
 4402TIP3    H113149   5.563   6.776   0.737
 4402TIP3    H213150   5.626   6.790   0.874
 4403TIP3   OH213151   7.018   5.692   4.414
 4403TIP3    H113152   6.986   5.685   4.324
 4403TIP3    H213153   6.990   5.780   4.442
 4404TIP3   OH213154   0.838   2.371   5.442
 4404TIP3    H113155   0.825   2.441   5.378
 4404TIP3    H213156   0.893   2.411   5.510
 4405TIP3   OH213157   6.399   6.240   1.184
 4405TIP3    H113158   6.322   6.295   1.171
 4405TIP3    H213159   6.369   6.172   1.245
 4406TIP3   OH213160   1.823   1.981   2.414
 4406TIP3    H113161   1.829   1.957   2.506
 4406TIP3    H213162   1.882   2.056   2.405
 4407TIP3   OH213163   0.588   0.512   3.384
 4407TIP3    H113164   0.598   0.551   3.471
 4407TIP3    H213165   0.493   0.505   3.372
 4408TIP3   OH213166   3.095   1.903   3.461
 4408TIP3    H113167   3.134   1.827   3.419
 4408TIP3    H213168   3.030   1.867   3.521
 4409TIP3   OH213169   7.151   1.844   5.076
 4409TIP3    H113170   7.136   1.783   5.004
 4409TIP3    H213171   7.183   1.790   5.147
 4410TIP3   OH213172   4.858   1.334   1.105
 4410TIP3    H113173   4.766   1.344   1.081
 4410TIP3    H213174   4.873   1.240   1.107
 4411TIP3   OH213175   1.762   5.692   0.951
 4411TIP3    H113176   1.710   5.616   0.924
 4411TIP3    H213177   1.787   5.673   1.042
 4412TIP3   OH213178   7.598   7.642   0.082
 4412TIP3    H113179   7.683   7.664   0.121
 4412TIP3    H213180   7.541   7.715   0.103
 4413TIP3   OH213181   6.794   2.031   5.929
 4413TIP3    H113182   6.769   1.951   5.975
 4413TIP3    H213183   6.771   2.101   5.990
 4414TIP3   OH213184   0.926   0.647   5.420
 4414TIP3    H113185   1.020   0.639   5.403
 4414TIP3    H213186   0.900   0.725   5.370
 4415TIP3   OH213187   1.555   0.229   4.921
 4415TIP3    H113188   1.514   0.308   4.886
 4415TIP3    H213189   1.588   0.254   5.007
 4416TIP3   OH213190   2.069   7.327   2.077
 4416TIP3    H113191   2.123   7.393   2.120
 4416TIP3    H213192   2.075   7.250   2.134
 4417TIP3   OH213193   2.112   6.944   6.366
 4417TIP3    H113194   2.115   6.848   6.368
 4417TIP3    H213195   2.204   6.971   6.374
 4418TIP3   OH213196   2.542   3.671   6.176
 4418TIP3    H113197   2.517   3.606   6.241
 4418TIP3    H213198   2.462   3.721   6.159
 4419TIP3   OH213199   7.591   1.502   6.685
 4419TIP3    H113200   7.593   1.589   6.645
 4419TIP3    H213201   7.610   1.442   6.613
 4420TIP3   OH213202   4.057   3.293   6.186
 4420TIP3    H113203   4.107   3.344   6.122
 4420TIP3    H213204   4.119   3.227   6.218
 4421TIP3   OH213205   4.763   3.904   2.591
 4421TIP3    H113206   4.762   3.829   2.650
 4421TIP3    H213207   4.783   3.867   2.505
 4422TIP3   OH213208   6.838   0.968   1.763
 4422TIP3    H113209   6.874   0.980   1.852
 4422TIP3    H213210   6.792   0.885   1.768
 4423TIP3   OH213211   7.140   7.096   1.317
 4423TIP3    H113212   7.214   7.157   1.315
 4423TIP3    H213213   7.178   7.013   1.345
 4424TIP3   OH213214   7.785   1.617   5.191
 4424TIP3    H113215   7.697   1.638   5.222
 4424TIP3    H213216   7.803   1.683   5.124
 4425TIP3   OH213217   3.918   3.704   2.830
 4425TIP3    H113218   3.939   3.795   2.850
 4425TIP3    H213219   3.823   3.703   2.819
 4426TIP3   OH213220   4.309   6.514   0.127
 4426TIP3    H113221   4.373   6.505   0.198
 4426TIP3    H213222   4.225   6.517   0.172
 4427TIP3   OH213223   1.888   2.402   2.867
 4427TIP3    H113224   1.833   2.352   2.807
 4427TIP3    H213225   1.903   2.485   2.822
 4428TIP3   OH213226   5.377   5.909   2.038
 4428TIP3    H113227   5.433   5.955   2.102
 4428TIP3    H213228   5.349   5.978   1.978
 4429TIP3   OH213229   5.137   7.611   4.948
 4429TIP3    H113230   5.042   7.607   4.958
 4429TIP3    H213231   5.163   7.522   4.923
 4430TIP3   OH213232   6.922   7.684   2.949
 4430TIP3    H113233   6.877   7.608   2.986
 4430TIP3    H213234   6.975   7.648   2.878
 4431TIP3   OH213235   5.348   1.500   4.227
 4431TIP3    H113236   5.374   1.427   4.170
 4431TIP3    H213237   5.326   1.571   4.167
 4432TIP3   OH213238   1.891   3.064   4.387
 4432TIP3    H113239   1.895   2.968   4.394
 4432TIP3    H213240   1.822   3.080   4.323
 4433TIP3   OH213241   4.537   4.699   3.897
 4433TIP3    H113242   4.631   4.697   3.919
 4433TIP3    H213243   4.506   4.782   3.933
 4434TIP3   OH213244   8.180   2.090   5.753
 4434TIP3    H113245   8.215   2.171   5.717
 4434TIP3    H213246   8.209   2.022   5.692
 4435TIP3   OH213247   3.669   7.596   6.692
 4435TIP3    H113248   3.736   7.582   6.625
 4435TIP3    H213249   3.686   7.528   6.757
 4436TIP3   OH213250   2.432   1.933   2.260
 4436TIP3    H113251   2.487   1.913   2.184
 4436TIP3    H213252   2.355   1.976   2.223
 4437TIP3   OH213253   0.270   0.461   4.035
 4437TIP3    H113254   0.181   0.427   4.049
 4437TIP3    H213255   0.282   0.455   3.940
 4438TIP3   OH213256   0.124   1.516   4.927
 4438TIP3    H113257   0.199   1.532   4.870
 4438TIP3    H213258   0.156   1.539   5.015
 4439TIP3   OH213259   6.735   3.015   0.757
 4439TIP3    H113260   6.670   2.946   0.744
 4439TIP3    H213261   6.688   3.096   0.737
 4440TIP3   OH213262   2.698   1.812   0.555
 4440TIP3    H113263   2.750   1.735   0.534
 4440TIP3    H213264   2.746   1.885   0.514
 4441TIP3   OH213265   4.776   5.245   5.439
 4441TIP3    H113266   4.693   5.204   5.463
 4441TIP3    H213267   4.816   5.182   5.377
 4442TIP3   OH213268   2.860   0.751   1.508
 4442TIP3    H113269   2.776   0.791   1.487
 4442TIP3    H213270   2.894   0.722   1.423
 4443TIP3   OH213271   6.285   2.473   3.489
 4443TIP3    H113272   6.327   2.418   3.555
 4443TIP3    H213273   6.256   2.411   3.422
 4444TIP3   OH213274   1.119   1.076   2.321
 4444TIP3    H113275   1.145   1.071   2.413
 4444TIP3    H213276   1.154   1.159   2.290
 4445TIP3   OH213277   1.907   5.961   0.108
 4445TIP3    H113278   1.918   5.867   0.099
 4445TIP3    H213279   1.832   5.971   0.167
 4446TIP3   OH213280   4.435   2.795   6.360
 4446TIP3    H113281   4.424   2.831   6.272
 4446TIP3    H213282   4.477   2.865   6.410
 4447TIP3   OH213283   3.815   7.134   2.909
 4447TIP3    H113284   3.827   7.229   2.904
 4447TIP3    H213285   3.887   7.098   2.857
 4448TIP3   OH213286   5.304   7.443   5.975
 4448TIP3    H113287   5.325   7.386   5.902
 4448TIP3    H213288   5.210   7.457   5.970
 4449TIP3   OH213289   5.903   4.338   0.197
 4449TIP3    H113290   5.911   4.319   0.290
 4449TIP3    H213291   5.819   4.382   0.188
 4450TIP3   OH213292   6.708   1.550   5.827
 4450TIP3    H113293   6.672   1.612   5.890
 4450TIP3    H213294   6.655   1.471   5.839
 4451TIP3   OH213295   3.446   1.924   4.616
 4451TIP3    H113296   3.372   1.866   4.597
 4451TIP3    H213297   3.421   2.008   4.578
 4452TIP3   OH213298   0.187   0.907   2.014
 4452TIP3    H113299   0.254   0.851   1.975
 4452TIP3    H213300   0.141   0.851   2.076
 4453TIP3   OH213301   8.191   0.208   3.083
 4453TIP3    H113302   8.210   0.221   3.175
 4453TIP3    H213303   8.095   0.200   3.079
 4454TIP3   OH213304   2.213   5.684   2.846
 4454TIP3    H113305   2.251   5.693   2.758
 4454TIP3    H213306   2.157   5.607   2.840
 4455TIP3   OH213307   1.849   3.110   3.293
 4455TIP3    H113308   1.822   3.155   3.373
 4455TIP3    H213309   1.903   3.174   3.247
 4456TIP3   OH213310   3.626   6.958   4.005
 4456TIP3    H113311   3.640   7.042   3.961
 4456TIP3    H213312   3.534   6.937   3.986
 4457TIP3   OH213313   0.656   1.564   6.566
 4457TIP3    H113314   0.650   1.638   6.627
 4457TIP3    H213315   0.665   1.488   6.623
 4458TIP3   OH213316   7.551   1.800   4.680
 4458TIP3    H113317   7.631   1.799   4.733
 4458TIP3    H213318   7.559   1.878   4.626
 4459TIP3   OH213319   7.114   5.194   4.183
 4459TIP3    H113320   7.160   5.251   4.245
 4459TIP3    H213321   7.033   5.241   4.162
 4460TIP3   OH213322   1.332   2.441   0.743
 4460TIP3    H113323   1.330   2.532   0.713
 4460TIP3    H213324   1.331   2.390   0.662
 4461TIP3   OH213325   5.286   2.739   2.347
 4461TIP3    H113326   5.286   2.720   2.253
 4461TIP3    H213327   5.288   2.835   2.352
 4462TIP3   OH213328   4.485   4.292   1.635
 4462TIP3    H113329   4.472   4.234   1.560
 4462TIP3    H213330   4.550   4.356   1.604
 4463TIP3   OH213331   6.268   0.237   0.620
 4463TIP3    H113332   6.265   0.323   0.577
 4463TIP3    H213333   6.244   0.175   0.551
 4464TIP3   OH213334   5.058   7.617   5.262
 4464TIP3    H113335   5.024   7.705   5.279
 4464TIP3    H213336   5.149   7.632   5.234
 4465TIP3   OH213337   2.059   2.497   0.670
 4465TIP3    H113338   2.081   2.473   0.760
 4465TIP3    H213339   1.965   2.516   0.673
 4466TIP3   OH213340   3.278   0.925   1.136
 4466TIP3    H113341   3.367   0.953   1.161
 4466TIP3    H213342   3.292   0.862   1.066
 4467TIP3   OH213343   6.256   6.639   6.760
 4467TIP3    H113344   6.225   6.659   6.848
 4467TIP3    H213345   6.319   6.709   6.741
 4468TIP3   OH213346   6.127   0.148   4.700
 4468TIP3    H113347   6.208   0.169   4.653
 4468TIP3    H213348   6.088   0.076   4.650
 4469TIP3   OH213349   3.429   2.409   0.253
 4469TIP3    H113350   3.470   2.492   0.276
 4469TIP3    H213351   3.497   2.362   0.204
 4470TIP3   OH213352   5.916   0.990   4.573
 4470TIP3    H113353   5.978   0.918   4.562
 4470TIP3    H213354   5.843   0.950   4.621
 4471TIP3   OH213355   3.031   4.867   1.419
 4471TIP3    H113356   2.981   4.790   1.390
 4471TIP3    H213357   3.070   4.839   1.502
 4472TIP3   OH213358   7.890   3.682   2.204
 4472TIP3    H113359   7.867   3.606   2.152
 4472TIP3    H213360   7.981   3.701   2.182
 4473TIP3   OH213361   2.549   6.016   6.293
 4473TIP3    H113362   2.626   6.072   6.283
 4473TIP3    H213363   2.475   6.075   6.282
 4474TIP3   OH213364   0.726   0.028   3.967
 4474TIP3    H113365   0.786   0.024   4.042
 4474TIP3    H213366   0.758   0.101   3.915
 4475TIP3   OH213367   7.519   5.112   1.177
 4475TIP3    H113368   7.568   5.092   1.097
 4475TIP3    H213369   7.463   5.035   1.191
 4476TIP3   OH213370   8.065   2.984   1.112
 4476TIP3    H113371   8.105   2.931   1.043
 4476TIP3    H213372   8.051   3.070   1.072
 4477TIP3   OH213373   1.696   1.325   2.943
 4477TIP3    H113374   1.783   1.322   2.903
 4477TIP3    H213375   1.705   1.387   3.015
 4478TIP3   OH213376   6.033   6.526   0.112
 4478TIP3    H113377   6.041   6.449   0.056
 4478TIP3    H213378   6.122   6.544   0.141
 4479TIP3   OH213379   2.693   4.066   0.043
 4479TIP3    H113380   2.643   3.989   0.071
 4479TIP3    H213381   2.626   4.134   0.030
 4480TIP3   OH213382   3.662   2.448   3.112
 4480TIP3    H113383   3.634   2.445   3.204
 4480TIP3    H213384   3.716   2.527   3.107
 4481TIP3   OH213385   5.163   4.033   1.818
 4481TIP3    H113386   5.238   4.088   1.796
 4481TIP3    H213387   5.190   3.985   1.896
 4482TIP3   OH213388   2.211   5.942   5.130
 4482TIP3    H113389   2.296   5.929   5.172
 4482TIP3    H213390   2.152   5.966   5.202
 4483TIP3   OH213391   4.430   2.301   1.636
 4483TIP3    H113392   4.410   2.334   1.723
 4483TIP3    H213393   4.398   2.369   1.577
 4484TIP3   OH213394   7.438   3.564   4.249
 4484TIP3    H113395   7.504   3.495   4.257
 4484TIP3    H213396   7.429   3.600   4.337
 4485TIP3   OH213397   3.101   4.850   5.581
 4485TIP3    H113398   3.130   4.896   5.660
 4485TIP3    H213399   3.118   4.912   5.510
 4486TIP3   OH213400   2.780   2.856   6.204
 4486TIP3    H113401   2.773   2.885   6.113
 4486TIP3    H213402   2.868   2.820   6.211
 4487TIP3   OH213403   7.133   7.523   5.457
 4487TIP3    H113404   7.221   7.557   5.439
 4487TIP3    H213405   7.094   7.586   5.517
 4488TIP3   OH213406   0.985   0.191  -0.023
 4488TIP3    H113407   0.996   0.133   0.053
 4488TIP3    H213408   0.898   0.230  -0.010
 4489TIP3   OH213409   3.615   4.920   1.843
 4489TIP3    H113410   3.656   4.992   1.795
 4489TIP3    H213411   3.539   4.960   1.885
 4490TIP3   OH213412   0.685   3.279   5.501
 4490TIP3    H113413   0.774   3.305   5.479
 4490TIP3    H213414   0.685   3.184   5.496
 4491TIP3   OH213415   0.809   2.079   3.568
 4491TIP3    H113416   0.771   2.052   3.484
 4491TIP3    H213417   0.759   2.031   3.633
 4492TIP3   OH213418   3.879   7.463   0.971
 4492TIP3    H113419   3.891   7.490   1.062
 4492TIP3    H213420   3.787   7.479   0.953
 4493TIP3   OH213421   8.108   2.538   3.211
 4493TIP3    H113422   8.192   2.581   3.196
 4493TIP3    H213423   8.125   2.476   3.282
 4494TIP3   OH213424   3.220   7.689   2.335
 4494TIP3    H113425   3.126   7.703   2.328
 4494TIP3    H213426   3.256   7.724   2.254
 4495TIP3   OH213427   0.334   5.848   2.547
 4495TIP3    H113428   0.249   5.811   2.523
 4495TIP3    H213429   0.323   5.943   2.536
 4496TIP3   OH213430   6.311   4.853   3.302
 4496TIP3    H113431   6.264   4.934   3.282
 4496TIP3    H213432   6.257   4.784   3.263
 4497TIP3   OH213433   5.051   1.516   1.187
 4497TIP3    H113434   4.987   1.447   1.172
 4497TIP3    H213435   5.018   1.591   1.138
 4498TIP3   OH213436   2.967   2.422   2.223
 4498TIP3    H113437   2.917   2.502   2.238
 4498TIP3    H213438   2.998   2.431   2.133
 4499TIP3   OH213439   1.452   2.561   6.369
 4499TIP3    H113440   1.413   2.561   6.282
 4499TIP3    H213441   1.546   2.560   6.353
 4500TIP3   OH213442   6.398   5.515   1.614
 4500TIP3    H113443   6.371   5.456   1.543
 4500TIP3    H213444   6.317   5.559   1.640
 4501TIP3   OH213445   0.146   6.428   5.147
 4501TIP3    H113446   0.192   6.384   5.219
 4501TIP3    H213447   0.213   6.439   5.079
 4502TIP3   OH213448   3.081   3.018   0.845
 4502TIP3    H113449   3.120   3.046   0.763
 4502TIP3    H213450   3.104   2.925   0.852
 4503TIP3   OH213451   3.584   2.343   4.376
 4503TIP3    H113452   3.543   2.270   4.330
 4503TIP3    H213453   3.523   2.416   4.365
 4504TIP3   OH213454   7.507   2.553   2.806
 4504TIP3    H113455   7.600   2.563   2.824
 4504TIP3    H213456   7.477   2.488   2.870
 4505TIP3   OH213457   7.748   4.367   2.554
 4505TIP3    H113458   7.676   4.351   2.493
 4505TIP3    H213459   7.822   4.389   2.498
 4506TIP3   OH213460   5.527   4.754   3.843
 4506TIP3    H113461   5.570   4.669   3.832
 4506TIP3    H213462   5.563   4.809   3.774
 4507TIP3   OH213463   5.286   4.266   6.148
 4507TIP3    H113464   5.255   4.243   6.061
 4507TIP3    H213465   5.312   4.358   6.141
 4508TIP3   OH213466   8.093   0.621   5.569
 4508TIP3    H113467   8.111   0.527   5.577
 4508TIP3    H213468   8.018   0.625   5.509
 4509TIP3   OH213469   7.406   4.791   4.026
 4509TIP3    H113470   7.490   4.815   3.985
 4509TIP3    H213471   7.373   4.873   4.063
 4510TIP3   OH213472   5.296   1.966   5.808
 4510TIP3    H113473   5.306   1.892   5.868
 4510TIP3    H213474   5.385   1.983   5.775
 4511TIP3   OH213475   7.621   0.147   2.177
 4511TIP3    H113476   7.532   0.182   2.183
 4511TIP3    H213477   7.634   0.101   2.260
 4512TIP3   OH213478   3.829   1.227   1.617
 4512TIP3    H113479   3.882   1.294   1.660
 4512TIP3    H213480   3.886   1.192   1.549
 4513TIP3   OH213481   2.159   7.767   1.828
 4513TIP3    H113482   2.192   7.820   1.756
 4513TIP3    H213483   2.173   7.822   1.906
 4514TIP3   OH213484   7.876   1.814   1.497
 4514TIP3    H113485   7.938   1.854   1.436
 4514TIP3    H213486   7.794   1.810   1.449
 4515TIP3   OH213487   4.061   3.585   4.578
 4515TIP3    H113488   4.101   3.502   4.551
 4515TIP3    H213489   3.975   3.585   4.537
 4516TIP3   OH213490   4.098   0.247   5.918
 4516TIP3    H113491   4.145   0.265   6.000
 4516TIP3    H213492   4.034   0.317   5.911
 4517TIP3   OH213493   1.150   1.582   2.759
 4517TIP3    H113494   1.215   1.546   2.699
 4517TIP3    H213495   1.177   1.672   2.773
 4518TIP3   OH213496   2.148   7.012   0.602
 4518TIP3    H113497   2.125   7.101   0.576
 4518TIP3    H213498   2.088   6.956   0.554
 4519TIP3   OH213499   0.430   4.468   5.720
 4519TIP3    H113500   0.476   4.443   5.640
 4519TIP3    H213501   0.481   4.428   5.790
 4520TIP3   OH213502   2.431   0.225   5.993
 4520TIP3    H113503   2.406   0.280   6.067
 4520TIP3    H213504   2.454   0.287   5.924
 4521TIP3   OH213505   6.216   4.554   5.234
 4521TIP3    H113506   6.258   4.629   5.277
 4521TIP3    H213507   6.256   4.477   5.274
 4522TIP3   OH213508   2.435   7.411   3.547
 4522TIP3    H113509   2.516   7.399   3.497
 4522TIP3    H213510   2.461   7.465   3.622
 4523TIP3   OH213511   6.970   1.175   2.185
 4523TIP3    H113512   7.020   1.230   2.244
 4523TIP3    H213513   6.885   1.165   2.228
 4524TIP3   OH213514   7.894   6.774   3.094
 4524TIP3    H113515   7.924   6.861   3.121
 4524TIP3    H213516   7.974   6.723   3.085
 4525TIP3   OH213517   8.085   6.986   4.718
 4525TIP3    H113518   8.118   6.935   4.645
 4525TIP3    H213519   8.067   6.921   4.787
 4526TIP3   OH213520   0.060   2.495   6.709
 4526TIP3    H113521   0.021   2.472   6.793
 4526TIP3    H213522   0.152   2.513   6.729
 4527TIP3   OH213523   7.378   5.915   1.414
 4527TIP3    H113524   7.321   5.938   1.487
 4527TIP3    H213525   7.466   5.935   1.446
 4528TIP3   OH213526   5.143   0.865   3.303
 4528TIP3    H113527   5.213   0.927   3.281
 4528TIP3    H213528   5.069   0.891   3.248
 4529TIP3   OH213529   2.354   3.513   3.572
 4529TIP3    H113530   2.409   3.582   3.536
 4529TIP3    H213531   2.272   3.557   3.595
 4530TIP3   OH213532   4.945   2.609   3.334
 4530TIP3    H113533   4.951   2.514   3.323
 4530TIP3    H213534   4.854   2.625   3.358
 4531TIP3   OH213535   1.623   5.770   3.749
 4531TIP3    H113536   1.631   5.845   3.690
 4531TIP3    H213537   1.687   5.787   3.818
 4532TIP3   OH213538   5.694   5.173   1.852
 4532TIP3    H113539   5.683   5.244   1.915
 4532TIP3    H213540   5.675   5.213   1.767
 4533TIP3   OH213541   8.170   1.067   4.653
 4533TIP3    H113542   8.245   1.008   4.666
 4533TIP3    H213543   8.198   1.150   4.691
 4534TIP3   OH213544   6.180   7.257   1.672
 4534TIP3    H113545   6.198   7.169   1.640
 4534TIP3    H213546   6.098   7.248   1.721
 4535TIP3   OH213547   5.630   2.599   1.309
 4535TIP3    H113548   5.717   2.631   1.286
 4535TIP3    H213549   5.590   2.671   1.358
 4536TIP3   OH213550   0.760   0.979   3.901
 4536TIP3    H113551   0.762   0.886   3.879
 4536TIP3    H213552   0.807   0.986   3.984
 4537TIP3   OH213553   3.969   4.464   4.674
 4537TIP3    H113554   4.055   4.451   4.714
 4537TIP3    H213555   3.971   4.553   4.639
 4538TIP3   OH213556   7.249   1.057   0.469
 4538TIP3    H113557   7.237   0.974   0.424
 4538TIP3    H213558   7.320   1.100   0.421
 4539TIP3   OH213559   4.920   4.877   3.118
 4539TIP3    H113560   4.881   4.964   3.118
 4539TIP3    H213561   4.955   4.866   3.206
 4540TIP3   OH213562   3.478   6.707   2.583
 4540TIP3    H113563   3.446   6.794   2.559
 4540TIP3    H213564   3.400   6.658   2.606
 4541TIP3   OH213565   3.606   0.916   0.631
 4541TIP3    H113566   3.593   0.958   0.716
 4541TIP3    H213567   3.700   0.918   0.617
 4542TIP3   OH213568   4.137   0.691   5.344
 4542TIP3    H113569   4.229   0.718   5.344
 4542TIP3    H213570   4.115   0.678   5.252
 4543TIP3   OH213571   6.372   3.804   6.357
 4543TIP3    H113572   6.404   3.718   6.332
 4543TIP3    H213573   6.437   3.865   6.322
 4544TIP3   OH213574   4.247   1.562   0.747
 4544TIP3    H113575   4.288   1.554   0.661
 4544TIP3    H213576   4.258   1.477   0.788
 4545TIP3   OH213577   3.044   7.334   5.754
 4545TIP3    H113578   3.076   7.420   5.729
 4545TIP3    H213579   3.025   7.341   5.848
 4546TIP3   OH213580   6.573   6.624   5.574
 4546TIP3    H113581   6.662   6.593   5.565
 4546TIP3    H213582   6.518   6.547   5.562
 4547TIP3   OH213583   4.703   7.328   1.112
 4547TIP3    H113584   4.758   7.385   1.058
 4547TIP3    H213585   4.661   7.388   1.174
 4548TIP3   OH213586   2.941   1.802   3.870
 4548TIP3    H113587   2.997   1.770   3.940
 4548TIP3    H213588   2.862   1.748   3.876
 4549TIP3   OH213589   4.348   2.754   3.833
 4549TIP3    H113590   4.383   2.761   3.744
 4549TIP3    H213591   4.424   2.769   3.889
 4550TIP3   OH213592   5.624   0.035  -0.030
 4550TIP3    H113593   5.689   0.076  -0.087
 4550TIP3    H213594   5.669   0.021   0.053
 4551TIP3   OH213595   7.932   7.265   3.233
 4551TIP3    H113596   7.898   7.349   3.201
 4551TIP3    H213597   7.924   7.271   3.328
 4552TIP3   OH213598   3.907   4.072   4.745
 4552TIP3    H113599   4.002   4.064   4.743
 4552TIP3    H213600   3.889   4.123   4.824
 4553TIP3   OH213601   6.333   5.419   3.051
 4553TIP3    H113602   6.404   5.383   3.105
 4553TIP3    H213603   6.254   5.395   3.099
 4554TIP3   OH213604   2.480   7.020   5.466
 4554TIP3    H113605   2.466   6.939   5.516
 4554TIP3    H213606   2.417   7.013   5.394
 4555TIP3   OH213607   1.931   4.057   2.552
 4555TIP3    H113608   1.950   4.143   2.589
 4555TIP3    H213609   2.015   4.013   2.548
 4556TIP3   OH213610   3.269   1.529   2.445
 4556TIP3    H113611   3.218   1.454   2.473
 4556TIP3    H213612   3.353   1.519   2.489
 4557TIP3   OH213613   1.468   4.071   2.756
 4557TIP3    H113614   1.491   4.100   2.668
 4557TIP3    H213615   1.461   3.975   2.749
 4558TIP3   OH213616   1.673   0.333   0.848
 4558TIP3    H113617   1.625   0.379   0.917
 4558TIP3    H213618   1.688   0.399   0.780
 4559TIP3   OH213619   3.845   2.993   0.551
 4559TIP3    H113620   3.884   3.066   0.599
 4559TIP3    H213621   3.873   3.007   0.460
 4560TIP3   OH213622   1.965   0.392   3.332
 4560TIP3    H113623   1.990   0.300   3.337
 4560TIP3    H213624   2.036   0.438   3.378
 4561TIP3   OH213625   6.074   2.751   6.291
 4561TIP3    H113626   6.077   2.731   6.198
 4561TIP3    H213627   6.009   2.691   6.327
 4562TIP3   OH213628   0.513   6.647   6.467
 4562TIP3    H113629   0.577   6.575   6.471
 4562TIP3    H213630   0.531   6.700   6.545
 4563TIP3   OH213631   6.092   0.751   1.008
 4563TIP3    H113632   6.142   0.689   1.061
 4563TIP3    H213633   6.007   0.709   0.997
 4564TIP3   OH213634   3.229   1.365   6.306
 4564TIP3    H113635   3.320   1.389   6.324
 4564TIP3    H213636   3.187   1.447   6.282
 4565TIP3   OH213637   6.094   2.905   4.891
 4565TIP3    H113638   6.160   2.886   4.824
 4565TIP3    H213639   6.025   2.951   4.843
 4566TIP3   OH213640   3.553   1.172   4.183
 4566TIP3    H113641   3.647   1.159   4.198
 4566TIP3    H213642   3.515   1.172   4.270
 4567TIP3   OH213643   2.771   1.513   4.266
 4567TIP3    H113644   2.727   1.593   4.294
 4567TIP3    H213645   2.779   1.460   4.345
 4568TIP3   OH213646   0.146   1.065   3.958
 4568TIP3    H113647   0.211   1.065   4.029
 4568TIP3    H213648   0.097   0.984   3.970
 4569TIP3   OH213649   3.188   3.744   6.664
 4569TIP3    H113650   3.169   3.832   6.632
 4569TIP3    H213651   3.253   3.710   6.602
 4570TIP3   OH213652   3.203   1.079   3.843
 4570TIP3    H113653   3.236   1.032   3.920
 4570TIP3    H213654   3.112   1.099   3.865
 4571TIP3   OH213655   3.136   2.479   4.116
 4571TIP3    H113656   3.141   2.565   4.074
 4571TIP3    H213657   3.046   2.451   4.100
 4572TIP3   OH213658   0.323   4.571   1.951
 4572TIP3    H113659   0.334   4.477   1.963
 4572TIP3    H213660   0.270   4.580   1.872
 4573TIP3   OH213661   0.282   2.505   0.375
 4573TIP3    H113662   0.281   2.593   0.336
 4573TIP3    H213663   0.295   2.446   0.301
 4574TIP3   OH213664   6.855   7.226   3.957
 4574TIP3    H113665   6.920   7.229   4.028
 4574TIP3    H213666   6.907   7.212   3.878
 4575TIP3   OH213667   7.577   6.311   2.965
 4575TIP3    H113668   7.623   6.342   3.043
 4575TIP3    H213669   7.574   6.387   2.907
 4576TIP3   OH213670   5.258   1.384   1.769
 4576TIP3    H113671   5.197   1.338   1.711
 4576TIP3    H213672   5.202   1.427   1.833
 4577TIP3   OH213673   1.682   3.848   1.804
 4577TIP3    H113674   1.753   3.876   1.863
 4577TIP3    H213675   1.674   3.754   1.819
 4578TIP3   OH213676   0.529   2.816   4.929
 4578TIP3    H113677   0.492   2.735   4.965
 4578TIP3    H213678   0.606   2.786   4.880
 4579TIP3   OH213679   3.279   1.915   2.502
 4579TIP3    H113680   3.222   1.869   2.563
 4579TIP3    H213681   3.295   1.853   2.431
 4580TIP3   OH213682   5.913   5.080   2.057
 4580TIP3    H113683   6.003   5.076   2.090
 4580TIP3    H213684   5.919   5.131   1.976
 4581TIP3   OH213685   1.015   4.791   1.179
 4581TIP3    H113686   1.053   4.707   1.205
 4581TIP3    H213687   0.922   4.771   1.164
 4582TIP3   OH213688   8.250   5.644   5.158
 4582TIP3    H113689   8.209   5.728   5.179
 4582TIP3    H213690   8.224   5.586   5.229
 4583TIP3   OH213691   1.499   5.201   6.458
 4583TIP3    H113692   1.415   5.154   6.457
 4583TIP3    H213693   1.553   5.152   6.519
 4584TIP3   OH213694   7.797   7.190   2.412
 4584TIP3    H113695   7.751   7.211   2.330
 4584TIP3    H213696   7.729   7.194   2.479
 4585TIP3   OH213697   2.135   2.543   1.770
 4585TIP3    H113698   2.199   2.472   1.771
 4585TIP3    H213699   2.110   2.550   1.678
 4586TIP3   OH213700   6.672   3.579   1.750
 4586TIP3    H113701   6.616   3.598   1.674
 4586TIP3    H213702   6.744   3.642   1.742
 4587TIP3   OH213703   1.163   6.859   3.351
 4587TIP3    H113704   1.138   6.883   3.262
 4587TIP3    H213705   1.228   6.790   3.340
 4588TIP3   OH213706   4.012   2.749   5.404
 4588TIP3    H113707   4.090   2.774   5.453
 4588TIP3    H213708   3.940   2.756   5.468
 4589TIP3   OH213709   5.173   7.110   4.560
 4589TIP3    H113710   5.268   7.098   4.566
 4589TIP3    H213711   5.159   7.202   4.581
 4590TIP3   OH213712   6.070   0.669   2.298
 4590TIP3    H113713   6.146   0.691   2.352
 4590TIP3    H213714   6.084   0.577   2.274
 4591TIP3   OH213715   4.681   6.542   2.773
 4591TIP3    H113716   4.647   6.537   2.684
 4591TIP3    H213717   4.630   6.476   2.821
 4592TIP3   OH213718   7.294   1.805   3.376
 4592TIP3    H113719   7.326   1.890   3.407
 4592TIP3    H213720   7.362   1.743   3.402
 4593TIP3   OH213721   2.922   6.098   1.031
 4593TIP3    H113722   2.853   6.158   1.059
 4593TIP3    H213723   2.998   6.124   1.083
 4594TIP3   OH213724   4.940   1.068   1.090
 4594TIP3    H113725   4.925   0.974   1.085
 4594TIP3    H213726   5.027   1.080   1.051
 4595TIP3   OH213727   2.250   2.692   0.792
 4595TIP3    H113728   2.290   2.606   0.808
 4595TIP3    H213729   2.186   2.677   0.723
 4596TIP3   OH213730   5.416   0.894   4.437
 4596TIP3    H113731   5.368   0.886   4.520
 4596TIP3    H213732   5.377   0.969   4.394
 4597TIP3   OH213733   1.659   0.520   0.634
 4597TIP3    H113734   1.669   0.542   0.541
 4597TIP3    H213735   1.705   0.590   0.680
 4598TIP3   OH213736   6.282   1.523   5.669
 4598TIP3    H113737   6.204   1.469   5.655
 4598TIP3    H213738   6.288   1.534   5.764
 4599TIP3   OH213739   2.572   1.411   3.316
 4599TIP3    H113740   2.496   1.442   3.366
 4599TIP3    H213741   2.534   1.352   3.251
 4600TIP3   OH213742   4.654   2.387   6.626
 4600TIP3    H113743   4.598   2.379   6.549
 4600TIP3    H213744   4.703   2.468   6.612
 4601TIP3   OH213745   1.623   2.167   5.981
 4601TIP3    H113746   1.604   2.244   5.928
 4601TIP3    H213747   1.703   2.189   6.029
 4602TIP3   OH213748   6.568   0.009   6.167
 4602TIP3    H113749   6.544   0.100   6.187
 4602TIP3    H213750   6.613   0.014   6.083
 4603TIP3   OH213751   5.774   3.685   0.078
 4603TIP3    H113752   5.823   3.615   0.034
 4603TIP3    H213753   5.690   3.645   0.100
 4604TIP3   OH213754   4.762   1.954   5.235
 4604TIP3    H113755   4.847   1.931   5.272
 4604TIP3    H213756   4.774   2.044   5.203
 4605TIP3   OH213757   2.185   7.367   6.306
 4605TIP3    H113758   2.115   7.302   6.295
 4605TIP3    H213759   2.156   7.420   6.380
 4606TIP3   OH213760   5.047   2.892   1.757
 4606TIP3    H113761   4.953   2.897   1.739
 4606TIP3    H213762   5.074   2.982   1.774
 4607TIP3   OH213763   4.307   0.337   2.791
 4607TIP3    H113764   4.334   0.348   2.882
 4607TIP3    H213765   4.218   0.371   2.788
 4608TIP3   OH213766   4.250   4.755   5.839
 4608TIP3    H113767   4.339   4.725   5.859
 4608TIP3    H213768   4.240   4.835   5.891
 4609TIP3   OH213769   3.860   1.284   3.968
 4609TIP3    H113770   3.853   1.198   3.927
 4609TIP3    H213771   3.790   1.336   3.928
 4610TIP3   OH213772   7.781   5.622   5.893
 4610TIP3    H113773   7.803   5.639   5.984
 4610TIP3    H213774   7.728   5.697   5.866
 4611TIP3   OH213775   5.526   1.058   5.383
 4611TIP3    H113776   5.570   0.974   5.391
 4611TIP3    H213777   5.435   1.040   5.405
 4612TIP3   OH213778   4.181   0.589   2.277
 4612TIP3    H113779   4.128   0.668   2.267
 4612TIP3    H213780   4.161   0.557   2.365
 4613TIP3   OH213781   5.429   0.437   2.390
 4613TIP3    H113782   5.347   0.392   2.369
 4613TIP3    H213783   5.404   0.530   2.395
 4614TIP3   OH213784   3.413   5.723   0.892
 4614TIP3    H113785   3.349   5.768   0.836
 4614TIP3    H213786   3.419   5.779   0.970
 4615TIP3   OH213787   5.671   7.564   3.351
 4615TIP3    H113788   5.662   7.469   3.346
 4615TIP3    H213789   5.732   7.579   3.423
 4616TIP3   OH213790   3.791   4.249   2.494
 4616TIP3    H113791   3.724   4.265   2.560
 4616TIP3    H213792   3.867   4.217   2.543
 4617TIP3   OH213793   0.307   4.459   3.780
 4617TIP3    H113794   0.283   4.406   3.705
 4617TIP3    H213795   0.339   4.541   3.743
 4618TIP3   OH213796   5.914   2.103   2.462
 4618TIP3    H113797   5.916   2.148   2.378
 4618TIP3    H213798   6.005   2.106   2.494
 4619TIP3   OH213799   5.798   7.187   5.230
 4619TIP3    H113800   5.785   7.168   5.137
 4619TIP3    H213801   5.710   7.209   5.263
 4620TIP3   OH213802   3.364   0.240   5.143
 4620TIP3    H113803   3.378   0.305   5.075
 4620TIP3    H213804   3.328   0.289   5.217
 4621TIP3   OH213805   5.330   1.684   4.036
 4621TIP3    H113806   5.346   1.744   4.109
 4621TIP3    H213807   5.265   1.729   3.982
 4622TIP3   OH213808   7.845   5.190   5.603
 4622TIP3    H113809   7.799   5.106   5.597
 4622TIP3    H213810   7.838   5.228   5.516
 4623TIP3   OH213811   4.369   4.385   4.161
 4623TIP3    H113812   4.454   4.341   4.164
 4623TIP3    H213813   4.349   4.393   4.068
 4624TIP3   OH213814   5.388   7.123   1.434
 4624TIP3    H113815   5.385   7.195   1.371
 4624TIP3    H213816   5.424   7.050   1.385
 4625TIP3   OH213817   4.542   6.710   3.631
 4625TIP3    H113818   4.587   6.644   3.578
 4625TIP3    H213819   4.612   6.759   3.674
 4626TIP3   OH213820   3.735   4.968   1.051
 4626TIP3    H113821   3.680   5.032   1.006
 4626TIP3    H213822   3.817   5.014   1.067
 4627TIP3   OH213823   0.203   5.417   2.954
 4627TIP3    H113824   0.290   5.452   2.970
 4627TIP3    H213825   0.176   5.456   2.871
 4628TIP3   OH213826   0.059   1.992   5.277
 4628TIP3    H113827   0.028   1.959   5.193
 4628TIP3    H213828   0.057   2.087   5.267
 4629TIP3   OH213829   6.754   0.783   4.796
 4629TIP3    H113830   6.790   0.718   4.857
 4629TIP3    H213831   6.693   0.834   4.848
 4630TIP3   OH213832   4.194   1.174   2.456
 4630TIP3    H113833   4.152   1.171   2.370
 4630TIP3    H213834   4.285   1.151   2.440
 4631TIP3   OH213835   1.784   3.033   2.488
 4631TIP3    H113836   1.776   2.952   2.538
 4631TIP3    H213837   1.703   3.080   2.506
 4632TIP3   OH213838   7.625   1.351   5.135
 4632TIP3    H113839   7.638   1.256   5.129
 4632TIP3    H213840   7.643   1.372   5.226
 4633TIP3   OH213841   5.441   5.799   0.528
 4633TIP3    H113842   5.499   5.749   0.585
 4633TIP3    H213843   5.391   5.855   0.588
 4634TIP3   OH213844   4.475   0.235   4.335
 4634TIP3    H113845   4.456   0.149   4.298
 4634TIP3    H213846   4.411   0.293   4.295
 4635TIP3   OH213847   6.205   0.841   5.392
 4635TIP3    H113848   6.162   0.793   5.321
 4635TIP3    H213849   6.147   0.829   5.467
 4636TIP3   OH213850   5.256   2.419   4.677
 4636TIP3    H113851   5.305   2.439   4.756
 4636TIP3    H213852   5.214   2.335   4.696
 4637TIP3   OH213853   4.396   1.844   4.171
 4637TIP3    H113854   4.420   1.919   4.225
 4637TIP3    H213855   4.309   1.866   4.137
 4638TIP3   OH213856   6.036   4.023   4.201
 4638TIP3    H113857   6.072   3.946   4.158
 4638TIP3    H213858   5.983   3.988   4.273
 4639TIP3   OH213859   6.434   2.176   0.067
 4639TIP3    H113860   6.475   2.205   0.148
 4639TIP3    H213861   6.501   2.121   0.025
 4640TIP3   OH213862   4.649   0.953   1.647
 4640TIP3    H113863   4.610   0.937   1.733
 4640TIP3    H213864   4.581   0.925   1.585
 4641TIP3   OH213865   6.178   0.526   1.144
 4641TIP3    H113866   6.122   0.451   1.164
 4641TIP3    H213867   6.267   0.491   1.144
 4642TIP3   OH213868   4.503   1.867   5.261
 4642TIP3    H113869   4.585   1.915   5.245
 4642TIP3    H213870   4.437   1.936   5.269
 4643TIP3   OH213871   4.136   2.324   3.046
 4643TIP3    H113872   4.178   2.268   3.111
 4643TIP3    H213873   4.204   2.387   3.021
 4644TIP3   OH213874   6.833   5.090   4.463
 4644TIP3    H113875   6.814   5.035   4.540
 4644TIP3    H213876   6.925   5.072   4.443
 4645TIP3   OH213877   0.729   5.544   0.137
 4645TIP3    H113878   0.660   5.594   0.093
 4645TIP3    H213879   0.717   5.454   0.107
 4646TIP3   OH213880   0.336   5.246   5.361
 4646TIP3    H113881   0.244   5.264   5.382
 4646TIP3    H213882   0.332   5.186   5.286
 4647TIP3   OH213883   2.062   0.039   6.486
 4647TIP3    H113884   1.977   0.002   6.462
 4647TIP3    H213885   2.080   0.004   6.573
 4648TIP3   OH213886   6.501   6.318   1.969
 4648TIP3    H113887   6.479   6.336   1.878
 4648TIP3    H213888   6.539   6.230   1.967
 4649TIP3   OH213889   1.705   0.572   2.504
 4649TIP3    H113890   1.747   0.655   2.524
 4649TIP3    H213891   1.674   0.539   2.588
 4650TIP3   OH213892   3.468   1.107   4.820
 4650TIP3    H113893   3.449   1.074   4.732
 4650TIP3    H213894   3.563   1.107   4.826
 4651TIP3   OH213895   6.324   4.693   1.257
 4651TIP3    H113896   6.404   4.745   1.262
 4651TIP3    H213897   6.314   4.657   1.345
 4652TIP3   OH213898   5.719   5.066   5.515
 4652TIP3    H113899   5.760   4.980   5.504
 4652TIP3    H213900   5.769   5.108   5.585
 4653TIP3   OH213901   6.929   7.152   1.694
 4653TIP3    H113902   6.920   7.130   1.602
 4653TIP3    H213903   6.839   7.164   1.725
 4654TIP3   OH213904   3.107   0.174   1.083
 4654TIP3    H113905   3.192   0.218   1.084
 4654TIP3    H213906   3.061   0.210   1.158
 4655TIP3   OH213907   5.724   4.417   2.451
 4655TIP3    H113908   5.657   4.357   2.484
 4655TIP3    H213909   5.732   4.394   2.359
 4656TIP3   OH213910   7.258   3.055   2.140
 4656TIP3    H113911   7.314   3.011   2.205
 4656TIP3    H213912   7.172   3.058   2.182
 4657TIP3   OH213913   7.304   6.653   1.521
 4657TIP3    H113914   7.391   6.686   1.544
 4657TIP3    H213915   7.245   6.704   1.577
 4658TIP3   OH213916   0.455   5.241   5.591
 4658TIP3    H113917   0.417   5.158   5.618
 4658TIP3    H213918   0.407   5.266   5.512
 4659TIP3   OH213919   4.327   7.168   4.297
 4659TIP3    H113920   4.308   7.180   4.390
 4659TIP3    H213921   4.308   7.076   4.281
 4660TIP3   OH213922   1.915   3.852   4.468
 4660TIP3    H113923   1.845   3.903   4.510
 4660TIP3    H213924   1.982   3.917   4.446
 4661TIP3   OH213925   0.304   0.670   5.541
 4661TIP3    H113926   0.326   0.720   5.619
 4661TIP3    H213927   0.350   0.714   5.469
 4662TIP3   OH213928   6.872   2.515   4.920
 4662TIP3    H113929   6.919   2.506   4.837
 4662TIP3    H213930   6.796   2.570   4.899
 4663TIP3   OH213931   0.387   4.526   4.951
 4663TIP3    H113932   0.445   4.465   4.997
 4663TIP3    H213933   0.379   4.489   4.863
 4664TIP3   OH213934   0.379   7.255   5.056
 4664TIP3    H113935   0.409   7.222   5.140
 4664TIP3    H213936   0.288   7.279   5.071
 4665TIP3   OH213937   2.934   7.149   4.084
 4665TIP3    H113938   2.962   7.145   4.175
 4665TIP3    H213939   2.910   7.059   4.062
 4666TIP3   OH213940   5.507   3.118   0.612
 4666TIP3    H113941   5.570   3.087   0.546
 4666TIP3    H213942   5.529   3.067   0.690
 4667TIP3   OH213943   0.021   0.775   4.410
 4667TIP3    H113944   0.087   0.793   4.477
 4667TIP3    H213945   0.068   0.731   4.340
 4668TIP3   OH213946   5.162   3.167   5.666
 4668TIP3    H113947   5.223   3.103   5.703
 4668TIP3    H213948   5.076   3.139   5.698
 4669TIP3   OH213949   6.391   6.424   4.175
 4669TIP3    H113950   6.330   6.356   4.205
 4669TIP3    H213951   6.383   6.494   4.239
 4670TIP3   OH213952   2.981   7.829   0.890
 4670TIP3    H113953   3.059   7.775   0.901
 4670TIP3    H213954   2.919   7.797   0.956
 4671TIP3   OH213955   6.124   6.648   2.695
 4671TIP3    H113956   6.048   6.699   2.725
 4671TIP3    H213957   6.087   6.586   2.632
 4672TIP3   OH213958   1.694   7.436   4.824
 4672TIP3    H113959   1.756   7.499   4.861
 4672TIP3    H213960   1.662   7.478   4.744
 4673TIP3   OH213961   0.633   1.716   2.464
 4673TIP3    H113962   0.608   1.653   2.532
 4673TIP3    H213963   0.601   1.677   2.383
 4674TIP3   OH213964   5.445   7.657   3.223
 4674TIP3    H113965   5.520   7.627   3.274
 4674TIP3    H213966   5.427   7.584   3.163
 4675TIP3   OH213967   1.965   7.786   5.683
 4675TIP3    H113968   2.032   7.724   5.655
 4675TIP3    H213969   2.009   7.841   5.749
 4676TIP3   OH213970   6.430   0.027   6.808
 4676TIP3    H113971   6.499   0.079   6.767
 4676TIP3    H213972   6.443  -0.062   6.773
 4677TIP3   OH213973   3.482   0.975   4.568
 4677TIP3    H113974   3.549   1.027   4.523
 4677TIP3    H213975   3.405   0.981   4.511
 4678TIP3   OH213976   4.863   1.772   5.482
 4678TIP3    H113977   4.822   1.853   5.514
 4678TIP3    H213978   4.956   1.785   5.497
 4679TIP3   OH213979   5.973   7.418   1.460
 4679TIP3    H113980   6.033   7.344   1.458
 4679TIP3    H213981   5.974   7.448   1.551
 4680TIP3   OH213982   1.322   5.724   2.518
 4680TIP3    H113983   1.251   5.689   2.464
 4680TIP3    H213984   1.402   5.705   2.468
 4681TIP3   OH213985   3.181   4.683   0.601
 4681TIP3    H113986   3.126   4.747   0.555
 4681TIP3    H213987   3.207   4.728   0.682
 4682TIP3   OH213988   3.183   1.644   3.376
 4682TIP3    H113989   3.147   1.593   3.303
 4682TIP3    H213990   3.193   1.580   3.447
 4683TIP3   OH213991   1.073   6.476   4.183
 4683TIP3    H113992   0.997   6.426   4.156
 4683TIP3    H213993   1.146   6.440   4.133
 4684TIP3   OH213994   4.731   6.051   5.058
 4684TIP3    H113995   4.783   6.072   4.981
 4684TIP3    H213996   4.768   5.969   5.091
 4685TIP3   OH213997   3.555   5.160   5.785
 4685TIP3    H113998   3.570   5.219   5.711
 4685TIP3    H213999   3.470   5.185   5.819
 4686TIP3   OH214000   1.681   7.440   5.620
 4686TIP3    H114001   1.633   7.522   5.616
 4686TIP3    H214002   1.766   7.461   5.581
 4687TIP3   OH214003   7.457   7.870   5.618
 4687TIP3    H114004   7.537   7.819   5.627
 4687TIP3    H214005   7.408   7.851   5.698
 4688TIP3   OH214006   5.080   2.694   3.076
 4688TIP3    H114007   5.176   2.697   3.082
 4688TIP3    H214008   5.052   2.663   3.162
 4689TIP3   OH214009   7.513   4.467   1.245
 4689TIP3    H114010   7.572   4.455   1.320
 4689TIP3    H214011   7.428   4.438   1.278
 4690TIP3   OH214012   6.706   4.826   0.049
 4690TIP3    H114013   6.797   4.819   0.077
 4690TIP3    H214014   6.711   4.835  -0.046
 4691TIP3   OH214015   5.587   4.820   4.991
 4691TIP3    H114016   5.499   4.856   4.989
 4691TIP3    H214017   5.643   4.892   4.961
 4692TIP3   OH214018   3.591   0.577   6.751
 4692TIP3    H114019   3.610   0.562   6.844
 4692TIP3    H214020   3.677   0.588   6.711
 4693TIP3   OH214021   2.373   4.614   1.183
 4693TIP3    H114022   2.469   4.610   1.182
 4693TIP3    H214023   2.352   4.687   1.241
 4694TIP3   OH214024   5.273   3.720   5.350
 4694TIP3    H114025   5.255   3.661   5.277
 4694TIP3    H214026   5.218   3.688   5.421
 4695TIP3   OH214027   6.410   1.008   5.479
 4695TIP3    H114028   6.498   0.972   5.471
 4695TIP3    H214029   6.352   0.935   5.457
 4696TIP3   OH214030   5.729   2.164   0.559
 4696TIP3    H114031   5.744   2.248   0.515
 4696TIP3    H214032   5.634   2.154   0.560
 4697TIP3   OH214033   2.388   5.632   3.238
 4697TIP3    H114034   2.438   5.576   3.297
 4697TIP3    H214035   2.433   5.625   3.154
 4698TIP3   OH214036   1.542   4.726   3.551
 4698TIP3    H114037   1.551   4.648   3.496
 4698TIP3    H214038   1.563   4.695   3.639
 4699TIP3   OH214039   5.692   2.700   3.765
 4699TIP3    H114040   5.745   2.721   3.842
 4699TIP3    H214041   5.753   2.655   3.706
 4700TIP3   OH214042   2.044   3.197   5.063
 4700TIP3    H114043   2.050   3.271   5.001
 4700TIP3    H214044   1.983   3.228   5.130
 4701TIP3   OH214045   6.569   1.308   6.179
 4701TIP3    H114046   6.522   1.271   6.254
 4701TIP3    H214047   6.580   1.234   6.119
 4702TIP3   OH214048   3.154   6.205   4.461
 4702TIP3    H114049   3.218   6.276   4.450
 4702TIP3    H214050   3.171   6.146   4.387
 4703TIP3   OH214051   2.160   1.014   1.111
 4703TIP3    H114052   2.233   1.068   1.141
 4703TIP3    H214053   2.107   0.999   1.190
 4704TIP3   OH214054   4.145   1.335   5.230
 4704TIP3    H114055   4.154   1.394   5.156
 4704TIP3    H214056   4.093   1.261   5.197
 4705TIP3   OH214057   0.220   2.115   3.174
 4705TIP3    H114058   0.178   2.193   3.137
 4705TIP3    H214059   0.267   2.147   3.251
 4706TIP3   OH214060   7.509   1.269   2.559
 4706TIP3    H114061   7.540   1.348   2.515
 4706TIP3    H214062   7.439   1.299   2.617
 4707TIP3   OH214063   8.282   5.495   6.739
 4707TIP3    H114064   8.310   5.466   6.652
 4707TIP3    H214065   8.364   5.515   6.785
 4708TIP3   OH214066   1.029   4.045   0.579
 4708TIP3    H114067   1.093   3.974   0.589
 4708TIP3    H214068   1.016   4.052   0.484
 4709TIP3   OH214069   2.437   4.946   2.248
 4709TIP3    H114070   2.420   4.889   2.323
 4709TIP3    H214071   2.457   4.886   2.176
 4710TIP3   OH214072   0.984   6.741   3.503
 4710TIP3    H114073   0.915   6.801   3.475
 4710TIP3    H214074   1.063   6.773   3.459
 4711TIP3   OH214075   8.028   6.171   4.868
 4711TIP3    H114076   8.103   6.204   4.917
 4711TIP3    H214077   8.037   6.212   4.782
 4712TIP3   OH214078   2.923   5.753   2.997
 4712TIP3    H114079   2.862   5.760   2.923
 4712TIP3    H214080   2.965   5.667   2.984
 4713TIP3   OH214081   6.892   2.155   4.932
 4713TIP3    H114082   6.799   2.172   4.943
 4713TIP3    H214083   6.904   2.147   4.838
 4714TIP3   OH214084   3.627   4.778   2.106
 4714TIP3    H114085   3.628   4.854   2.165
 4714TIP3    H214086   3.647   4.815   2.020
 4715TIP3   OH214087   1.440   1.346   2.041
 4715TIP3    H114088   1.471   1.426   2.082
 4715TIP3    H214089   1.482   1.345   1.955
 4716TIP3   OH214090   0.425   0.931   5.143
 4716TIP3    H114091   0.436   0.853   5.088
 4716TIP3    H214092   0.432   0.897   5.233
 4717TIP3   OH214093   3.658   2.586   1.759
 4717TIP3    H114094   3.644   2.581   1.664
 4717TIP3    H214095   3.581   2.634   1.791
 4718TIP3   OH214096   3.183  -0.009   6.178
 4718TIP3    H114097   3.165   0.055   6.247
 4718TIP3    H214098   3.260   0.025   6.133
 4719TIP3   OH214099   0.940   4.161   1.862
 4719TIP3    H114100   1.028   4.149   1.898
 4719TIP3    H214101   0.894   4.212   1.929
 4720TIP3   OH214102   7.808   5.135   2.577
 4720TIP3    H114103   7.728   5.187   2.581
 4720TIP3    H214104   7.800   5.074   2.650
 4721TIP3   OH214105   2.619   1.603   3.615
 4721TIP3    H114106   2.660   1.573   3.534
 4721TIP3    H214107   2.651   1.692   3.627
 4722TIP3   OH214108   7.127   7.507   6.572
 4722TIP3    H114109   7.068   7.529   6.645
 4722TIP3    H214110   7.145   7.592   6.531
 4723TIP3   OH214111   5.199   1.452   5.124
 4723TIP3    H114112   5.240   1.522   5.175
 4723TIP3    H214113   5.128   1.420   5.178
 4724TIP3   OH214114   8.192   2.980   2.355
 4724TIP3    H114115   8.247   3.034   2.411
 4724TIP3    H214116   8.248   2.958   2.281
 4725TIP3   OH214117   0.202   3.438   2.845
 4725TIP3    H114118   0.120   3.464   2.803
 4725TIP3    H214119   0.266   3.434   2.773
 4726TIP3   OH214120   0.294   2.650   1.833
 4726TIP3    H114121   0.216   2.644   1.778
 4726TIP3    H214122   0.367   2.651   1.771
 4727TIP3   OH214123   1.255   1.100   0.084
 4727TIP3    H114124   1.273   1.111  -0.009
 4727TIP3    H214125   1.164   1.071   0.087
 4728TIP3   OH214126   2.278   2.609   5.111
 4728TIP3    H114127   2.269   2.612   5.206
 4728TIP3    H214128   2.189   2.621   5.078
 4729TIP3   OH214129   6.682   7.091   6.700
 4729TIP3    H114130   6.686   7.155   6.771
 4729TIP3    H214131   6.742   7.022   6.727
 4730TIP3   OH214132   0.799   0.684   6.720
 4730TIP3    H114133   0.843   0.677   6.804
 4730TIP3    H214134   0.835   0.612   6.668
 4731TIP3   OH214135   2.725   4.914   3.578
 4731TIP3    H114136   2.819   4.904   3.563
 4731TIP3    H214137   2.689   4.826   3.567
 4732TIP3   OH214138   7.902   2.151   1.814
 4732TIP3    H114139   7.843   2.215   1.774
 4732TIP3    H214140   7.854   2.118   1.890
 4733TIP3   OH214141   3.206   1.903   2.796
 4733TIP3    H114142   3.253   1.821   2.808
 4733TIP3    H214143   3.274   1.966   2.770
 4734TIP3   OH214144   0.716   4.685   5.296
 4734TIP3    H114145   0.623   4.676   5.278
 4734TIP3    H214146   0.725   4.659   5.388
 4735TIP3   OH214147   4.215   0.274   5.069
 4735TIP3    H114148   4.237   0.298   5.159
 4735TIP3    H214149   4.120   0.280   5.065
 4736TIP3   OH214150   5.211   4.093   6.340
 4736TIP3    H114151   5.204   4.163   6.275
 4736TIP3    H214152   5.143   4.030   6.315
 4737TIP3   OH214153   1.200   4.650   1.953
 4737TIP3    H114154   1.199   4.555   1.955
 4737TIP3    H214155   1.154   4.677   2.033
 4738TIP3   OH214156   2.163   5.211   4.420
 4738TIP3    H114157   2.102   5.251   4.358
 4738TIP3    H214158   2.208   5.286   4.460
 4739TIP3   OH214159   6.983   7.016   0.444
 4739TIP3    H114160   6.934   6.935   0.461
 4739TIP3    H214161   6.942   7.052   0.365
 4740TIP3   OH214162   6.968   3.252   6.027
 4740TIP3    H114163   6.873   3.249   6.043
 4740TIP3    H214164   6.976   3.264   5.933
 4741TIP3   OH214165   4.175   6.613   0.493
 4741TIP3    H114166   4.184   6.652   0.580
 4741TIP3    H214167   4.105   6.548   0.503
 4742TIP3   OH214168   4.937   5.402   4.966
 4742TIP3    H114169   4.982   5.347   4.903
 4742TIP3    H214170   4.986   5.484   4.967
 4743TIP3   OH214171   7.515   6.390   6.556
 4743TIP3    H114172   7.534   6.393   6.463
 4743TIP3    H214173   7.521   6.298   6.580
 4744TIP3   OH214174   4.273   3.922   0.608
 4744TIP3    H114175   4.364   3.907   0.634
 4744TIP3    H214176   4.259   3.862   0.535
 4745TIP3   OH214177   6.268   0.421   5.310
 4745TIP3    H114178   6.276   0.468   5.227
 4745TIP3    H214179   6.357   0.416   5.344
 4746TIP3   OH214180   2.537   0.437   4.441
 4746TIP3    H114181   2.564   0.499   4.374
 4746TIP3    H214182   2.489   0.490   4.505
 4747TIP3   OH214183   1.117   4.274   3.202
 4747TIP3    H114184   1.094   4.294   3.111
 4747TIP3    H214185   1.212   4.264   3.201
 4748TIP3   OH214186   4.898   5.325   5.882
 4748TIP3    H114187   4.873   5.404   5.835
 4748TIP3    H214188   4.868   5.340   5.972
 4749TIP3   OH214189   7.906   6.252   0.865
 4749TIP3    H114190   7.996   6.219   0.868
 4749TIP3    H214191   7.851   6.175   0.884
 4750TIP3   OH214192   0.413   6.948   6.609
 4750TIP3    H114193   0.425   6.931   6.702
 4750TIP3    H214194   0.467   7.025   6.591
 4751TIP3   OH214195   7.329   6.872   0.197
 4751TIP3    H114196   7.233   6.867   0.197
 4751TIP3    H214197   7.355   6.824   0.118
 4752TIP3   OH214198   5.703   2.726   2.888
 4752TIP3    H114199   5.793   2.756   2.883
 4752TIP3    H214200   5.686   2.687   2.802
 4753TIP3   OH214201   5.855   1.899   2.122
 4753TIP3    H114202   5.808   1.920   2.042
 4753TIP3    H214203   5.793   1.848   2.174
 4754TIP3   OH214204   5.071   0.633   6.411
 4754TIP3    H114205   5.159   0.637   6.373
 4754TIP3    H214206   5.076   0.559   6.472
 4755TIP3   OH214207   5.531   4.227   3.884
 4755TIP3    H114208   5.603   4.200   3.828
 4755TIP3    H214209   5.544   4.178   3.965
 4756TIP3   OH214210   7.707   1.243   0.183
 4756TIP3    H114211   7.713   1.334   0.154
 4756TIP3    H214212   7.741   1.193   0.110
 4757TIP3   OH214213   5.228   5.558   4.968
 4757TIP3    H114214   5.243   5.500   5.043
 4757TIP3    H214215   5.276   5.517   4.896
 4758TIP3   OH214216   6.805   5.456   3.997
 4758TIP3    H114217   6.795   5.397   4.071
 4758TIP3    H214218   6.782   5.403   3.921
 4759TIP3   OH214219   6.782   3.189   0.244
 4759TIP3    H114220   6.869   3.153   0.262
 4759TIP3    H214221   6.723   3.114   0.249
 4760TIP3   OH214222   4.277   2.073   5.232
 4760TIP3    H114223   4.221   2.129   5.179
 4760TIP3    H214224   4.266   2.105   5.322
 4761TIP3   OH214225   1.454   3.386   5.801
 4761TIP3    H114226   1.516   3.334   5.749
 4761TIP3    H214227   1.507   3.425   5.870
 4762TIP3   OH214228   0.747   1.645   2.174
 4762TIP3    H114229   0.774   1.618   2.086
 4762TIP3    H214230   0.674   1.586   2.196
 4763TIP3   OH214231   6.015   5.788   0.165
 4763TIP3    H114232   6.046   5.698   0.179
 4763TIP3    H214233   5.963   5.783   0.085
 4764TIP3   OH214234   5.332   5.975   5.045
 4764TIP3    H114235   5.350   6.037   5.115
 4764TIP3    H214236   5.390   6.002   4.974
 4765TIP3   OH214237   6.435   5.450   2.592
 4765TIP3    H114238   6.526   5.435   2.565
 4765TIP3    H214239   6.429   5.408   2.679
 4766TIP3   OH214240   5.144   5.932   2.379
 4766TIP3    H114241   5.189   6.017   2.370
 4766TIP3    H214242   5.214   5.867   2.374
 4767TIP3   OH214243   1.971   4.823   5.640
 4767TIP3    H114244   2.015   4.867   5.712
 4767TIP3    H214245   1.930   4.894   5.590
 4768TIP3   OH214246   2.236   0.642   4.975
 4768TIP3    H114247   2.274   0.726   4.949
 4768TIP3    H214248   2.213   0.653   5.067
 4769TIP3   OH214249   0.617   2.310   6.539
 4769TIP3    H114250   0.695   2.328   6.592
 4769TIP3    H214251   0.630   2.221   6.508
 4770TIP3   OH214252   7.179   7.680   0.100
 4770TIP3    H114253   7.243   7.713   0.163
 4770TIP3    H214254   7.134   7.609   0.147
 4771TIP3   OH214255   8.042   7.302   4.149
 4771TIP3    H114256   8.062   7.211   4.171
 4771TIP3    H214257   7.946   7.306   4.152
 4772TIP3   OH214258   4.740   3.588   2.983
 4772TIP3    H114259   4.685   3.624   2.913
 4772TIP3    H214260   4.724   3.493   2.979
 4773TIP3   OH214261   4.565   1.350   1.090
 4773TIP3    H114262   4.538   1.288   1.158
 4773TIP3    H214263   4.535   1.435   1.122
 4774TIP3   OH214264   6.984   1.296   5.331
 4774TIP3    H114265   7.072   1.291   5.368
 4774TIP3    H214266   6.989   1.243   5.251
 4775TIP3   OH214267   1.605   3.237   6.179
 4775TIP3    H114268   1.700   3.228   6.186
 4775TIP3    H214269   1.592   3.318   6.130
 4776TIP3   OH214270   1.850   1.343   0.725
 4776TIP3    H114271   1.915   1.412   0.712
 4776TIP3    H214272   1.878   1.298   0.805
 4777TIP3   OH214273   7.857   0.199   5.892
 4777TIP3    H114274   7.939   0.167   5.930
 4777TIP3    H214275   7.864   0.294   5.896
 4778TIP3   OH214276   0.169   1.823   3.685
 4778TIP3    H114277   0.191   1.730   3.683
 4778TIP3    H214278   0.140   1.843   3.596
 4779TIP3   OH214279   7.799   6.248   4.007
 4779TIP3    H114280   7.745   6.259   4.085
 4779TIP3    H214281   7.738   6.223   3.938
 4780TIP3   OH214282   7.836   4.243   2.795
 4780TIP3    H114283   7.800   4.278   2.714
 4780TIP3    H214284   7.763   4.241   2.856
 4781TIP3   OH214285   6.084   4.003   5.330
 4781TIP3    H114286   6.129   3.967   5.254
 4781TIP3    H214287   6.020   3.936   5.355
 4782TIP3   OH214288   8.055   1.359   0.192
 4782TIP3    H114289   8.149   1.358   0.212
 4782TIP3    H214290   8.051   1.341   0.098
 4783TIP3   OH214291   1.429   6.407   2.966
 4783TIP3    H114292   1.497   6.474   2.969
 4783TIP3    H214293   1.347   6.454   2.979
 4784TIP3   OH214294   3.417   7.204   4.161
 4784TIP3    H114295   3.361   7.267   4.115
 4784TIP3    H214296   3.503   7.214   4.120
 4785TIP3   OH214297   2.276   3.314   0.060
 4785TIP3    H114298   2.354   3.344   0.107
 4785TIP3    H214299   2.238   3.248   0.117
 4786TIP3   OH214300   1.111   6.815   2.188
 4786TIP3    H114301   1.184   6.769   2.229
 4786TIP3    H214302   1.151   6.892   2.147
 4787TIP3   OH214303   3.638   5.902   2.087
 4787TIP3    H114304   3.549   5.890   2.120
 4787TIP3    H214305   3.648   5.997   2.079
 4788TIP3   OH214306   8.242   1.595   0.487
 4788TIP3    H114307   8.218   1.687   0.474
 4788TIP3    H214308   8.324   1.585   0.438
 4789TIP3   OH214309   5.220   4.549   2.292
 4789TIP3    H114310   5.306   4.591   2.297
 4789TIP3    H214311   5.179   4.587   2.214
 4790TIP3   OH214312   7.414   5.536   3.691
 4790TIP3    H114313   7.325   5.508   3.712
 4790TIP3    H214314   7.469   5.483   3.748
 4791TIP3   OH214315   7.675   7.037   1.383
 4791TIP3    H114316   7.770   7.045   1.381
 4791TIP3    H214317   7.645   7.120   1.421
 4792TIP3   OH214318   3.605   7.273   5.630
 4792TIP3    H114319   3.577   7.292   5.719
 4792TIP3    H214320   3.659   7.348   5.605
 4793TIP3   OH214321   1.133   3.589   4.613
 4793TIP3    H114322   1.072   3.529   4.571
 4793TIP3    H214323   1.187   3.534   4.669
 4794TIP3   OH214324   1.502   2.877   4.200
 4794TIP3    H114325   1.535   2.787   4.201
 4794TIP3    H214326   1.453   2.883   4.118
 4795TIP3   OH214327   2.776   0.255   1.015
 4795TIP3    H114328   2.856   0.206   0.993
 4795TIP3    H214329   2.714   0.188   1.044
 4796TIP3   OH214330   3.233   6.346   4.182
 4796TIP3    H114331   3.277   6.372   4.263
 4796TIP3    H214332   3.305   6.333   4.120
 4797TIP3   OH214333   1.442   4.485   3.236
 4797TIP3    H114334   1.444   4.400   3.192
 4797TIP3    H214335   1.530   4.494   3.274
 4798TIP3   OH214336   2.419   3.979   6.694
 4798TIP3    H114337   2.502   4.013   6.661
 4798TIP3    H214338   2.443   3.928   6.771
 4799TIP3   OH214339   0.078   4.635   1.396
 4799TIP3    H114340   0.061   4.684   1.315
 4799TIP3    H214341   0.128   4.695   1.450
 4800TIP3   OH214342   0.102   5.927   1.912
 4800TIP3    H114343   0.027   5.868   1.905
 4800TIP3    H214344   0.177   5.874   1.886
 4801TIP3   OH214345   5.301   7.331   0.976
 4801TIP3    H114346   5.325   7.419   1.005
 4801TIP3    H214347   5.272   7.287   1.055
 4802TIP3   OH214348   1.879   1.208   2.258
 4802TIP3    H114349   1.885   1.153   2.180
 4802TIP3    H214350   1.940   1.280   2.242
 4803TIP3   OH214351   1.949   3.962   5.130
 4803TIP3    H114352   2.032   4.009   5.125
 4803TIP3    H214353   1.925   3.945   5.039
 4804TIP3   OH214354   6.037   6.884   2.496
 4804TIP3    H114355   5.995   6.837   2.568
 4804TIP3    H214356   5.978   6.872   2.421
 4805TIP3   OH214357   5.166   2.313   2.631
 4805TIP3    H114358   5.109   2.351   2.697
 4805TIP3    H214359   5.196   2.231   2.670
 4806TIP3   OH214360   3.021   4.238   2.767
 4806TIP3    H114361   3.114   4.216   2.770
 4806TIP3    H214362   3.000   4.242   2.673
 4807TIP3   OH214363   2.941   5.220   4.856
 4807TIP3    H114364   2.948   5.308   4.892
 4807TIP3    H214365   2.849   5.210   4.831
 4808TIP3   OH214366   1.304   4.900   2.582
 4808TIP3    H114367   1.308   4.830   2.516
 4808TIP3    H214368   1.211   4.925   2.584
 4809TIP3   OH214369   7.535   0.489   5.118
 4809TIP3    H114370   7.593   0.491   5.042
 4809TIP3    H214371   7.591   0.513   5.192
 4810TIP3   OH214372   6.562   7.818   4.267
 4810TIP3    H114373   6.633   7.876   4.295
 4810TIP3    H214374   6.607   7.737   4.242
 4811TIP3   OH214375   6.288   3.934   6.056
 4811TIP3    H114376   6.316   4.017   6.018
 4811TIP3    H214377   6.369   3.887   6.073
 4812TIP3   OH214378   6.640   1.889   0.527
 4812TIP3    H114379   6.561   1.893   0.473
 4812TIP3    H214380   6.625   1.954   0.596
 4813TIP3   OH214381   7.270   6.070   3.963
 4813TIP3    H114382   7.231   6.133   3.901
 4813TIP3    H214383   7.204   6.002   3.973
 4814TIP3   OH214384   5.104   7.738   2.170
 4814TIP3    H114385   5.030   7.680   2.185
 4814TIP3    H214386   5.141   7.708   2.087
 4815TIP3   OH214387   8.120   1.192   5.215
 4815TIP3    H114388   8.030   1.224   5.222
 4815TIP3    H214389   8.163   1.254   5.156
 4816TIP3   OH214390   7.797   2.580   0.358
 4816TIP3    H114391   7.714   2.548   0.324
 4816TIP3    H214392   7.826   2.512   0.419
 4817TIP3   OH214393   6.857   3.119   4.519
 4817TIP3    H114394   6.919   3.147   4.452
 4817TIP3    H214395   6.907   3.121   4.600
 4818TIP3   OH214396   2.719   0.948   0.138
 4818TIP3    H114397   2.740   1.041   0.144
 4818TIP3    H214398   2.779   0.914   0.073
 4819TIP3   OH214399   0.126   2.085   1.891
 4819TIP3    H114400   0.041   2.122   1.914
 4819TIP3    H214401   0.145   2.118   1.803
 4820TIP3   OH214402   1.508   5.335   4.741
 4820TIP3    H114403   1.546   5.335   4.654
 4820TIP3    H214404   1.414   5.321   4.727
 4821TIP3   OH214405   6.614   1.705   5.311
 4821TIP3    H114406   6.682   1.639   5.302
 4821TIP3    H214407   6.565   1.680   5.390
 4822TIP3   OH214408   2.466   5.733   1.523
 4822TIP3    H114409   2.411   5.670   1.570
 4822TIP3    H214410   2.516   5.776   1.592
 4823TIP3   OH214411   2.020   6.927   5.234
 4823TIP3    H114412   1.928   6.934   5.259
 4823TIP3    H214413   2.031   6.992   5.164
 4824TIP3   OH214414   3.182   0.327   3.120
 4824TIP3    H114415   3.136   0.326   3.036
 4824TIP3    H214416   3.267   0.288   3.102
 4825TIP3   OH214417   0.603   0.509   1.558
 4825TIP3    H114418   0.608   0.545   1.470
 4825TIP3    H214419   0.517   0.468   1.563
 4826TIP3   OH214420   0.684   6.784   6.633
 4826TIP3    H114421   0.643   6.840   6.699
 4826TIP3    H214422   0.695   6.841   6.557
 4827TIP3   OH214423   3.059   3.517   6.333
 4827TIP3    H114424   3.134   3.522   6.273
 4827TIP3    H214425   3.015   3.436   6.310
 4828TIP3   OH214426   7.104   1.901   3.192
 4828TIP3    H114427   7.185   1.880   3.238
 4828TIP3    H214428   7.047   1.827   3.210
 4829TIP3   OH214429   7.412   6.540   0.314
 4829TIP3    H114430   7.344   6.498   0.366
 4829TIP3    H214431   7.398   6.507   0.225
 4830TIP3   OH214432   4.208   4.065   2.572
 4830TIP3    H114433   4.232   3.978   2.605
 4830TIP3    H214434   4.165   4.049   2.488
 4831TIP3   OH214435   5.632   6.014   2.902
 4831TIP3    H114436   5.578   6.066   2.843
 4831TIP3    H214437   5.648   5.932   2.854
 4832TIP3   OH214438   0.757   2.923   6.786
 4832TIP3    H114439   0.706   2.872   6.849
 4832TIP3    H214440   0.773   2.862   6.713
 4833TIP3   OH214441   0.475   3.214   1.100
 4833TIP3    H114442   0.495   3.272   1.173
 4833TIP3    H214443   0.422   3.144   1.139
 4834TIP3   OH214444   4.081   3.919   2.148
 4834TIP3    H114445   4.159   3.923   2.204
 4834TIP3    H214446   4.063   4.010   2.126
 4835TIP3   OH214447   7.181   3.890   0.234
 4835TIP3    H114448   7.086   3.879   0.238
 4835TIP3    H214449   7.213   3.850   0.315
 4836TIP3   OH214450   7.754   4.321   6.808
 4836TIP3    H114451   7.700   4.244   6.827
 4836TIP3    H214452   7.711   4.363   6.733
 4837TIP3   OH214453   3.306   2.247   5.804
 4837TIP3    H114454   3.244   2.176   5.817
 4837TIP3    H214455   3.273   2.294   5.728
 4838TIP3   OH214456   1.631   1.610   2.615
 4838TIP3    H114457   1.603   1.556   2.541
 4838TIP3    H214458   1.717   1.642   2.589
 4839TIP3   OH214459   8.240   5.807   3.590
 4839TIP3    H114460   8.152   5.799   3.627
 4839TIP3    H214461   8.229   5.783   3.498
 4840TIP3   OH214462   7.256   3.612   2.390
 4840TIP3    H114463   7.225   3.541   2.333
 4840TIP3    H214464   7.282   3.681   2.329
 4841TIP3   OH214465   1.313   1.128   3.498
 4841TIP3    H114466   1.357   1.058   3.451
 4841TIP3    H214467   1.381   1.165   3.555
 4842TIP3   OH214468   6.644   1.393   0.225
 4842TIP3    H114469   6.688   1.308   0.228
 4842TIP3    H214470   6.622   1.406   0.132
 4843TIP3   OH214471   3.175   2.986   0.582
 4843TIP3    H114472   3.189   2.905   0.532
 4843TIP3    H214473   3.193   3.056   0.520
 4844TIP3   OH214474   1.855   1.714   4.675
 4844TIP3    H114475   1.838   1.760   4.757
 4844TIP3    H214476   1.823   1.773   4.607
 4845TIP3   OH214477   0.450   0.157   3.398
 4845TIP3    H114478   0.368   0.205   3.409
 4845TIP3    H214479   0.424   0.075   3.356
 4846TIP3   OH214480   0.970   7.714   6.712
 4846TIP3    H114481   0.898   7.656   6.740
 4846TIP3    H214482   1.001   7.753   6.794
 4847TIP3   OH214483   0.536   7.257   5.581
 4847TIP3    H114484   0.467   7.290   5.639
 4847TIP3    H214485   0.560   7.173   5.618
 4848TIP3   OH214486   1.796   5.339   2.729
 4848TIP3    H114487   1.832   5.290   2.656
 4848TIP3    H214488   1.793   5.275   2.801
 4849TIP3   OH214489   1.915   3.920   5.526
 4849TIP3    H114490   1.882   4.009   5.541
 4849TIP3    H214491   2.007   3.924   5.550
 4850TIP3   OH214492   7.246   5.175   4.751
 4850TIP3    H114493   7.215   5.186   4.841
 4850TIP3    H214494   7.281   5.085   4.749
 4851TIP3   OH214495   0.281   3.896   5.439
 4851TIP3    H114496   0.225   3.973   5.444
 4851TIP3    H214497   0.224   3.826   5.409
 4852TIP3   OH214498   5.215   7.336   6.555
 4852TIP3    H114499   5.193   7.269   6.490
 4852TIP3    H214500   5.267   7.290   6.620
 4853TIP3   OH214501   2.579   2.855   5.313
 4853TIP3    H114502   2.609   2.945   5.306
 4853TIP3    H214503   2.493   2.861   5.354
 4854TIP3   OH214504   7.812   1.684   0.362
 4854TIP3    H114505   7.768   1.749   0.417
 4854TIP3    H214506   7.844   1.619   0.424
 4855TIP3   OH214507   2.213   6.322   6.406
 4855TIP3    H114508   2.274   6.392   6.382
 4855TIP3    H214509   2.191   6.339   6.498
 4856TIP3   OH214510   6.402   6.925   2.619
 4856TIP3    H114511   6.308   6.945   2.623
 4856TIP3    H214512   6.444   7.011   2.617
 4857TIP3   OH214513   0.808   5.472   6.727
 4857TIP3    H114514   0.866   5.399   6.707
 4857TIP3    H214515   0.853   5.549   6.691
 4858TIP3   OH214516   3.571   3.209   3.075
 4858TIP3    H114517   3.637   3.261   3.029
 4858TIP3    H214518   3.503   3.193   3.010
 4859TIP3   OH214519   0.833   0.222   4.691
 4859TIP3    H114520   0.910   0.262   4.732
 4859TIP3    H214521   0.854   0.128   4.688
 4860TIP3   OH214522   3.471   0.956   3.587
 4860TIP3    H114523   3.471   0.942   3.493
 4860TIP3    H214524   3.553   0.917   3.618
 4861TIP3   OH214525   0.883   0.276   1.262
 4861TIP3    H114526   0.857   0.329   1.187
 4861TIP3    H214527   0.842   0.191   1.247
 4862TIP3   OH214528   5.748   3.662   0.746
 4862TIP3    H114529   5.664   3.690   0.708
 4862TIP3    H214530   5.726   3.586   0.800
 4863TIP3   OH214531   4.013   0.003   3.314
 4863TIP3    H114532   4.096  -0.043   3.328
 4863TIP3    H214533   4.017   0.078   3.373
 4864TIP3   OH214534   7.982   3.095   3.599
 4864TIP3    H114535   7.946   3.080   3.511
 4864TIP3    H214536   8.067   3.051   3.597
 4865TIP3   OH214537   3.334   4.510   6.017
 4865TIP3    H114538   3.322   4.591   5.967
 4865TIP3    H214539   3.292   4.442   5.963
 4866TIP3   OH214540   5.252   3.977   6.854
 4866TIP3    H114541   5.334   3.973   6.806
 4866TIP3    H214542   5.191   4.019   6.794
 4867TIP3   OH214543   3.990   4.186   2.036
 4867TIP3    H114544   3.943   4.201   2.118
 4867TIP3    H214545   4.043   4.266   2.025
 4868TIP3   OH214546   6.132   1.581   3.833
 4868TIP3    H114547   6.063   1.547   3.775
 4868TIP3    H214548   6.201   1.514   3.829
 4869TIP3   OH214549   3.588   0.556   3.263
 4869TIP3    H114550   3.509   0.586   3.217
 4869TIP3    H214551   3.629   0.637   3.294
 4870TIP3   OH214552   6.503   5.065   5.476
 4870TIP3    H114553   6.514   5.114   5.558
 4870TIP3    H214554   6.587   5.022   5.462
 4871TIP3   OH214555   4.683   4.097   2.125
 4871TIP3    H114556   4.747   4.101   2.196
 4871TIP3    H214557   4.733   4.118   2.046
 4872TIP3   OH214558   7.538   7.032   0.254
 4872TIP3    H114559   7.482   6.969   0.208
 4872TIP3    H214560   7.605   7.056   0.189
 4873TIP3   OH214561   6.999   5.520   6.079
 4873TIP3    H114562   7.036   5.608   6.084
 4873TIP3    H214563   6.904   5.534   6.077
 4874TIP3   OH214564   5.855   2.892   2.001
 4874TIP3    H114565   5.772   2.855   2.030
 4874TIP3    H214566   5.901   2.914   2.082
 4875TIP3   OH214567   4.641   5.741   2.275
 4875TIP3    H114568   4.549   5.768   2.267
 4875TIP3    H214569   4.689   5.802   2.220
 4876TIP3   OH214570   7.717   0.276   0.594
 4876TIP3    H114571   7.643   0.219   0.616
 4876TIP3    H214572   7.732   0.327   0.674
 4877TIP3   OH214573   4.127   4.747   3.564
 4877TIP3    H114574   4.201   4.748   3.624
 4877TIP3    H214575   4.059   4.798   3.608
 4878TIP3   OH214576   7.834   3.402   2.750
 4878TIP3    H114577   7.888   3.404   2.829
 4878TIP3    H214578   7.895   3.383   2.679
 4879TIP3   OH214579   3.946   7.233   5.602
 4879TIP3    H114580   3.931   7.267   5.691
 4879TIP3    H214581   3.913   7.302   5.545
 4880TIP3   OH214582   3.494   2.392   2.617
 4880TIP3    H114583   3.513   2.462   2.680
 4880TIP3    H214584   3.448   2.437   2.546
 4881TIP3   OH214585   5.089   3.072   6.696
 4881TIP3    H114586   5.138   2.995   6.668
 4881TIP3    H214587   5.154   3.142   6.700
 4882TIP3   OH214588   2.475   2.236   0.605
 4882TIP3    H114589   2.516   2.319   0.630
 4882TIP3    H214590   2.528   2.169   0.649
 4883TIP3   OH214591   2.233   4.218   4.536
 4883TIP3    H114592   2.253   4.246   4.625
 4883TIP3    H214593   2.316   4.225   4.489
 4884TIP3   OH214594   4.276   3.764   0.206
 4884TIP3    H114595   4.351   3.740   0.261
 4884TIP3    H214596   4.289   3.856   0.185
 4885TIP3   OH214597   8.182   2.345   2.372
 4885TIP3    H114598   8.207   2.351   2.464
 4885TIP3    H214599   8.259   2.377   2.324
 4886TIP3   OH214600   7.490   4.710   4.805
 4886TIP3    H114601   7.455   4.627   4.771
 4886TIP3    H214602   7.580   4.713   4.773
 4887TIP3   OH214603   4.594   7.128   5.827
 4887TIP3    H114604   4.505   7.143   5.795
 4887TIP3    H214605   4.589   7.148   5.921
 4888TIP3   OH214606   5.333   3.776   1.305
 4888TIP3    H114607   5.324   3.823   1.387
 4888TIP3    H214608   5.427   3.758   1.298
 4889TIP3   OH214609   0.025   6.237   0.081
 4889TIP3    H114610   0.040   6.161   0.024
 4889TIP3    H214611   0.080   6.306   0.043
 4890TIP3   OH214612   4.003   3.412   0.580
 4890TIP3    H114613   3.985   3.501   0.551
 4890TIP3    H214614   3.918   3.379   0.610
 4891TIP3   OH214615   7.554   4.437   4.749
 4891TIP3    H114616   7.473   4.391   4.773
 4891TIP3    H214617   7.596   4.456   4.833
 4892TIP3   OH214618   2.424   3.109   4.677
 4892TIP3    H114619   2.409   3.200   4.700
 4892TIP3    H214620   2.503   3.084   4.725
 4893TIP3   OH214621   0.438   2.895   1.610
 4893TIP3    H114622   0.353   2.899   1.566
 4893TIP3    H214623   0.449   2.803   1.633
 4894TIP3   OH214624   4.085   3.238   2.759
 4894TIP3    H114625   4.136   3.278   2.830
 4894TIP3    H214626   4.027   3.308   2.729
 4895TIP3   OH214627   5.607   5.978   6.727
 4895TIP3    H114628   5.688   6.021   6.757
 4895TIP3    H214629   5.615   5.975   6.632
 4896TIP3   OH214630   4.189   3.878   1.731
 4896TIP3    H114631   4.127   3.951   1.738
 4896TIP3    H214632   4.143   3.804   1.771
 4897TIP3   OH214633   3.831   0.414   4.597
 4897TIP3    H114634   3.750   0.363   4.591
 4897TIP3    H214635   3.839   0.457   4.512
 4898TIP3   OH214636   3.840   2.660   4.915
 4898TIP3    H114637   3.816   2.748   4.887
 4898TIP3    H214638   3.837   2.663   5.010
 4899TIP3   OH214639   6.614   4.635   5.219
 4899TIP3    H114640   6.570   4.551   5.207
 4899TIP3    H214641   6.595   4.684   5.139
 4900TIP3   OH214642   2.534   2.430   1.466
 4900TIP3    H114643   2.479   2.508   1.479
 4900TIP3    H214644   2.598   2.456   1.400
 4901TIP3   OH214645   3.854   3.315   0.915
 4901TIP3    H114646   3.827   3.295   1.004
 4901TIP3    H214647   3.942   3.278   0.907
 4902TIP3   OH214648   0.825   3.632   2.376
 4902TIP3    H114649   0.873   3.554   2.345
 4902TIP3    H214650   0.785   3.667   2.297
 4903TIP3   OH214651   1.686   6.000   0.581
 4903TIP3    H114652   1.624   6.061   0.540
 4903TIP3    H214653   1.768   6.049   0.584
 4904TIP3   OH214654   6.809   7.190   0.945
 4904TIP3    H114655   6.724   7.150   0.965
 4904TIP3    H214656   6.836   7.147   0.864
 4905TIP3   OH214657   7.753   7.558   3.480
 4905TIP3    H114658   7.760   7.499   3.555
 4905TIP3    H214659   7.702   7.632   3.513
 4906TIP3   OH214660   3.247   5.260   6.190
 4906TIP3    H114661   3.155   5.243   6.170
 4906TIP3    H214662   3.261   5.218   6.275
 4907TIP3   OH214663   0.264   6.073   6.795
 4907TIP3    H114664   0.279   5.991   6.748
 4907TIP3    H214665   0.207   6.123   6.738
 4908TIP3   OH214666   6.880   1.023   2.740
 4908TIP3    H114667   6.898   1.081   2.666
 4908TIP3    H214668   6.786   1.004   2.734
 4909TIP3   OH214669   1.206   6.496   0.514
 4909TIP3    H114670   1.177   6.414   0.555
 4909TIP3    H214671   1.299   6.482   0.497
 4910TIP3   OH214672   6.695   4.292   4.034
 4910TIP3    H114673   6.668   4.200   4.039
 4910TIP3    H214674   6.729   4.311   4.121
 4911TIP3   OH214675   0.722   3.679   3.208
 4911TIP3    H114676   0.696   3.602   3.258
 4911TIP3    H214677   0.770   3.734   3.270
 4912TIP3   OH214678   0.242   0.662   1.429
 4912TIP3    H114679   0.169   0.636   1.373
 4912TIP3    H214680   0.203   0.716   1.497
 4913TIP3   OH214681   0.790   5.426   1.184
 4913TIP3    H114682   0.881   5.433   1.158
 4913TIP3    H214683   0.772   5.332   1.185
 4914TIP3   OH214684   2.821   2.334   4.354
 4914TIP3    H114685   2.833   2.241   4.376
 4914TIP3    H214686   2.797   2.375   4.437
 4915TIP3   OH214687   2.635   2.527   3.546
 4915TIP3    H114688   2.610   2.472   3.472
 4915TIP3    H214689   2.699   2.588   3.511
 4916TIP3   OH214690   2.082   2.511   6.008
 4916TIP3    H114691   2.049   2.562   6.082
 4916TIP3    H214692   2.142   2.571   5.962
 4917TIP3   OH214693   4.049   5.130   4.585
 4917TIP3    H114694   4.025   5.049   4.631
 4917TIP3    H214695   3.966   5.164   4.552
 4918TIP3   OH214696   0.880   0.206   0.386
 4918TIP3    H114697   0.927   0.159   0.318
 4918TIP3    H214698   0.948   0.249   0.438
 4919TIP3   OH214699   0.473   5.688   0.012
 4919TIP3    H114700   0.406   5.621   0.018
 4919TIP3    H214701   0.437   5.763   0.059
 4920TIP3   OH214702   1.305   6.000   5.032
 4920TIP3    H114703   1.396   6.027   5.043
 4920TIP3    H214704   1.306   5.905   5.041
 4921TIP3   OH214705   0.103   4.562   0.297
 4921TIP3    H114706   0.020   4.532   0.259
 4921TIP3    H214707   0.144   4.482   0.330
 4922TIP3   OH214708   6.845   4.834   2.098
 4922TIP3    H114709   6.939   4.833   2.080
 4922TIP3    H214710   6.817   4.744   2.081
 4923TIP3   OH214711   4.476   7.786   2.210
 4923TIP3    H114712   4.394   7.837   2.213
 4923TIP3    H214713   4.451   7.704   2.169
 4924TIP3   OH214714   7.876   4.343   3.454
 4924TIP3    H114715   7.785   4.350   3.483
 4924TIP3    H214716   7.913   4.272   3.505
 4925TIP3   OH214717   2.419   4.532   0.196
 4925TIP3    H114718   2.448   4.603   0.138
 4925TIP3    H214719   2.487   4.525   0.262
 4926TIP3   OH214720   3.803   2.976   0.292
 4926TIP3    H114721   3.728   2.960   0.349
 4926TIP3    H214722   3.810   2.896   0.239
 4927TIP3   OH214723   3.231   5.015   2.187
 4927TIP3    H114724   3.172   5.087   2.164
 4927TIP3    H214725   3.314   5.039   2.146
 4928TIP3   OH214726   1.622   7.741   0.508
 4928TIP3    H114727   1.543   7.784   0.540
 4928TIP3    H214728   1.608   7.734   0.413
 4929TIP3   OH214729   5.063   1.649   2.222
 4929TIP3    H114730   5.135   1.628   2.163
 4929TIP3    H214731   4.985   1.647   2.167
 4930TIP3   OH214732   3.811   5.393   3.275
 4930TIP3    H114733   3.844   5.373   3.187
 4930TIP3    H214734   3.722   5.359   3.275
 4931TIP3   OH214735   5.207   3.571   5.136
 4931TIP3    H114736   5.134   3.516   5.109
 4931TIP3    H214737   5.206   3.644   5.073
 4932TIP3   OH214738   0.683   5.576   2.024
 4932TIP3    H114739   0.662   5.525   2.102
 4932TIP3    H214740   0.779   5.581   2.023
 4933TIP3   OH214741   5.075   2.020   0.613
 4933TIP3    H114742   5.056   1.939   0.660
 4933TIP3    H214743   5.131   2.069   0.673
 4934TIP3   OH214744   2.706   2.839   1.319
 4934TIP3    H114745   2.768   2.805   1.254
 4934TIP3    H214746   2.681   2.925   1.284
 4935TIP3   OH214747   1.818   2.200   5.110
 4935TIP3    H114748   1.874   2.230   5.182
 4935TIP3    H214749   1.730   2.200   5.146
 4936TIP3   OH214750   7.386   3.772   6.160
 4936TIP3    H114751   7.460   3.798   6.214
 4936TIP3    H214752   7.376   3.678   6.175
 4937TIP3   OH214753   6.285   1.592   2.120
 4937TIP3    H114754   6.346   1.623   2.053
 4937TIP3    H214755   6.245   1.671   2.155
 4938TIP3   OH214756   4.598   6.198   2.607
 4938TIP3    H114757   4.655   6.234   2.539
 4938TIP3    H214758   4.658   6.154   2.667
 4939TIP3   OH214759   2.884   2.196   0.632
 4939TIP3    H114760   2.869   2.126   0.569
 4939TIP3    H214761   2.798   2.211   0.672
 4940TIP3   OH214762   7.734   3.049   0.361
 4940TIP3    H114763   7.740   2.978   0.426
 4940TIP3    H214764   7.678   3.114   0.403
 4941TIP3   OH214765   0.637   1.430   4.577
 4941TIP3    H114766   0.694   1.395   4.508
 4941TIP3    H214767   0.688   1.500   4.617
 4942TIP3   OH214768   3.132   0.089   0.205
 4942TIP3    H114769   3.223   0.095   0.178
 4942TIP3    H214770   3.111   0.175   0.240
 4943TIP3   OH214771   3.232   6.313   2.707
 4943TIP3    H114772   3.201   6.272   2.627
 4943TIP3    H214773   3.270   6.242   2.758
 4944TIP3   OH214774   4.031   4.535   3.830
 4944TIP3    H114775   3.947   4.529   3.877
 4944TIP3    H214776   4.007   4.527   3.738
 4945TIP3   OH214777   7.384   5.639   6.651
 4945TIP3    H114778   7.470   5.663   6.686
 4945TIP3    H214779   7.328   5.630   6.728
 4946TIP3   OH214780   6.901   6.232   4.609
 4946TIP3    H114781   6.876   6.321   4.585
 4946TIP3    H214782   6.881   6.179   4.531
 4947TIP3   OH214783   2.948   4.203   5.301
 4947TIP3    H114784   3.022   4.144   5.285
 4947TIP3    H214785   2.970   4.245   5.384
 4948TIP3   OH214786   8.281   0.517   6.782
 4948TIP3    H114787   8.299   0.538   6.691
 4948TIP3    H214788   8.286   0.601   6.828
 4949TIP3   OH214789   5.709   5.075   4.385
 4949TIP3    H114790   5.765   5.115   4.319
 4949TIP3    H214791   5.625   5.060   4.341
 4950TIP3   OH214792   0.158   0.800   1.179
 4950TIP3    H114793   0.090   0.866   1.195
 4950TIP3    H214794   0.219   0.809   1.251
 4951TIP3   OH214795   4.734   3.180   5.064
 4951TIP3    H114796   4.822   3.179   5.027
 4951TIP3    H214797   4.687   3.110   5.018
 4952TIP3   OH214798   2.164   4.202   2.272
 4952TIP3    H114799   2.154   4.114   2.309
 4952TIP3    H214800   2.242   4.238   2.315
 4953TIP3   OH214801   3.165   3.500   4.262
 4953TIP3    H114802   3.092   3.483   4.321
 4953TIP3    H214803   3.160   3.431   4.196
 4954TIP3   OH214804   1.755   7.150   1.954
 4954TIP3    H114805   1.776   7.059   1.936
 4954TIP3    H214806   1.660   7.157   1.940
 4955TIP3   OH214807   4.842   3.099   4.717
 4955TIP3    H114808   4.748   3.089   4.702
 4955TIP3    H214809   4.871   3.013   4.748
 4956TIP3   OH214810   2.311   3.603   2.618
 4956TIP3    H114811   2.278   3.533   2.675
 4956TIP3    H214812   2.237   3.664   2.611
 4957TIP3   OH214813   7.590   3.122   3.541
 4957TIP3    H114814   7.627   3.059   3.603
 4957TIP3    H214815   7.607   3.083   3.455
 4958TIP3   OH214816   3.047   6.753   5.903
 4958TIP3    H114817   3.032   6.847   5.913
 4958TIP3    H214818   3.142   6.743   5.910
 4959TIP3   OH214819   0.386   6.283   5.930
 4959TIP3    H114820   0.386   6.294   5.835
 4959TIP3    H214821   0.478   6.272   5.953
 4960TIP3   OH214822   0.099   0.647   5.334
 4960TIP3    H114823   0.155   0.634   5.410
 4960TIP3    H214824   0.053   0.563   5.324
 4961TIP3   OH214825   5.879   5.871   6.239
 4961TIP3    H114826   5.939   5.806   6.276
 4961TIP3    H214827   5.911   5.884   6.150
 4962TIP3   OH214828   3.688   7.117   3.424
 4962TIP3    H114829   3.671   7.057   3.496
 4962TIP3    H214830   3.653   7.202   3.454
 4963TIP3   OH214831   5.933   7.471   3.920
 4963TIP3    H114832   5.899   7.511   4.000
 4963TIP3    H214833   5.927   7.540   3.854
 4964TIP3   OH214834   4.958   6.758   4.718
 4964TIP3    H114835   4.936   6.671   4.684
 4964TIP3    H214836   4.969   6.812   4.640
 4965TIP3   OH214837   5.754   4.884   4.575
 4965TIP3    H114838   5.794   4.801   4.550
 4965TIP3    H214839   5.750   4.935   4.494
 4966TIP3   OH214840   1.714   1.877   4.168
 4966TIP3    H114841   1.649   1.916   4.226
 4966TIP3    H214842   1.772   1.950   4.145
 4967TIP3   OH214843   1.374   5.293   1.935
 4967TIP3    H114844   1.387   5.222   1.873
 4967TIP3    H214845   1.303   5.345   1.898
 4968TIP3   OH214846   1.799   4.987   3.073
 4968TIP3    H114847   1.715   4.943   3.083
 4968TIP3    H214848   1.827   5.007   3.162
 4969TIP3   OH214849   1.257   4.319   3.960
 4969TIP3    H114850   1.280   4.243   3.906
 4969TIP3    H214851   1.167   4.341   3.933
 4970TIP3   OH214852   7.307   4.956   3.237
 4970TIP3    H114853   7.401   4.945   3.223
 4970TIP3    H214854   7.268   4.940   3.151
 4971TIP3   OH214855   2.119   5.458   6.044
 4971TIP3    H114856   2.072   5.507   6.112
 4971TIP3    H214857   2.122   5.519   5.970
 4972TIP3   OH214858   1.057   0.164   1.460
 4972TIP3    H114859   1.006   0.229   1.412
 4972TIP3    H214860   0.996   0.129   1.526
 4973TIP3   OH214861   5.161   5.083   1.569
 4973TIP3    H114862   5.149   4.988   1.581
 4973TIP3    H214863   5.193   5.091   1.479
 4974TIP3   OH214864   4.541   3.186   1.794
 4974TIP3    H114865   4.560   3.266   1.843
 4974TIP3    H214866   4.566   3.207   1.704
 4975TIP3   OH214867   6.836   4.191   6.310
 4975TIP3    H114868   6.927   4.220   6.316
 4975TIP3    H214869   6.819   4.147   6.393
 4976TIP3   OH214870   4.529   3.798   0.600
 4976TIP3    H114871   4.567   3.859   0.664
 4976TIP3    H214872   4.540   3.712   0.640
 4977TIP3   OH214873   2.535   2.169   5.073
 4977TIP3    H114874   2.493   2.117   5.141
 4977TIP3    H214875   2.531   2.259   5.105
 4978TIP3   OH214876   4.877   1.678   1.028
 4978TIP3    H114877   4.793   1.697   1.068
 4978TIP3    H214878   4.903   1.761   0.986
 4979TIP3   OH214879   4.535   5.950   0.105
 4979TIP3    H114880   4.460   5.911   0.061
 4979TIP3    H214881   4.583   5.996   0.036
 4980TIP3   OH214882   0.955   2.893   3.349
 4980TIP3    H114883   1.035   2.918   3.303
 4980TIP3    H214884   0.919   2.821   3.297
 4981TIP3   OH214885   3.907   5.772   3.299
 4981TIP3    H114886   3.918   5.820   3.217
 4981TIP3    H214887   3.928   5.836   3.367
 4982TIP3   OH214888   0.329   3.933   2.687
 4982TIP3    H114889   0.269   3.929   2.761
 4982TIP3    H214890   0.414   3.910   2.725
 4983TIP3   OH214891   3.559   6.804   1.853
 4983TIP3    H114892   3.559   6.886   1.804
 4983TIP3    H214893   3.519   6.828   1.937
 4984TIP3   OH214894   7.792   3.146   0.903
 4984TIP3    H114895   7.831   3.121   0.820
 4984TIP3    H214896   7.860   3.197   0.947
 4985TIP3   OH214897   6.827   2.311   0.416
 4985TIP3    H114898   6.851   2.404   0.418
 4985TIP3    H214899   6.786   2.295   0.501
 4986TIP3   OH214900   5.199   1.749   0.317
 4986TIP3    H114901   5.267   1.766   0.253
 4986TIP3    H214902   5.157   1.834   0.332
 4987TIP3   OH214903   6.984   5.256   6.177
 4987TIP3    H114904   6.994   5.348   6.153
 4987TIP3    H214905   7.053   5.240   6.241
 4988TIP3   OH214906   6.892   6.855   6.372
 4988TIP3    H114907   6.860   6.803   6.298
 4988TIP3    H214908   6.819   6.913   6.394
 4989TIP3   OH214909   0.727   3.686   0.646
 4989TIP3    H114910   0.639   3.722   0.654
 4989TIP3    H214911   0.713   3.594   0.623
 4990TIP3   OH214912   2.982   7.268   4.344
 4990TIP3    H114913   2.906   7.286   4.400
 4990TIP3    H214914   3.041   7.216   4.400
 4991TIP3   OH214915   4.709   3.032   4.186
 4991TIP3    H114916   4.781   3.004   4.129
 4991TIP3    H214917   4.727   3.124   4.205
 4992TIP3   OH214918   1.020   0.031   0.185
 4992TIP3    H114919   1.112   0.054   0.172
 4992TIP3    H214920   1.022  -0.040   0.249
 4993TIP3   OH214921   5.294   3.744   4.745
 4993TIP3    H114922   5.298   3.706   4.657
 4993TIP3    H214923   5.380   3.724   4.783
 4994TIP3   OH214924   0.520   3.132   6.335
 4994TIP3    H114925   0.435   3.091   6.316
 4994TIP3    H214926   0.513   3.220   6.297
 4995TIP3   OH214927   3.663   6.070   4.989
 4995TIP3    H114928   3.590   6.025   4.946
 4995TIP3    H214929   3.629   6.159   5.004
 4996TIP3   OH214930   2.414   0.315   1.893
 4996TIP3    H114931   2.395   0.408   1.902
 4996TIP3    H214932   2.390   0.294   1.803
 4997TIP3   OH214933   7.240   6.429   0.478
 4997TIP3    H114934   7.259   6.376   0.555
 4997TIP3    H214935   7.150   6.406   0.454
 4998TIP3   OH214936   2.719   5.107   3.770
 4998TIP3    H114937   2.710   5.073   3.681
 4998TIP3    H214938   2.806   5.078   3.798
 4999TIP3   OH214939   3.510   7.485   6.355
 4999TIP3    H114940   3.465   7.560   6.394
 4999TIP3    H214941   3.581   7.524   6.303
 5000TIP3   OH214942   6.720   6.530   6.297
 5000TIP3    H114943   6.661   6.490   6.233
 5000TIP3    H214944   6.805   6.492   6.278
 5001TIP3   OH214945   5.343   0.582   6.414
 5001TIP3    H114946   5.383   0.650   6.468
 5001TIP3    H214947   5.370   0.500   6.456
 5002TIP3   OH214948   8.067   0.844   4.436
 5002TIP3    H114949   8.026   0.771   4.390
 5002TIP3    H214950   8.160   0.837   4.415
 5003TIP3   OH214951   3.495   3.025   0.308
 5003TIP3    H114952   3.510   3.026   0.403
 5003TIP3    H214953   3.461   3.112   0.288
 5004TIP3   OH214954   3.210   6.314   1.801
 5004TIP3    H114955   3.179   6.300   1.712
 5004TIP3    H214956   3.270   6.241   1.818
 5005TIP3   OH214957   6.269   1.528   2.788
 5005TIP3    H114958   6.226   1.450   2.824
 5005TIP3    H214959   6.269   1.590   2.860
 5006TIP3   OH214960   2.352   1.996   4.014
 5006TIP3    H114961   2.320   2.070   3.963
 5006TIP3    H214962   2.281   1.977   4.076
 5007TIP3   OH214963   7.420   4.549   5.975
 5007TIP3    H114964   7.489   4.539   5.910
 5007TIP3    H214965   7.466   4.559   6.058
 5008TIP3   OH214966   4.051   5.710   5.629
 5008TIP3    H114967   4.107   5.639   5.660
 5008TIP3    H214968   4.090   5.737   5.545
 5009TIP3   OH214969   7.661   7.638   4.417
 5009TIP3    H114970   7.670   7.676   4.329
 5009TIP3    H214971   7.642   7.712   4.473
 5010TIP3   OH214972   6.728   1.038   6.681
 5010TIP3    H114973   6.640   1.054   6.645
 5010TIP3    H214974   6.712   1.018   6.773
 5011TIP3   OH214975   8.251   3.941   3.150
 5011TIP3    H114976   8.224   3.883   3.221
 5011TIP3    H214977   8.180   4.005   3.143
 5012TIP3   OH214978   6.632   0.913   2.109
 5012TIP3    H114979   6.693   0.921   2.036
 5012TIP3    H214980   6.635   0.820   2.132
 5013TIP3   OH214981   3.060   3.492   4.543
 5013TIP3    H114982   3.089   3.512   4.632
 5013TIP3    H214983   3.009   3.411   4.553
 5014TIP3   OH214984   7.326   3.417   6.522
 5014TIP3    H114985   7.419   3.432   6.536
 5014TIP3    H214986   7.320   3.325   6.495
 5015TIP3   OH214987   0.356   1.249   4.998
 5015TIP3    H114988   0.348   1.289   4.911
 5015TIP3    H214989   0.294   1.176   4.996
 5016TIP3   OH214990   4.124   1.607   4.777
 5016TIP3    H114991   4.053   1.627   4.717
 5016TIP3    H214992   4.152   1.692   4.811
 5017TIP3   OH214993   6.262   6.011   3.418
 5017TIP3    H114994   6.215   5.980   3.341
 5017TIP3    H214995   6.200   6.001   3.490
 5018TIP3   OH214996   0.913   4.386   6.340
 5018TIP3    H114997   0.932   4.472   6.304
 5018TIP3    H214998   0.817   4.385   6.350
 5019TIP3   OH214999   1.864   4.247   5.995
 5019TIP3    H115000   1.951   4.217   5.969
 5019TIP3    H215001   1.880   4.331   6.039
 5020TIP3   OH215002   2.121   3.430   4.930
 5020TIP3    H115003   2.165   3.400   4.850
 5020TIP3    H215004   2.165   3.513   4.951
 5021TIP3   OH215005   0.121   7.860   6.553
 5021TIP3    H115006   0.098   7.768   6.536
 5021TIP3    H215007   0.044   7.909   6.525
 5022TIP3   OH215008   5.966   3.740   6.192
 5022TIP3    H115009   5.881   3.720   6.231
 5022TIP3    H215010   5.954   3.722   6.099
 5023TIP3   OH215011   8.043   5.702   1.060
 5023TIP3    H115012   8.090   5.659   1.132
 5023TIP3    H215013   8.111   5.740   1.006
 5024TIP3   OH215014   8.029   5.539  -0.039
 5024TIP3    H115015   8.002   5.630  -0.028
 5024TIP3    H215016   7.987   5.492   0.034
 5025TIP3   OH215017   3.250   4.858   1.943
 5025TIP3    H115018   3.265   4.842   2.037
 5025TIP3    H215019   3.277   4.949   1.930
 5026TIP3   OH215020   2.696   7.153   3.083
 5026TIP3    H115021   2.735   7.137   2.998
 5026TIP3    H215022   2.608   7.185   3.064
 5027TIP3   OH215023   4.842   2.082   1.126
 5027TIP3    H115024   4.822   2.173   1.145
 5027TIP3    H215025   4.771   2.032   1.166
 5028TIP3   OH215026   0.584   4.592   4.381
 5028TIP3    H115027   0.612   4.618   4.293
 5028TIP3    H215028   0.549   4.672   4.420
 5029TIP3   OH215029   4.691   0.744   3.354
 5029TIP3    H115030   4.612   0.767   3.402
 5029TIP3    H215031   4.763   0.773   3.411
 5030TIP3   OH215032   4.993   7.773   1.526
 5030TIP3    H115033   4.937   7.746   1.599
 5030TIP3    H215034   5.073   7.806   1.567
 5031TIP3   OH215035   6.915   4.574   3.503
 5031TIP3    H115036   6.849   4.627   3.459
 5031TIP3    H215037   6.926   4.498   3.446
 5032TIP3   OH215038   1.666   5.653   4.589
 5032TIP3    H115039   1.740   5.608   4.547
 5032TIP3    H215040   1.589   5.617   4.546
 5033TIP3   OH215041   2.430   2.715   4.640
 5033TIP3    H115042   2.431   2.773   4.564
 5033TIP3    H215043   2.521   2.687   4.651
 5034TIP3   OH215044   4.003   2.465   2.277
 5034TIP3    H115045   3.911   2.486   2.260
 5034TIP3    H215046   4.037   2.541   2.324
 5035TIP3   OH215047   7.235   7.459   5.737
 5035TIP3    H115048   7.156   7.407   5.722
 5035TIP3    H215049   7.223   7.536   5.680
 5036TIP3   OH215050   4.421   0.108   0.081
 5036TIP3    H115051   4.331   0.129   0.105
 5036TIP3    H215052   4.468   0.190   0.092
 5037TIP3   OH215053   0.255   6.790   6.445
 5037TIP3    H115054   0.317   6.717   6.443
 5037TIP3    H215055   0.299   6.857   6.497
 5038TIP3   OH215056   3.084   6.207   0.059
 5038TIP3    H115057   3.034   6.126   0.057
 5038TIP3    H215058   3.096   6.230  -0.033
 5039TIP3   OH215059   3.688   3.949   3.393
 5039TIP3    H115060   3.632   3.988   3.461
 5039TIP3    H215061   3.777   3.958   3.427
 5040TIP3   OH215062   2.961   3.453   5.129
 5040TIP3    H115063   2.995   3.366   5.108
 5040TIP3    H215064   2.900   3.439   5.201
 5041TIP3   OH215065   7.618   2.565   2.192
 5041TIP3    H115066   7.686   2.631   2.187
 5041TIP3    H215067   7.617   2.538   2.284
 5042TIP3   OH215068   3.261   2.991   2.025
 5042TIP3    H115069   3.247   2.974   2.118
 5042TIP3    H215070   3.180   2.961   1.982
 5043TIP3   OH215071   3.924   7.030   5.425
 5043TIP3    H115072   3.949   7.090   5.495
 5043TIP3    H215073   3.983   6.956   5.434
 5044TIP3   OH215074   0.079   2.367   4.136
 5044TIP3    H115075   0.011   2.433   4.123
 5044TIP3    H215076   0.090   2.364   4.231
 5045TIP3   OH215077   4.466   7.761   0.908
 5045TIP3    H115078   4.524   7.789   0.978
 5045TIP3    H215079   4.410   7.836   0.890
 5046TIP3   OH215080   0.063   1.971   4.567
 5046TIP3    H115081   0.092   1.880   4.571
 5046TIP3    H215082   0.140   2.022   4.592
 5047TIP3   OH215083   5.190   5.039   0.168
 5047TIP3    H115084   5.151   5.048   0.255
 5047TIP3    H215085   5.247   5.115   0.159
 5048TIP3   OH215086   5.879   2.379   5.769
 5048TIP3    H115087   5.949   2.437   5.739
 5048TIP3    H215088   5.831   2.358   5.689
 5049TIP3   OH215089   0.481   7.561   1.388
 5049TIP3    H115090   0.520   7.593   1.307
 5049TIP3    H215091   0.535   7.599   1.458
 5050TIP3   OH215092   6.158   6.014   6.011
 5050TIP3    H115093   6.110   5.939   6.046
 5050TIP3    H215094   6.104   6.045   5.938
 5051TIP3   OH215095   0.194   4.629   2.206
 5051TIP3    H115096   0.106   4.616   2.171
 5051TIP3    H215097   0.230   4.701   2.154
 5052TIP3   OH215098   0.908   3.065   5.258
 5052TIP3    H115099   0.941   3.139   5.309
 5052TIP3    H215100   0.830   3.100   5.214
 5053TIP3   OH215101   8.261   5.692   0.627
 5053TIP3    H115102   8.205   5.632   0.578
 5053TIP3    H215103   8.343   5.645   0.638
 5054TIP3   OH215104   5.600   3.697   1.290
 5054TIP3    H115105   5.612   3.613   1.246
 5054TIP3    H215106   5.640   3.761   1.232
 5055TIP3   OH215107   7.758   3.621   3.093
 5055TIP3    H115108   7.717   3.700   3.130
 5055TIP3    H215109   7.803   3.653   3.015
 5056TIP3   OH215110   7.006   2.372   6.656
 5056TIP3    H115111   6.948   2.414   6.719
 5056TIP3    H215112   7.036   2.442   6.599
 5057TIP3   OH215113   4.667   7.428   5.965
 5057TIP3    H115114   4.677   7.340   6.002
 5057TIP3    H215115   4.587   7.423   5.912
 5058TIP3   OH215116   7.871   1.692   6.709
 5058TIP3    H115117   7.783   1.658   6.726
 5058TIP3    H215118   7.901   1.643   6.632
 5059TIP3   OH215119   7.084   6.594   3.694
 5059TIP3    H115120   7.175   6.563   3.686
 5059TIP3    H215121   7.046   6.578   3.607
 5060TIP3   OH215122   6.187   2.968   3.015
 5060TIP3    H115123   6.104   2.922   3.029
 5060TIP3    H215124   6.199   3.022   3.094
 5061TIP3   OH215125   5.866   0.201   6.669
 5061TIP3    H115126   5.862   0.195   6.764
 5061TIP3    H215127   5.818   0.124   6.638
 5062TIP3   OH215128   3.571   6.335   4.983
 5062TIP3    H115129   3.648   6.391   4.988
 5062TIP3    H215130   3.507   6.376   5.040
 5063TIP3   OH215131   7.508   2.044   6.275
 5063TIP3    H115132   7.431   2.037   6.219
 5063TIP3    H215133   7.474   2.033   6.364
 5064TIP3   OH215134   0.977   1.749   3.947
 5064TIP3    H115135   0.907   1.749   3.882
 5064TIP3    H215136   1.010   1.839   3.947
 5065TIP3   OH215137   1.570   6.160   2.219
 5065TIP3    H115138   1.552   6.096   2.287
 5065TIP3    H215139   1.486   6.171   2.174
 5066TIP3   OH215140   1.118   4.074   4.501
 5066TIP3    H115141   1.149   4.034   4.582
 5066TIP3    H215142   1.086   4.000   4.449
 5067TIP3   OH215143   6.949   7.726   5.177
 5067TIP3    H115144   6.924   7.680   5.096
 5067TIP3    H215145   7.044   7.716   5.181
 5068TIP3   OH215146   1.406   0.167   5.547
 5068TIP3    H115147   1.397   0.222   5.625
 5068TIP3    H215148   1.381   0.079   5.576
 5069TIP3   OH215149   5.284   5.552   1.435
 5069TIP3    H115150   5.281   5.618   1.504
 5069TIP3    H215151   5.221   5.486   1.462
 5070TIP3   OH215152   5.830   3.236   4.290
 5070TIP3    H115153   5.788   3.256   4.206
 5070TIP3    H215154   5.879   3.314   4.313
 5071TIP3   OH215155   6.435   5.080   0.807
 5071TIP3    H115156   6.443   5.151   0.744
 5071TIP3    H215157   6.451   5.000   0.756
 5072TIP3   OH215158   4.705   0.931   5.393
 5072TIP3    H115159   4.680   0.956   5.304
 5072TIP3    H215160   4.637   0.966   5.449
 5073TIP3   OH215161   6.636   6.196   5.805
 5073TIP3    H115162   6.625   6.113   5.851
 5073TIP3    H215163   6.652   6.170   5.714
 5074TIP3   OH215164   5.113   5.502   0.017
 5074TIP3    H115165   5.149   5.434   0.074
 5074TIP3    H215166   5.186   5.562   0.004
 5075TIP3   OH215167   2.529   4.688   0.609
 5075TIP3    H115168   2.579   4.755   0.654
 5075TIP3    H215169   2.450   4.678   0.661
 5076TIP3   OH215170   4.476   4.413   1.331
 5076TIP3    H115171   4.514   4.327   1.309
 5076TIP3    H215172   4.542   4.455   1.385
 5077TIP3   OH215173   7.695   6.856   0.996
 5077TIP3    H115174   7.656   6.826   1.078
 5077TIP3    H215175   7.752   6.785   0.969
 5078TIP3   OH215176   6.158   5.057   6.134
 5078TIP3    H115177   6.228   5.070   6.198
 5078TIP3    H215178   6.190   4.987   6.077
 5079TIP3   OH215179   5.610   6.283   2.255
 5079TIP3    H115180   5.534   6.332   2.286
 5079TIP3    H215181   5.683   6.345   2.261
 5080TIP3   OH215182   7.067   6.982   3.896
 5080TIP3    H115183   7.137   7.018   3.950
 5080TIP3    H215184   7.067   6.888   3.916
 5081TIP3   OH215185   5.553   5.563   1.822
 5081TIP3    H115186   5.474   5.615   1.811
 5081TIP3    H215187   5.561   5.512   1.742
 5082TIP3   OH215188   0.441   3.326   6.135
 5082TIP3    H115189   0.426   3.293   6.046
 5082TIP3    H215190   0.354   3.344   6.170
 5083TIP3   OH215191   8.272   4.618   1.721
 5083TIP3    H115192   8.353   4.571   1.738
 5083TIP3    H215193   8.299   4.696   1.673
 5084TIP3   OH215194   4.557   5.872   5.863
 5084TIP3    H115195   4.622   5.942   5.854
 5084TIP3    H215196   4.498   5.885   5.789
 5085TIP3   OH215197   7.804   3.882   0.774
 5085TIP3    H115198   7.878   3.932   0.740
 5085TIP3    H215199   7.839   3.794   0.791
 5086TIP3   OH215200   5.760   3.462   3.762
 5086TIP3    H115201   5.693   3.462   3.830
 5086TIP3    H215202   5.807   3.544   3.773
 5087TIP3   OH215203   3.277   0.990   1.553
 5087TIP3    H115204   3.189   0.964   1.579
 5087TIP3    H215205   3.284   0.966   1.461
 5088TIP3   OH215206   1.704   6.204   3.395
 5088TIP3    H115207   1.731   6.149   3.321
 5088TIP3    H215208   1.654   6.275   3.354
 5089TIP3   OH215209   4.424   5.591   5.430
 5089TIP3    H115210   4.407   5.574   5.338
 5089TIP3    H215211   4.500   5.536   5.451
 5090TIP3   OH215212   5.945   2.495   6.280
 5090TIP3    H115213   5.880   2.479   6.211
 5090TIP3    H215214   6.023   2.448   6.251
 5091TIP3   OH215215   2.755   7.468   0.084
 5091TIP3    H115216   2.844   7.483   0.115
 5091TIP3    H215217   2.707   7.545   0.113
 5092TIP3   OH215218   1.252   4.798   3.560
 5092TIP3    H115219   1.317   4.849   3.513
 5092TIP3    H215220   1.248   4.715   3.514
 5093TIP3   OH215221   3.651   5.859   2.546
 5093TIP3    H115222   3.611   5.911   2.476
 5093TIP3    H215223   3.600   5.882   2.625
 5094TIP3   OH215224   5.863   4.993   0.277
 5094TIP3    H115225   5.830   5.071   0.234
 5094TIP3    H215226   5.951   5.016   0.307
 5095TIP3   OH215227   1.081   2.937   1.382
 5095TIP3    H115228   1.015   2.889   1.333
 5095TIP3    H215229   1.087   3.022   1.338
 5096TIP3   OH215230   2.480   4.476   3.217
 5096TIP3    H115231   2.395   4.479   3.261
 5096TIP3    H215232   2.493   4.383   3.196
 5097TIP3   OH215233   1.794   2.856   3.186
 5097TIP3    H115234   1.747   2.939   3.197
 5097TIP3    H215235   1.883   2.875   3.214
 5098TIP3   OH215236   6.270   3.742   0.553
 5098TIP3    H115237   6.293   3.715   0.642
 5098TIP3    H215238   6.180   3.710   0.541
 5099TIP3   OH215239   0.481   0.190   2.299
 5099TIP3    H115240   0.453   0.247   2.370
 5099TIP3    H215241   0.565   0.227   2.271
 5100TIP3   OH215242   1.397   3.247   3.390
 5100TIP3    H115243   1.390   3.278   3.480
 5100TIP3    H215244   1.309   3.259   3.354
 5101TIP3   OH215245   3.540   2.932   5.382
 5101TIP3    H115246   3.589   2.996   5.434
 5101TIP3    H215247   3.472   2.983   5.339
 5102TIP3   OH215248   7.389   5.783   5.065
 5102TIP3    H115249   7.425   5.724   4.998
 5102TIP3    H215250   7.383   5.868   5.021
 5103TIP3   OH215251   7.285   2.631   4.371
 5103TIP3    H115252   7.210   2.609   4.316
 5103TIP3    H215253   7.348   2.671   4.310
 5104TIP3   OH215254   3.257   2.665   2.071
 5104TIP3    H115255   3.249   2.586   2.125
 5104TIP3    H215256   3.275   2.735   2.134
 5105TIP3   OH215257   7.068   1.085   6.139
 5105TIP3    H115258   7.106   1.144   6.073
 5105TIP3    H215259   7.045   1.143   6.212
 5106TIP3   OH215260   7.757   3.975   3.302
 5106TIP3    H115261   7.740   3.953   3.394
 5106TIP3    H215262   7.691   3.926   3.253
 5107TIP3   OH215263   0.898   6.309   6.625
 5107TIP3    H115264   0.906   6.216   6.600
 5107TIP3    H215265   0.981   6.329   6.668
 5108TIP3   OH215266   2.241   1.207   5.841
 5108TIP3    H115267   2.185   1.216   5.919
 5108TIP3    H215268   2.182   1.218   5.767
 5109TIP3   OH215269   3.594   3.192   1.443
 5109TIP3    H115270   3.642   3.252   1.500
 5109TIP3    H215271   3.505   3.192   1.479
 5110TIP3   OH215272   7.903   4.839   3.356
 5110TIP3    H115273   7.888   4.745   3.350
 5110TIP3    H215274   7.987   4.853   3.312
 5111TIP3   OH215275   1.081   6.163   1.396
 5111TIP3    H115276   1.149   6.124   1.450
 5111TIP3    H215277   1.085   6.114   1.313
 5112TIP3   OH215278   1.519   4.951   2.385
 5112TIP3    H115279   1.553   4.950   2.474
 5112TIP3    H215280   1.511   5.044   2.363
 5113TIP3   OH215281   2.393   1.150   6.080
 5113TIP3    H115282   2.330   1.164   6.150
 5113TIP3    H215283   2.472   1.118   6.124
 5114TIP3   OH215284   5.440   1.522   6.248
 5114TIP3    H115285   5.401   1.532   6.335
 5114TIP3    H215286   5.436   1.610   6.211
 5115TIP3   OH215287   5.681   1.303   3.881
 5115TIP3    H115288   5.734   1.358   3.939
 5115TIP3    H215289   5.690   1.215   3.916
 5116TIP3   OH215290   1.610   1.290   4.484
 5116TIP3    H115291   1.670   1.293   4.410
 5116TIP3    H215292   1.588   1.382   4.501
 5117TIP3   OH215293   3.883   7.601   2.007
 5117TIP3    H115294   3.964   7.568   1.968
 5117TIP3    H215295   3.912   7.657   2.079
 5118TIP3   OH215296   4.307   5.212   6.189
 5118TIP3    H115297   4.274   5.259   6.265
 5118TIP3    H215298   4.399   5.238   6.183
 5119TIP3   OH215299   2.616   2.415   0.723
 5119TIP3    H115300   2.658   2.378   0.801
 5119TIP3    H215301   2.688   2.451   0.672
 5120TIP3   OH215302   4.409   0.651   2.116
 5120TIP3    H115303   4.490   0.627   2.161
 5120TIP3    H215304   4.344   0.658   2.186
 5121TIP3   OH215305   4.245   1.719   0.035
 5121TIP3    H115306   4.231   1.812   0.054
 5121TIP3    H215307   4.179   1.698  -0.031
 5122TIP3   OH215308   7.392   1.280   3.691
 5122TIP3    H115309   7.310   1.288   3.643
 5122TIP3    H215310   7.407   1.186   3.698
 5123TIP3   OH215311   3.595   4.225   1.362
 5123TIP3    H115312   3.664   4.245   1.298
 5123TIP3    H215313   3.638   4.233   1.447
 5124TIP3   OH215314   1.295   6.962   2.010
 5124TIP3    H115315   1.224   6.933   1.953
 5124TIP3    H215316   1.369   6.907   1.985
 5125TIP3   OH215317   1.621   3.730   0.057
 5125TIP3    H115318   1.675   3.767   0.126
 5125TIP3    H215319   1.683   3.686  -0.001
 5126TIP3   OH215320   1.564   1.890   2.509
 5126TIP3    H115321   1.581   1.823   2.575
 5126TIP3    H215322   1.652   1.917   2.481
 5127TIP3   OH215323   0.043   6.618   4.000
 5127TIP3    H115324   0.106   6.668   3.948
 5127TIP3    H215325   0.046   6.659   4.087
 5128TIP3   OH215326   7.348   1.302   3.028
 5128TIP3    H115327   7.427   1.293   2.975
 5128TIP3    H215328   7.279   1.262   2.975
 5129TIP3   OH215329   2.413   6.777   1.756
 5129TIP3    H115330   2.335   6.763   1.810
 5129TIP3    H215331   2.379   6.786   1.667
 5130TIP3   OH215332   3.517   6.951   2.080
 5130TIP3    H115333   3.446   7.014   2.096
 5130TIP3    H215334   3.507   6.885   2.149
 5131TIP3   OH215335   1.573   0.350   5.735
 5131TIP3    H115336   1.646   0.311   5.686
 5131TIP3    H215337   1.550   0.428   5.686
 5132TIP3   OH215338   2.661   4.160   3.008
 5132TIP3    H115339   2.730   4.095   2.995
 5132TIP3    H215340   2.599   4.143   2.937
 5133TIP3   OH215341   5.585   7.679   6.155
 5133TIP3    H115342   5.575   7.770   6.125
 5133TIP3    H215343   5.680   7.668   6.166
 5134TIP3   OH215344   2.914   2.414   1.479
 5134TIP3    H115345   2.837   2.462   1.448
 5134TIP3    H215346   2.904   2.411   1.574
 5135TIP3   OH215347   5.865   7.397   5.710
 5135TIP3    H115348   5.892   7.419   5.799
 5135TIP3    H215349   5.835   7.480   5.672
 5136TIP3   OH215350   7.617   6.210   2.679
 5136TIP3    H115351   7.526   6.198   2.654
 5136TIP3    H215352   7.642   6.126   2.718
 5137TIP3   OH215353   1.317   3.621   5.464
 5137TIP3    H115354   1.391   3.680   5.478
 5137TIP3    H215355   1.249   3.676   5.425
 5138TIP3   OH215356   6.210   4.216   6.307
 5138TIP3    H115357   6.172   4.292   6.263
 5138TIP3    H215358   6.190   4.142   6.249
 5139TIP3   OH215359   4.808   6.858   1.459
 5139TIP3    H115360   4.902   6.862   1.444
 5139TIP3    H215361   4.770   6.917   1.394
 5140TIP3   OH215362   2.239   5.170   1.146
 5140TIP3    H115363   2.150   5.206   1.150
 5140TIP3    H215364   2.275   5.185   1.233
 5141TIP3   OH215365   6.620   6.480   6.558
 5141TIP3    H115366   6.673   6.473   6.479
 5141TIP3    H215367   6.576   6.565   6.550
 5142TIP3   OH215368   6.422   6.819   3.371
 5142TIP3    H115369   6.354   6.841   3.308
 5142TIP3    H215370   6.474   6.751   3.328
 5143TIP3   OH215371   3.469   4.321   3.349
 5143TIP3    H115372   3.442   4.413   3.357
 5143TIP3    H215373   3.550   4.316   3.400
 5144TIP3   OH215374   4.456   2.820   4.298
 5144TIP3    H115375   4.459   2.755   4.228
 5144TIP3    H215376   4.441   2.769   4.377
 5145TIP3   OH215377   3.824   5.490   2.653
 5145TIP3    H115378   3.845   5.531   2.569
 5145TIP3    H215379   3.890   5.422   2.664
 5146TIP3   OH215380   2.338   7.423   5.258
 5146TIP3    H115381   2.394   7.390   5.188
 5146TIP3    H215382   2.377   7.389   5.338
 5147TIP3   OH215383   3.306   7.726   3.406
 5147TIP3    H115384   3.253   7.676   3.344
 5147TIP3    H215385   3.306   7.674   3.486
 5148TIP3   OH215386   1.913   6.462   4.503
 5148TIP3    H115387   1.828   6.464   4.458
 5148TIP3    H215388   1.926   6.370   4.524
 5149TIP3   OH215389   5.548   2.997   4.021
 5149TIP3    H115390   5.622   2.940   4.045
 5149TIP3    H215391   5.563   3.016   3.928
 5150TIP3   OH215392   4.913   4.957   6.585
 5150TIP3    H115393   4.983   4.893   6.574
 5150TIP3    H215394   4.958   5.042   6.591
 5151TIP3   OH215395   4.397   6.132   4.323
 5151TIP3    H115396   4.318   6.176   4.292
 5151TIP3    H215397   4.386   6.125   4.417
 5152TIP3   OH215398   6.669   1.039   5.326
 5152TIP3    H115399   6.636   0.985   5.255
 5152TIP3    H215400   6.617   1.119   5.323
 5153TIP3   OH215401   4.727   5.940   1.552
 5153TIP3    H115402   4.754   5.869   1.494
 5153TIP3    H215403   4.794   5.942   1.621
 5154TIP3   OH215404   0.696   3.003   5.536
 5154TIP3    H115405   0.622   2.958   5.578
 5154TIP3    H215406   0.766   2.937   5.535
 5155TIP3   OH215407   2.099   6.079   2.798
 5155TIP3    H115408   2.009   6.109   2.809
 5155TIP3    H215409   2.138   6.089   2.885
 5156TIP3   OH215410   6.803   7.077   2.236
 5156TIP3    H115411   6.743   7.015   2.195
 5156TIP3    H215412   6.868   7.095   2.168
 5157TIP3   OH215413   0.779   5.151   2.118
 5157TIP3    H115414   0.787   5.071   2.171
 5157TIP3    H215415   0.735   5.214   2.176
 5158TIP3   OH215416   2.185   2.530   2.874
 5158TIP3    H115417   2.189   2.561   2.783
 5158TIP3    H215418   2.226   2.443   2.871
 5159TIP3   OH215419   4.388   5.801   0.694
 5159TIP3    H115420   4.379   5.712   0.661
 5159TIP3    H215421   4.435   5.848   0.624
 5160TIP3   OH215422   6.630   2.621   5.233
 5160TIP3    H115423   6.663   2.675   5.161
 5160TIP3    H215424   6.701   2.561   5.253
 5161TIP3   OH215425   6.005   3.623   0.671
 5161TIP3    H115426   6.037   3.587   0.753
 5161TIP3    H215427   5.912   3.642   0.688
 5162TIP3   OH215428   6.133   5.215   0.668
 5162TIP3    H115429   6.160   5.127   0.640
 5162TIP3    H215430   6.201   5.273   0.635
 5163TIP3   OH215431   7.592   4.362   4.317
 5163TIP3    H115432   7.669   4.374   4.371
 5163TIP3    H215433   7.518   4.366   4.379
 5164TIP3   OH215434   2.333   2.956   2.137
 5164TIP3    H115435   2.312   2.915   2.054
 5164TIP3    H215436   2.426   2.939   2.150
 5165TIP3   OH215437   5.098   5.786   5.022
 5165TIP3    H115438   5.146   5.703   5.027
 5165TIP3    H215439   5.164   5.853   5.039
 5166TIP3   OH215440   5.097   7.467   3.375
 5166TIP3    H115441   5.045   7.423   3.442
 5166TIP3    H215442   5.038   7.534   3.340
 5167TIP3   OH215443   7.697   5.374   0.618
 5167TIP3    H115444   7.655   5.364   0.704
 5167TIP3    H215445   7.625   5.366   0.555
 5168TIP3   OH215446   3.816   1.379   2.379
 5168TIP3    H115447   3.854   1.443   2.319
 5168TIP3    H215448   3.811   1.425   2.463
 5169TIP3   OH215449   6.212   2.286   5.542
 5169TIP3    H115450   6.236   2.333   5.621
 5169TIP3    H215451   6.212   2.353   5.473
 5170TIP3   OH215452   2.097   1.185   3.573
 5170TIP3    H115453   2.074   1.261   3.628
 5170TIP3    H215454   2.155   1.133   3.628
 5171TIP3   OH215455   7.863   6.465   0.363
 5171TIP3    H115456   7.876   6.477   0.457
 5171TIP3    H215457   7.950   6.443   0.329
 5172TIP3   OH215458   0.742   0.080   1.106
 5172TIP3    H115459   0.674   0.147   1.114
 5172TIP3    H215460   0.695  -0.001   1.086
 5173TIP3   OH215461   0.627   2.162   5.578
 5173TIP3    H115462   0.674   2.173   5.661
 5173TIP3    H215463   0.542   2.203   5.592
 5174TIP3   OH215464   8.020   4.680   5.378
 5174TIP3    H115465   8.050   4.705   5.466
 5174TIP3    H215466   7.992   4.763   5.338
 5175TIP3   OH215467   5.587   6.792   0.088
 5175TIP3    H115468   5.501   6.833   0.086
 5175TIP3    H215469   5.576   6.707   0.045
 5176TIP3   OH215470   7.203   3.918   3.625
 5176TIP3    H115471   7.137   3.907   3.556
 5176TIP3    H215472   7.152   3.929   3.706
 5177TIP3   OH215473   7.466   5.789   0.119
 5177TIP3    H115474   7.551   5.799   0.163
 5177TIP3    H215475   7.485   5.801   0.026
 5178TIP3   OH215476   4.642   1.211   3.533
 5178TIP3    H115477   4.698   1.225   3.609
 5178TIP3    H215478   4.554   1.203   3.569
 5179TIP3   OH215479   0.839   0.588   6.257
 5179TIP3    H115480   0.916   0.602   6.202
 5179TIP3    H215481   0.862   0.512   6.311
 5180TIP3   OH215482   4.791   7.198   6.091
 5180TIP3    H115483   4.877   7.184   6.052
 5180TIP3    H215484   4.772   7.115   6.136
 5181TIP3   OH215485   1.017   1.956   6.569
 5181TIP3    H115486   1.034   2.000   6.653
 5181TIP3    H215487   1.010   1.864   6.591
 5182TIP3   OH215488   0.678   0.250   4.136
 5182TIP3    H115489   0.643   0.329   4.177
 5182TIP3    H215490   0.609   0.222   4.076
 5183TIP3   OH215491   0.806   5.435   3.234
 5183TIP3    H115492   0.871   5.440   3.165
 5183TIP3    H215493   0.784   5.527   3.253
 5184TIP3   OH215494   0.815   2.581   3.969
 5184TIP3    H115495   0.831   2.503   4.021
 5184TIP3    H215496   0.720   2.595   3.976
 5185TIP3   OH215497   2.932   3.382   5.954
 5185TIP3    H115498   2.941   3.288   5.969
 5185TIP3    H215499   2.902   3.416   6.039
 5186TIP3   OH215500   1.112   1.229   0.470
 5186TIP3    H115501   1.161   1.181   0.403
 5186TIP3    H215502   1.179   1.266   0.527
 5187TIP3   OH215503   7.420   0.652   4.519
 5187TIP3    H115504   7.392   0.627   4.431
 5187TIP3    H215505   7.487   0.719   4.505
 5188TIP3   OH215506   8.011   4.887   0.196
 5188TIP3    H115507   8.075   4.834   0.243
 5188TIP3    H215508   8.019   4.859   0.104
 5189TIP3   OH215509   0.704   6.039   2.853
 5189TIP3    H115510   0.781   5.986   2.871
 5189TIP3    H215511   0.698   6.099   2.928
 5190TIP3   OH215512   6.811   1.728   1.999
 5190TIP3    H115513   6.784   1.724   2.091
 5190TIP3    H215514   6.890   1.674   1.995
 5191TIP3   OH215515   1.334   1.377   1.730
 5191TIP3    H115516   1.383   1.393   1.649
 5191TIP3    H215517   1.270   1.448   1.733
 5192TIP3   OH215518   7.205   7.759   5.243
 5192TIP3    H115519   7.262   7.693   5.283
 5192TIP3    H215520   7.223   7.839   5.290
 5193TIP3   OH215521   2.802   1.608   2.060
 5193TIP3    H115522   2.765   1.559   2.134
 5193TIP3    H215523   2.836   1.689   2.099
 5194TIP3   OH215524   3.669   1.331   1.180
 5194TIP3    H115525   3.678   1.254   1.124
 5194TIP3    H215526   3.661   1.296   1.268
 5195TIP3   OH215527   5.241   3.635   1.098
 5195TIP3    H115528   5.271   3.658   1.186
 5195TIP3    H215529   5.150   3.663   1.095
 5196TIP3   OH215530   1.260   2.943   3.237
 5196TIP3    H115531   1.330   3.009   3.241
 5196TIP3    H215532   1.242   2.934   3.143
 5197TIP3   OH215533   4.168   3.687   6.302
 5197TIP3    H115534   4.212   3.770   6.288
 5197TIP3    H215535   4.118   3.700   6.383
 5198TIP3   OH215536   7.743   4.363   1.090
 5198TIP3    H115537   7.664   4.379   1.141
 5198TIP3    H215538   7.741   4.269   1.072
 5199TIP3   OH215539   6.277   5.970   2.199
 5199TIP3    H115540   6.262   6.058   2.163
 5199TIP3    H215541   6.329   5.985   2.278
 5200TIP3   OH215542   7.136   4.501   1.555
 5200TIP3    H115543   7.227   4.471   1.560
 5200TIP3    H215544   7.143   4.597   1.552
 5201TIP3   OH215545   0.283   1.833   0.307
 5201TIP3    H115546   0.227   1.886   0.363
 5201TIP3    H215547   0.255   1.743   0.324
 5202TIP3   OH215548   6.096   0.957   4.293
 5202TIP3    H115549   6.094   0.872   4.248
 5202TIP3    H215550   6.059   0.938   4.379
 5203TIP3   OH215551   3.876   1.799   1.338
 5203TIP3    H115552   3.947   1.813   1.275
 5203TIP3    H215553   3.862   1.885   1.378
 5204TIP3   OH215554   7.670   0.143   3.176
 5204TIP3    H115555   7.649   0.080   3.245
 5204TIP3    H215556   7.624   0.223   3.203
 5205TIP3   OH215557   4.053   3.486   3.554
 5205TIP3    H115558   4.089   3.479   3.643
 5205TIP3    H215559   3.971   3.534   3.565
 5206TIP3   OH215560   3.824   4.109   5.419
 5206TIP3    H115561   3.838   4.106   5.325
 5206TIP3    H215562   3.788   4.196   5.436
 5207TIP3   OH215563   7.555   3.887   4.719
 5207TIP3    H115564   7.601   3.964   4.685
 5207TIP3    H215565   7.462   3.911   4.715
 5208TIP3   OH215566   4.822   7.299   4.837
 5208TIP3    H115567   4.871   7.229   4.879
 5208TIP3    H215568   4.843   7.291   4.744
 5209TIP3   OH215569   4.161   6.311   0.850
 5209TIP3    H115570   4.088   6.373   0.843
 5209TIP3    H215571   4.171   6.297   0.944
 5210TIP3   OH215572   7.662   5.128   1.676
 5210TIP3    H115573   7.694   5.038   1.666
 5210TIP3    H215574   7.568   5.118   1.690
 5211TIP3   OH215575   0.579   0.553   1.830
 5211TIP3    H115576   0.595   0.533   1.737
 5211TIP3    H215577   0.540   0.473   1.865
 5212TIP3   OH215578   0.556   1.267   2.647
 5212TIP3    H115579   0.622   1.210   2.687
 5212TIP3    H215580   0.598   1.301   2.568
 5213TIP3   OH215581   1.369   4.789   5.255
 5213TIP3    H115582   1.297   4.840   5.291
 5213TIP3    H215583   1.342   4.698   5.265
 5214TIP3   OH215584   6.563   6.273   3.792
 5214TIP3    H115585   6.475   6.237   3.807
 5214TIP3    H215586   6.567   6.351   3.848
 5215TIP3   OH215587   0.440   0.336   1.908
 5215TIP3    H115588   0.455   0.246   1.878
 5215TIP3    H215589   0.374   0.327   1.977
 5216TIP3   OH215590   0.800   5.742   6.302
 5216TIP3    H115591   0.799   5.646   6.291
 5216TIP3    H215592   0.886   5.760   6.340
 5217TIP3   OH215593   0.441   3.466   4.855
 5217TIP3    H115594   0.436   3.374   4.829
 5217TIP3    H215595   0.442   3.464   4.950
 5218TIP3   OH215596   3.625   1.152   0.402
 5218TIP3    H115597   3.678   1.152   0.322
 5218TIP3    H215598   3.639   1.065   0.440
 5219TIP3   OH215599   1.966   3.399   2.167
 5219TIP3    H115600   2.047   3.423   2.213
 5219TIP3    H215601   1.926   3.483   2.144
 5220TIP3   OH215602   0.190   3.602   4.784
 5220TIP3    H115603   0.252   3.536   4.815
 5220TIP3    H215604   0.210   3.680   4.836
 5221TIP3   OH215605   0.726   5.088   1.643
 5221TIP3    H115606   0.804   5.047   1.681
 5221TIP3    H215607   0.687   5.136   1.716
 5222TIP3   OH215608   4.797   4.174   5.020
 5222TIP3    H115609   4.787   4.268   5.004
 5222TIP3    H215610   4.891   4.161   5.030
 5223TIP3   OH215611   4.732   2.628   4.196
 5223TIP3    H115612   4.705   2.656   4.284
 5223TIP3    H215613   4.653   2.590   4.158
 5224TIP3   OH215614   0.718   5.020   2.568
 5224TIP3    H115615   0.638   4.968   2.561
 5224TIP3    H215616   0.695   5.091   2.629
 5225TIP3   OH215617   4.601   6.520   1.350
 5225TIP3    H115618   4.532   6.468   1.309
 5225TIP3    H215619   4.593   6.607   1.310
 5226TIP3   OH215620   1.191   4.734   3.084
 5226TIP3    H115621   1.217   4.677   3.011
 5226TIP3    H215622   1.095   4.735   3.079
 5227TIP3   OH215623   6.244   6.692   2.312
 5227TIP3    H115624   6.296   6.696   2.393
 5227TIP3    H215625   6.154   6.677   2.342
 5228TIP3   OH215626   7.771   4.900   4.158
 5228TIP3    H115627   7.737   4.935   4.241
 5228TIP3    H215628   7.750   4.807   4.162
 5229TIP3   OH215629   0.565   4.463   2.634
 5229TIP3    H115630   0.609   4.537   2.677
 5229TIP3    H215631   0.516   4.502   2.563
 5230TIP3   OH215632   7.597   1.857   1.931
 5230TIP3    H115633   7.558   1.916   1.995
 5230TIP3    H215634   7.686   1.840   1.964
 5231TIP3   OH215635   0.724   1.121   2.801
 5231TIP3    H115636   0.773   1.089   2.726
 5231TIP3    H215637   0.690   1.042   2.843
 5232TIP3   OH215638   2.908   3.604   2.738
 5232TIP3    H115639   2.859   3.683   2.763
 5232TIP3    H215640   3.000   3.628   2.753
 5233TIP3   OH215641   1.284   7.732   4.312
 5233TIP3    H115642   1.229   7.658   4.335
 5233TIP3    H215643   1.310   7.770   4.396
 5234TIP3   OH215644   7.275   3.317   1.809
 5234TIP3    H115645   7.306   3.239   1.855
 5234TIP3    H215646   7.348   3.343   1.753
 5235TIP3   OH215647   5.089   5.697   2.170
 5235TIP3    H115648   5.026   5.637   2.208
 5235TIP3    H215649   5.169   5.685   2.222
 5236TIP3   OH215650   5.904   2.537   4.511
 5236TIP3    H115651   5.822   2.586   4.505
 5236TIP3    H215652   5.890   2.476   4.583
 5237TIP3   OH215653   4.142   5.730   2.032
 5237TIP3    H115654   4.146   5.732   1.936
 5237TIP3    H215655   4.222   5.775   2.060
 5238TIP3   OH215656   2.035   6.480   2.799
 5238TIP3    H115657   2.057   6.437   2.882
 5238TIP3    H215658   2.100   6.447   2.737
 5239TIP3   OH215659   5.928   6.790   3.038
 5239TIP3    H115660   5.976   6.712   3.066
 5239TIP3    H215661   5.838   6.760   3.024
 5240TIP3   OH215662   7.052   0.241   2.500
 5240TIP3    H115663   7.127   0.254   2.558
 5240TIP3    H215664   7.028   0.330   2.473
 5241TIP3   OH215665   7.428   7.710   1.051
 5241TIP3    H115666   7.345   7.663   1.050
 5241TIP3    H215667   7.451   7.717   1.144
 5242TIP3   OH215668   7.209   6.662   4.805
 5242TIP3    H115669   7.218   6.686   4.713
 5242TIP3    H215670   7.114   6.662   4.820
 5243TIP3   OH215671   3.161   4.719   0.205
 5243TIP3    H115672   3.077   4.757   0.179
 5243TIP3    H215673   3.162   4.632   0.166
 5244TIP3   OH215674   1.627   2.882   0.640
 5244TIP3    H115675   1.578   2.895   0.721
 5244TIP3    H215676   1.563   2.844   0.580
 5245TIP3   OH215677   0.441   6.199   5.199
 5245TIP3    H115678   0.360   6.151   5.181
 5245TIP3    H215679   0.510   6.134   5.190
 5246TIP3   OH215680   5.925   4.080   2.009
 5246TIP3    H115681   6.011   4.105   1.978
 5246TIP3    H215682   5.932   4.082   2.104
 5247TIP3   OH215683   3.705   3.596   5.201
 5247TIP3    H115684   3.695   3.691   5.191
 5247TIP3    H215685   3.650   3.574   5.276
 5248TIP3   OH215686   3.514   4.323   3.078
 5248TIP3    H115687   3.572   4.252   3.050
 5248TIP3    H215688   3.520   4.323   3.174
 5249TIP3   OH215689   1.723   4.037   4.537
 5249TIP3    H115690   1.666   4.016   4.611
 5249TIP3    H215691   1.728   4.132   4.536
 5250TIP3   OH215692   2.630   0.190   5.644
 5250TIP3    H115693   2.614   0.122   5.709
 5250TIP3    H215694   2.543   0.226   5.625
 5251TIP3   OH215695   8.240   5.515   2.890
 5251TIP3    H115696   8.185   5.437   2.897
 5251TIP3    H215697   8.322   5.491   2.933
 5252TIP3   OH215698   5.374   1.759   0.548
 5252TIP3    H115699   5.333   1.787   0.467
 5252TIP3    H215700   5.428   1.684   0.523
 5253TIP3   OH215701   6.813   7.152   5.092
 5253TIP3    H115702   6.818   7.090   5.165
 5253TIP3    H215703   6.726   7.192   5.101
 5254TIP3   OH215704   0.774   1.283   0.020
 5254TIP3    H115705   0.768   1.251   0.110
 5254TIP3    H215706   0.848   1.236  -0.018
 5255TIP3   OH215707   7.399   3.575   3.785
 5255TIP3    H115708   7.407   3.488   3.747
 5255TIP3    H215709   7.418   3.635   3.713
 5256TIP3   OH215710   5.313   7.762   5.998
 5256TIP3    H115711   5.230   7.766   6.046
 5256TIP3    H215712   5.315   7.674   5.960
 5257TIP3   OH215713   2.032   4.283   0.524
 5257TIP3    H115714   1.961   4.284   0.588
 5257TIP3    H215715   2.015   4.357   0.467
 5258TIP3   OH215716   2.060   6.416   6.643
 5258TIP3    H115717   2.062   6.490   6.705
 5258TIP3    H215718   1.979   6.370   6.665
 5259TIP3   OH215719   3.803   7.325   2.201
 5259TIP3    H115720   3.891   7.354   2.178
 5259TIP3    H215721   3.788   7.360   2.289
 5260TIP3   OH215722   3.645   1.944   3.768
 5260TIP3    H115723   3.678   1.950   3.678
 5260TIP3    H215724   3.584   2.018   3.776
 5261TIP3   OH215725   5.187   4.447   4.518
 5261TIP3    H115726   5.208   4.540   4.509
 5261TIP3    H215727   5.121   4.430   4.451
 5262TIP3   OH215728   0.671   3.358   0.249
 5262TIP3    H115729   0.603   3.290   0.252
 5262TIP3    H215730   0.658   3.402   0.165
 5263TIP3   OH215731   6.267   0.694   4.256
 5263TIP3    H115732   6.331   0.748   4.302
 5263TIP3    H215733   6.314   0.612   4.238
 5264TIP3   OH215734   3.197   5.926   6.303
 5264TIP3    H115735   3.120   5.961   6.260
 5264TIP3    H215736   3.267   5.932   6.237
 5265TIP3   OH215737   6.122   3.796   4.102
 5265TIP3    H115738   6.112   3.701   4.111
 5265TIP3    H215739   6.174   3.808   4.023
 5266TIP3   OH215740   7.702   6.754   2.851
 5266TIP3    H115741   7.698   6.841   2.810
 5266TIP3    H215742   7.770   6.762   2.918
 5267TIP3   OH215743   7.307   6.925   5.956
 5267TIP3    H115744   7.318   6.838   5.994
 5267TIP3    H215745   7.377   6.933   5.892
 5268TIP3   OH215746   1.164   2.677   2.659
 5268TIP3    H115747   1.100   2.624   2.708
 5268TIP3    H215748   1.130   2.767   2.665
 5269TIP3   OH215749   3.837   3.606   2.497
 5269TIP3    H115750   3.853   3.637   2.408
 5269TIP3    H215751   3.811   3.685   2.545
 5270TIP3   OH215752   2.502   2.907   1.863
 5270TIP3    H115753   2.484   2.997   1.835
 5270TIP3    H215754   2.593   2.909   1.893
 5271TIP3   OH215755   7.826   7.720   1.419
 5271TIP3    H115756   7.843   7.813   1.406
 5271TIP3    H215757   7.913   7.680   1.421
 5272TIP3   OH215758   7.537   2.921   5.335
 5272TIP3    H115759   7.506   3.010   5.318
 5272TIP3    H215760   7.592   2.929   5.412
 5273TIP3   OH215761   5.332   2.763   1.197
 5273TIP3    H115762   5.345   2.699   1.268
 5273TIP3    H215763   5.296   2.840   1.240
 5274TIP3   OH215764   3.862   5.611   3.544
 5274TIP3    H115765   3.782   5.656   3.572
 5274TIP3    H215766   3.871   5.635   3.452
 5275TIP3   OH215767   6.816   4.026   5.929
 5275TIP3    H115768   6.785   4.011   6.018
 5275TIP3    H215769   6.804   4.120   5.916
 5276TIP3   OH215770   7.949   2.635   6.547
 5276TIP3    H115771   8.039   2.655   6.522
 5276TIP3    H215772   7.920   2.713   6.595
 5277TIP3   OH215773   8.019   7.288   0.321
 5277TIP3    H115774   8.100   7.318   0.279
 5277TIP3    H215775   7.952   7.301   0.254
 5278TIP3   OH215776   7.584   5.820   5.858
 5278TIP3    H115777   7.520   5.827   5.929
 5278TIP3    H215778   7.541   5.862   5.783
 5279TIP3   OH215779   7.847   3.590   2.496
 5279TIP3    H115780   7.848   3.628   2.408
 5279TIP3    H215781   7.855   3.664   2.555
 5280TIP3   OH215782   6.478   3.795   4.633
 5280TIP3    H115783   6.536   3.751   4.571
 5280TIP3    H215784   6.526   3.795   4.715
 5281TIP3   OH215785   1.082   7.653   2.986
 5281TIP3    H115786   1.041   7.650   3.072
 5281TIP3    H215787   1.138   7.576   2.983
 5282TIP3   OH215788   5.251   1.242   5.759
 5282TIP3    H115789   5.313   1.308   5.790
 5282TIP3    H215790   5.243   1.180   5.831
 5283TIP3   OH215791   3.861   6.149   1.069
 5283TIP3    H115792   3.800   6.215   1.037
 5283TIP3    H215793   3.926   6.198   1.119
 5284TIP3   OH215794   2.925   2.268   1.773
 5284TIP3    H115795   3.002   2.279   1.828
 5284TIP3    H215796   2.851   2.287   1.831
 5285TIP3   OH215797   3.451   1.696   6.033
 5285TIP3    H115798   3.517   1.631   6.010
 5285TIP3    H215799   3.373   1.669   5.985
 5286TIP3   OH215800   1.646   5.788   1.684
 5286TIP3    H115801   1.734   5.823   1.694
 5286TIP3    H215802   1.588   5.854   1.721
 5287TIP3   OH215803   8.023   0.717   4.041
 5287TIP3    H115804   8.014   0.623   4.024
 5287TIP3    H215805   7.948   0.756   3.996
 5288TIP3   OH215806   4.441   5.023   3.812
 5288TIP3    H115807   4.449   4.992   3.722
 5288TIP3    H215808   4.373   5.090   3.808
 5289TIP3   OH215809   0.906   6.761   2.853
 5289TIP3    H115810   0.963   6.794   2.783
 5289TIP3    H215811   0.913   6.666   2.847
 5290TIP3   OH215812   1.996   0.842   3.023
 5290TIP3    H115813   1.924   0.832   3.085
 5290TIP3    H215814   2.075   0.824   3.075
 5291TIP3   OH215815   6.860   0.164   6.209
 5291TIP3    H115816   6.864   0.148   6.303
 5291TIP3    H215817   6.923   0.104   6.171
 5292TIP3   OH215818   3.660   4.910   5.744
 5292TIP3    H115819   3.637   4.999   5.771
 5292TIP3    H215820   3.657   4.860   5.825
 5293TIP3   OH215821   0.469   7.498   5.698
 5293TIP3    H115822   0.530   7.496   5.771
 5293TIP3    H215823   0.520   7.467   5.623
 5294TIP3   OH215824   2.970   1.944   1.191
 5294TIP3    H115825   3.039   1.980   1.135
 5294TIP3    H215826   2.950   1.859   1.152
 5295TIP3   OH215827   1.373   2.172   3.886
 5295TIP3    H115828   1.411   2.199   3.803
 5295TIP3    H215829   1.433   2.107   3.921
 5296TIP3   OH215830   2.472   2.698   2.137
 5296TIP3    H115831   2.508   2.762   2.198
 5296TIP3    H215832   2.547   2.645   2.111
 5297TIP3   OH215833   6.164   0.732   1.966
 5297TIP3    H115834   6.110   0.693   2.035
 5297TIP3    H215835   6.175   0.662   1.902
 5298TIP3   OH215836   4.468   4.249   4.824
 5298TIP3    H115837   4.481   4.157   4.849
 5298TIP3    H215838   4.552   4.291   4.841
 5299TIP3   OH215839   0.129   7.694   1.508
 5299TIP3    H115840   0.109   7.688   1.415
 5299TIP3    H215841   0.187   7.770   1.515
 5300TIP3   OH215842   7.020   4.167   2.374
 5300TIP3    H115843   7.019   4.085   2.324
 5300TIP3    H215844   7.022   4.236   2.308
 5301TIP3   OH215845   0.078   5.887   5.386
 5301TIP3    H115846   0.136   5.862   5.314
 5301TIP3    H215847   0.003   5.827   5.378
 5302TIP3   OH215848   2.654   6.313   6.122
 5302TIP3    H115849   2.695   6.339   6.040
 5302TIP3    H215850   2.724   6.275   6.174
 5303TIP3   OH215851   8.112   0.933   2.617
 5303TIP3    H115852   8.026   0.941   2.658
 5303TIP3    H215853   8.114   1.003   2.551
 5304TIP3   OH215854   2.123   5.784   4.495
 5304TIP3    H115855   2.106   5.831   4.413
 5304TIP3    H215856   2.084   5.839   4.563
 5305TIP3   OH215857   3.344   1.311   2.912
 5305TIP3    H115858   3.323   1.220   2.888
 5305TIP3    H215859   3.439   1.315   2.909
 5306TIP3   OH215860   7.603   5.345   1.532
 5306TIP3    H115861   7.616   5.259   1.572
 5306TIP3    H215862   7.655   5.404   1.587
 5307TIP3   OH215863   4.538   2.716   2.820
 5307TIP3    H115864   4.453   2.699   2.779
 5307TIP3    H215865   4.588   2.761   2.752
 5308TIP3   OH215866   0.960   4.517   1.171
 5308TIP3    H115867   0.866   4.528   1.184
 5308TIP3    H215868   0.980   4.431   1.209
 5309TIP3   OH215869   2.188   7.002   6.089
 5309TIP3    H115870   2.143   6.964   6.164
 5309TIP3    H215871   2.203   7.093   6.114
 5310TIP3   OH215872   0.098   0.618   3.553
 5310TIP3    H115873   0.046   0.564   3.613
 5310TIP3    H215874   0.033   0.667   3.502
 5311TIP3   OH215875   2.922   6.590   1.620
 5311TIP3    H115876   2.846   6.646   1.633
 5311TIP3    H215877   2.948   6.605   1.529
 5312TIP3   OH215878   4.215   5.461   3.600
 5312TIP3    H115879   4.213   5.542   3.549
 5312TIP3    H215880   4.201   5.490   3.691
 5313TIP3   OH215881   1.669   2.616   0.849
 5313TIP3    H115882   1.686   2.590   0.758
 5313TIP3    H215883   1.754   2.609   0.893
 5314TIP3   OH215884   3.078   1.621   0.298
 5314TIP3    H115885   3.107   1.639   0.209
 5314TIP3    H215886   3.158   1.605   0.347
 5315TIP3   OH215887   2.692   2.812   1.590
 5315TIP3    H115888   2.600   2.838   1.597
 5315TIP3    H215889   2.716   2.836   1.500
 5316TIP3   OH215890   4.147   4.259   0.255
 5316TIP3    H115891   4.223   4.231   0.204
 5316TIP3    H215892   4.084   4.188   0.245
 5317TIP3   OH215893   3.057   1.486   3.179
 5317TIP3    H115894   3.106   1.408   3.154
 5317TIP3    H215895   3.064   1.544   3.104
 5318TIP3   OH215896   2.304   7.760   5.729
 5318TIP3    H115897   2.354   7.773   5.648
 5318TIP3    H215898   2.265   7.673   5.720
 5319TIP3   OH215899   1.755   0.700   3.998
 5319TIP3    H115900   1.687   0.766   3.983
 5319TIP3    H215901   1.723   0.621   3.955
 5320TIP3   OH215902   1.305   2.748   3.423
 5320TIP3    H115903   1.267   2.809   3.361
 5320TIP3    H215904   1.307   2.664   3.377
 5321TIP3   OH215905   7.948   0.391   4.683
 5321TIP3    H115906   7.891   0.320   4.711
 5321TIP3    H215907   8.036   0.362   4.708
 5322TIP3   OH215908   7.150   1.481   3.697
 5322TIP3    H115909   7.097   1.537   3.641
 5322TIP3    H215910   7.184   1.413   3.639
 5323TIP3   OH215911   3.036   6.697   2.880
 5323TIP3    H115912   3.018   6.758   2.951
 5323TIP3    H215913   2.971   6.627   2.892
 5324TIP3   OH215914   2.562   1.467   1.450
 5324TIP3    H115915   2.599   1.536   1.504
 5324TIP3    H215916   2.469   1.489   1.443
 5325TIP3   OH215917   2.182   3.119   3.883
 5325TIP3    H115918   2.117   3.095   3.949
 5325TIP3    H215919   2.143   3.192   3.836
 5326TIP3   OH215920   0.014   1.334   0.203
 5326TIP3    H115921  -0.016   1.249   0.234
 5326TIP3    H215922   0.102   1.318   0.169
 5327TIP3   OH215923   2.194   5.729   5.482
 5327TIP3    H115924   2.148   5.673   5.419
 5327TIP3    H215925   2.180   5.686   5.567
 5328TIP3   OH215926   7.741   6.067   0.460
 5328TIP3    H115927   7.748   6.132   0.389
 5328TIP3    H215928   7.647   6.058   0.475
 5329TIP3   OH215929   7.012   1.178   3.333
 5329TIP3    H115930   6.955   1.164   3.408
 5329TIP3    H215931   6.960   1.150   3.258
 5330TIP3   OH215932   5.707   6.100   2.473
 5330TIP3    H115933   5.728   6.145   2.391
 5330TIP3    H215934   5.791   6.066   2.504
 5331TIP3   OH215935   0.678   7.152   5.068
 5331TIP3    H115936   0.670   7.057   5.071
 5331TIP3    H215937   0.667   7.174   4.975
 5332TIP3   OH215938   3.798   0.187   5.511
 5332TIP3    H115939   3.851   0.151   5.440
 5332TIP3    H215940   3.839   0.271   5.531
 5333TIP3   OH215941   4.863   6.911   6.026
 5333TIP3    H115942   4.928   6.913   6.096
 5333TIP3    H215943   4.780   6.933   6.070
 5334TIP3   OH215944   7.007   3.933   6.565
 5334TIP3    H115945   7.095   3.945   6.529
 5334TIP3    H215946   6.949   3.928   6.489
 5335TIP3   OH215947   6.605   7.102   3.624
 5335TIP3    H115948   6.511   7.100   3.642
 5335TIP3    H215949   6.643   7.043   3.690
 5336TIP3   OH215950   7.705   1.849   0.980
 5336TIP3    H115951   7.796   1.842   1.008
 5336TIP3    H215952   7.708   1.828   0.886
 5337TIP3   OH215953   6.418   0.096   0.823
 5337TIP3    H115954   6.403   0.123   0.732
 5337TIP3    H215955   6.386   0.170   0.875
 5338TIP3   OH215956   2.583   5.359   1.803
 5338TIP3    H115957   2.565   5.273   1.766
 5338TIP3    H215958   2.607   5.413   1.728
 5339TIP3   OH215959   0.264   3.787   5.048
 5339TIP3    H115960   0.233   3.828   5.129
 5339TIP3    H215961   0.296   3.701   5.076
 5340TIP3   OH215962   5.235   1.071   1.817
 5340TIP3    H115963   5.186   1.116   1.749
 5340TIP3    H215964   5.321   1.055   1.778
 5341TIP3   OH215965   3.424   2.310   4.739
 5341TIP3    H115966   3.464   2.384   4.693
 5341TIP3    H215967   3.371   2.267   4.673
 5342TIP3   OH215968   1.405   5.049   4.651
 5342TIP3    H115969   1.495   5.028   4.628
 5342TIP3    H215970   1.352   4.987   4.601
 5343TIP3   OH215971   1.036   5.371   0.378
 5343TIP3    H115972   0.991   5.320   0.445
 5343TIP3    H215973   1.128   5.370   0.405
 5344TIP3   OH215974   2.666   5.812   0.927
 5344TIP3    H115975   2.684   5.850   1.012
 5344TIP3    H215976   2.747   5.824   0.877
 5345TIP3   OH215977   1.626   5.932   5.754
 5345TIP3    H115978   1.699   5.992   5.770
 5345TIP3    H215979   1.617   5.930   5.659
 5346TIP3   OH215980   6.622   1.055   5.979
 5346TIP3    H115981   6.611   0.974   6.028
 5346TIP3    H215982   6.578   1.039   5.895
 5347TIP3   OH215983   2.843   6.455   1.937
 5347TIP3    H115984   2.840   6.548   1.914
 5347TIP3    H215985   2.879   6.413   1.859
 5348TIP3   OH215986   6.152   3.644   6.394
 5348TIP3    H115987   6.115   3.695   6.323
 5348TIP3    H215988   6.239   3.682   6.408
 5349TIP3   OH215989   5.739   1.684   4.767
 5349TIP3    H115990   5.791   1.752   4.725
 5349TIP3    H215991   5.754   1.606   4.713
 5350TIP3   OH215992   2.543   6.840   0.776
 5350TIP3    H115993   2.486   6.779   0.824
 5350TIP3    H215994   2.483   6.907   0.742
 5351TIP3   OH215995   7.468   3.861   3.706
 5351TIP3    H115996   7.386   3.912   3.702
 5351TIP3    H215997   7.474   3.835   3.798
 5352TIP3   OH215998   3.011   0.362   2.889
 5352TIP3    H115999   2.937   0.378   2.949
 5352TIP3    H216000   2.971   0.317   2.815
 5353TIP3   OH216001   8.101   4.785   0.690
 5353TIP3    H116002   8.054   4.788   0.606
 5353TIP3    H216003   8.193   4.784   0.665
 5354TIP3   OH216004   3.057   4.909   0.428
 5354TIP3    H116005   2.977   4.864   0.403
 5354TIP3    H216006   3.029   4.972   0.495
 5355TIP3   OH216007   0.962   6.109   0.485
 5355TIP3    H116008   0.868   6.119   0.499
 5355TIP3    H216009   0.972   6.018   0.456
 5356TIP3   OH216010   1.228   6.197   5.899
 5356TIP3    H116011   1.233   6.115   5.948
 5356TIP3    H216012   1.306   6.246   5.925
 5357TIP3   OH216013   1.511   4.641   1.374
 5357TIP3    H116014   1.538   4.633   1.283
 5357TIP3    H216015   1.435   4.583   1.382
 5358TIP3   OH216016   3.514   5.911   2.789
 5358TIP3    H116017   3.451   5.881   2.855
 5358TIP3    H216018   3.597   5.871   2.815
 5359TIP3   OH216019   8.119   4.863   3.812
 5359TIP3    H116020   8.127   4.785   3.757
 5359TIP3    H216021   8.027   4.863   3.840
 5360TIP3   OH216022   0.651   7.540   2.835
 5360TIP3    H116023   0.582   7.604   2.817
 5360TIP3    H216024   0.683   7.564   2.922
 5361TIP3   OH216025   6.920   6.226   6.550
 5361TIP3    H116026   6.882   6.139   6.560
 5361TIP3    H216027   6.957   6.225   6.461
 5362TIP3   OH216028   4.061   0.369   0.767
 5362TIP3    H116029   4.037   0.451   0.810
 5362TIP3    H216030   4.131   0.393   0.707
 5363TIP3   OH216031   0.775   7.308   5.423
 5363TIP3    H116032   0.836   7.382   5.427
 5363TIP3    H216033   0.712   7.325   5.493
 5364TIP3   OH216034   5.389   7.605   2.399
 5364TIP3    H116035   5.416   7.685   2.444
 5364TIP3    H216036   5.468   7.551   2.397
 5365TIP3   OH216037   6.678   7.428   4.426
 5365TIP3    H116038   6.621   7.383   4.363
 5365TIP3    H216039   6.696   7.361   4.493
 5366TIP3   OH216040   0.803   0.627   1.384
 5366TIP3    H116041   0.716   0.664   1.400
 5366TIP3    H216042   0.858   0.703   1.364
 5367TIP3   OH216043   6.116   0.650   5.150
 5367TIP3    H116044   6.033   0.632   5.193
 5367TIP3    H216045   6.111   0.603   5.067
 5368TIP3   OH216046   1.324   0.598   2.061
 5368TIP3    H116047   1.348   0.582   2.152
 5368TIP3    H216048   1.279   0.518   2.034
 5369TIP3   OH216049   7.622   5.996   6.188
 5369TIP3    H116050   7.553   6.019   6.126
 5369TIP3    H216051   7.691   6.061   6.172
 5370TIP3   OH216052   6.128   5.814   1.434
 5370TIP3    H116053   6.151   5.774   1.517
 5370TIP3    H216054   6.149   5.748   1.368
 5371TIP3   OH216055   4.516   3.339   5.182
 5371TIP3    H116056   4.590   3.300   5.135
 5371TIP3    H216057   4.439   3.292   5.149
 5372TIP3   OH216058   2.598   2.358   5.808
 5372TIP3    H116059   2.504   2.345   5.815
 5372TIP3    H216060   2.631   2.280   5.764
 5373TIP3   OH216061   6.614   7.292   2.866
 5373TIP3    H116062   6.633   7.207   2.825
 5373TIP3    H216063   6.563   7.269   2.944
 5374TIP3   OH216064   7.592   0.969   0.920
 5374TIP3    H116065   7.515   0.930   0.878
 5374TIP3    H216066   7.617   0.906   0.988
 5375TIP3   OH216067   7.750   2.835   4.440
 5375TIP3    H116068   7.717   2.750   4.412
 5375TIP3    H216069   7.696   2.858   4.516
 5376TIP3   OH216070   0.787   4.177   6.697
 5376TIP3    H116071   0.764   4.096   6.650
 5376TIP3    H216072   0.882   4.182   6.690
 5377TIP3   OH216073   1.892   0.791   3.492
 5377TIP3    H116074   1.964   0.771   3.552
 5377TIP3    H216075   1.838   0.712   3.492
 5378TIP3   OH216076   0.801   1.083   2.324
 5378TIP3    H116077   0.889   1.120   2.317
 5378TIP3    H216078   0.765   1.090   2.236
 5379TIP3   OH216079   1.850   7.399   6.046
 5379TIP3    H116080   1.849   7.487   6.084
 5379TIP3    H216081   1.764   7.390   6.005
 5380TIP3   OH216082   7.253   0.222   0.180
 5380TIP3    H116083   7.337   0.180   0.164
 5380TIP3    H216084   7.198   0.194   0.106
 5381TIP3   OH216085   8.125   0.624   1.902
 5381TIP3    H116086   8.104   0.541   1.858
 5381TIP3    H216087   8.057   0.684   1.874
 5382TIP3   OH216088   2.778   1.884   2.545
 5382TIP3    H116089   2.785   1.952   2.479
 5382TIP3    H216090   2.778   1.931   2.629
 5383TIP3   OH216091   6.603   2.202   3.659
 5383TIP3    H116092   6.580   2.198   3.567
 5383TIP3    H216093   6.652   2.284   3.668
 5384TIP3   OH216094   0.607   3.049   3.858
 5384TIP3    H116095   0.529   3.048   3.803
 5384TIP3    H216096   0.678   3.022   3.801
 5385TIP3   OH216097   6.831   1.275   2.933
 5385TIP3    H116098   6.879   1.356   2.913
 5385TIP3    H216099   6.785   1.253   2.852
 5386TIP3   OH216100   1.669   5.991   5.454
 5386TIP3    H116101   1.722   6.070   5.447
 5386TIP3    H216102   1.632   5.979   5.366
 5387TIP3   OH216103   2.734   6.644   3.521
 5387TIP3    H116104   2.789   6.715   3.488
 5387TIP3    H216105   2.651   6.654   3.474
 5388TIP3   OH216106   4.925   0.279   1.351
 5388TIP3    H116107   4.830   0.282   1.362
 5388TIP3    H216108   4.942   0.341   1.280
 5389TIP3   OH216109   6.909   0.655   3.023
 5389TIP3    H116110   6.965   0.729   3.044
 5389TIP3    H216111   6.836   0.661   3.085
 5390TIP3   OH216112   2.422   5.488   0.794
 5390TIP3    H116113   2.412   5.397   0.823
 5390TIP3    H216114   2.486   5.483   0.723
 5391TIP3   OH216115   5.914   3.356   0.126
 5391TIP3    H116116   5.996   3.383   0.167
 5391TIP3    H216117   5.915   3.398   0.040
 5392TIP3   OH216118   3.368   3.322   0.332
 5392TIP3    H116119   3.444   3.376   0.355
 5392TIP3    H216120   3.371   3.316   0.237
 5393TIP3   OH216121   2.729   0.850   3.842
 5393TIP3    H116122   2.741   0.896   3.759
 5393TIP3    H216123   2.810   0.865   3.890
 5394TIP3   OH216124   8.326   3.881   2.187
 5394TIP3    H116125   8.265   3.886   2.261
 5394TIP3    H216126   8.368   3.796   2.196
 5395TIP3   OH216127   1.091   4.757   4.870
 5395TIP3    H116128   1.083   4.821   4.941
 5395TIP3    H216129   1.129   4.680   4.912
 5396TIP3   OH216130   0.194   0.119   3.750
 5396TIP3    H116131   0.191   0.075   3.835
 5396TIP3    H216132   0.188   0.048   3.686
 5397TIP3   OH216133   1.296   2.271   2.592
 5397TIP3    H116134   1.208   2.299   2.618
 5397TIP3    H216135   1.302   2.181   2.624
 5398TIP3   OH216136   0.938   3.569   5.819
 5398TIP3    H116137   1.005   3.613   5.767
 5398TIP3    H216138   0.923   3.486   5.774
 5399TIP3   OH216139   8.001   1.301   0.774
 5399TIP3    H116140   7.944   1.225   0.763
 5399TIP3    H216141   7.984   1.332   0.863
 5400TIP3   OH216142   3.753   6.776   5.298
 5400TIP3    H116143   3.774   6.854   5.247
 5400TIP3    H216144   3.664   6.791   5.329
 5401TIP3   OH216145   4.663   1.779   4.138
 5401TIP3    H116146   4.703   1.839   4.201
 5401TIP3    H216147   4.572   1.774   4.164
 5402TIP3   OH216148   2.092   3.150   2.885
 5402TIP3    H116149   2.141   3.169   2.965
 5402TIP3    H216150   2.114   3.059   2.865
 5403TIP3   OH216151   0.458   7.248   4.285
 5403TIP3    H116152   0.521   7.254   4.213
 5403TIP3    H216153   0.510   7.224   4.361
 5404TIP3   OH216154   7.320   1.687   4.050
 5404TIP3    H116155   7.270   1.716   3.974
 5404TIP3    H216156   7.255   1.676   4.119
 5405TIP3   OH216157   1.455   1.411   0.851
 5405TIP3    H116158   1.523   1.391   0.915
 5405TIP3    H216159   1.466   1.504   0.832
 5406TIP3   OH216160   3.143   7.729   1.263
 5406TIP3    H116161   3.165   7.644   1.300
 5406TIP3    H216162   3.074   7.711   1.200
 5407TIP3   OH216163   3.316   6.509   0.911
 5407TIP3    H116164   3.331   6.518   1.005
 5407TIP3    H216165   3.403   6.510   0.872
 5408TIP3   OH216166   3.340   5.376   5.306
 5408TIP3    H116167   3.420   5.344   5.349
 5408TIP3    H216168   3.270   5.355   5.368
 5409TIP3   OH216169   6.086   1.761   4.549
 5409TIP3    H116170   6.157   1.705   4.518
 5409TIP3    H216171   6.122   1.849   4.548
 5410TIP3   OH216172   6.690   1.840   6.606
 5410TIP3    H116173   6.738   1.842   6.689
 5410TIP3    H216174   6.601   1.867   6.629
 5411TIP3   OH216175   2.641   4.302   1.772
 5411TIP3    H116176   2.555   4.305   1.729
 5411TIP3    H216177   2.624   4.258   1.855
 5412TIP3   OH216178   7.912   4.239   3.194
 5412TIP3    H116179   7.936   4.325   3.159
 5412TIP3    H216180   7.926   4.248   3.289
 5413TIP3   OH216181   7.526   4.446   2.327
 5413TIP3    H116182   7.505   4.504   2.254
 5413TIP3    H216183   7.482   4.364   2.306
 5414TIP3   OH216184   1.635   5.946   6.761
 5414TIP3    H116185   1.549   5.904   6.770
 5414TIP3    H216186   1.625   6.006   6.688
 5415TIP3   OH216187   6.357   5.600   2.028
 5415TIP3    H116188   6.325   5.551   2.104
 5415TIP3    H216189   6.286   5.595   1.965
 5416TIP3   OH216190   3.233   5.370   5.004
 5416TIP3    H116191   3.260   5.453   5.042
 5416TIP3    H216192   3.178   5.329   5.071
 5417TIP3   OH216193   0.204   0.445   3.175
 5417TIP3    H116194   0.253   0.489   3.245
 5417TIP3    H216195   0.125   0.498   3.164
 5418TIP3   OH216196   5.349   0.719   3.403
 5418TIP3    H116197   5.256   0.739   3.391
 5418TIP3    H216198   5.355   0.625   3.383
 5419TIP3   OH216199   1.468   4.290   2.942
 5419TIP3    H116200   1.553   4.328   2.966
 5419TIP3    H216201   1.489   4.218   2.882
 5420TIP3   OH216202   2.740   1.437   2.268
 5420TIP3    H116203   2.691   1.364   2.307
 5420TIP3    H216204   2.745   1.502   2.339
 5421TIP3   OH216205   7.451   3.884   2.450
 5421TIP3    H116206   7.504   3.807   2.474
 5421TIP3    H216207   7.412   3.860   2.366
 5422TIP3   OH216208   6.215   4.634   4.955
 5422TIP3    H116209   6.122   4.611   4.947
 5422TIP3    H216210   6.241   4.596   5.039
 5423TIP3   OH216211   5.554   5.344   4.507
 5423TIP3    H116212   5.588   5.390   4.430
 5423TIP3    H216213   5.631   5.302   4.545
 5424TIP3   OH216214   3.046   2.931   6.551
 5424TIP3    H116215   3.087   2.874   6.615
 5424TIP3    H216216   2.952   2.911   6.558
 5425TIP3   OH216217   2.218   6.016   4.773
 5425TIP3    H116218   2.193   5.993   4.862
 5425TIP3    H216219   2.136   6.012   4.723
 5426TIP3   OH216220   0.192   4.683   5.423
 5426TIP3    H116221   0.122   4.716   5.367
 5426TIP3    H216222   0.150   4.672   5.509
 5427TIP3   OH216223   7.410   0.294   2.237
 5427TIP3    H116224   7.464   0.373   2.242
 5427TIP3    H216225   7.331   0.323   2.191
 5428TIP3   OH216226   3.566   0.818   1.914
 5428TIP3    H116227   3.532   0.861   1.836
 5428TIP3    H216228   3.548   0.725   1.900
 5429TIP3   OH216229   3.137   7.163   3.499
 5429TIP3    H116230   3.046   7.187   3.485
 5429TIP3    H216231   3.187   7.226   3.447
 5430TIP3   OH216232   4.386   7.525   6.508
 5430TIP3    H116233   4.318   7.458   6.516
 5430TIP3    H216234   4.457   7.493   6.564
 5431TIP3   OH216235   3.375   3.896   3.113
 5431TIP3    H116236   3.308   3.942   3.162
 5431TIP3    H216237   3.412   3.833   3.174
 5432TIP3   OH216238   7.839   6.699   4.723
 5432TIP3    H116239   7.788   6.664   4.796
 5432TIP3    H216240   7.914   6.743   4.765
 5433TIP3   OH216241   0.759   2.972   3.122
 5433TIP3    H116242   0.841   3.019   3.106
 5433TIP3    H216243   0.707   3.034   3.174
 5434TIP3   OH216244   2.726   7.600   2.316
 5434TIP3    H116245   2.727   7.640   2.229
 5434TIP3    H216246   2.648   7.638   2.358
 5435TIP3   OH216247   1.580   3.379   4.214
 5435TIP3    H116248   1.660   3.429   4.232
 5435TIP3    H216249   1.512   3.425   4.263
 5436TIP3   OH216250   1.971   0.798   6.227
 5436TIP3    H116251   1.997   0.711   6.259
 5436TIP3    H216252   2.017   0.808   6.144
 5437TIP3   OH216253   6.564   2.783   4.947
 5437TIP3    H116254   6.583   2.787   4.854
 5437TIP3    H216255   6.648   2.801   4.990
 5438TIP3   OH216256   3.033   3.298   2.467
 5438TIP3    H116257   3.049   3.247   2.387
 5438TIP3    H216258   3.065   3.386   2.446
 5439TIP3   OH216259   6.103   3.812   1.628
 5439TIP3    H116260   6.047   3.881   1.664
 5439TIP3    H216261   6.185   3.856   1.608
 5440TIP3   OH216262   3.416   0.813   6.654
 5440TIP3    H116263   3.391   0.836   6.743
 5440TIP3    H216264   3.504   0.774   6.662
 5441TIP3   OH216265   2.407   2.411   1.875
 5441TIP3    H116266   2.447   2.494   1.847
 5441TIP3    H216267   2.435   2.348   1.809
 5442TIP3   OH216268   5.773   3.230   3.601
 5442TIP3    H116269   5.814   3.237   3.516
 5442TIP3    H216270   5.740   3.318   3.619
 5443TIP3   OH216271   1.470   2.256   3.644
 5443TIP3    H116272   1.409   2.281   3.575
 5443TIP3    H216273   1.551   2.235   3.598
 5444TIP3   OH216274   2.585   6.023   5.548
 5444TIP3    H116275   2.649   5.967   5.503
 5444TIP3    H216276   2.622   6.036   5.635
 5445TIP3   OH216277   2.067   4.091   4.736
 5445TIP3    H116278   2.138   4.133   4.784
 5445TIP3    H216279   2.071   4.128   4.648
 5446TIP3   OH216280   1.205   3.579   3.721
 5446TIP3    H116281   1.212   3.650   3.785
 5446TIP3    H216282   1.294   3.546   3.712
 5447TIP3   OH216283   3.921   2.066   2.730
 5447TIP3    H116284   3.836   2.090   2.692
 5447TIP3    H216285   3.971   2.147   2.731
 5448TIP3   OH216286   5.153   2.404   3.990
 5448TIP3    H116287   5.172   2.324   3.941
 5448TIP3    H216288   5.233   2.457   3.981
 5449TIP3   OH216289   7.527   6.438   4.383
 5449TIP3    H116290   7.543   6.531   4.398
 5449TIP3    H216291   7.504   6.404   4.469
 5450TIP3   OH216292   2.238   6.593   1.883
 5450TIP3    H116293   2.284   6.597   1.966
 5450TIP3    H216294   2.286   6.527   1.832
 5451TIP3   OH216295   6.835   7.827   4.456
 5451TIP3    H116296   6.868   7.784   4.377
 5451TIP3    H216297   6.768   7.769   4.489
 5452TIP3   OH216298   7.178   2.831   1.580
 5452TIP3    H116299   7.214   2.833   1.669
 5452TIP3    H216300   7.213   2.909   1.538
 5453TIP3   OH216301   6.908   1.753   1.379
 5453TIP3    H116302   6.963   1.780   1.306
 5453TIP3    H216303   6.820   1.782   1.355
 5454TIP3   OH216304   3.250   4.421   5.769
 5454TIP3    H116305   3.219   4.331   5.759
 5454TIP3    H216306   3.205   4.470   5.701
 5455TIP3   OH216307   5.214   3.258   4.937
 5455TIP3    H116308   5.244   3.233   4.849
 5455TIP3    H216309   5.286   3.310   4.973
 5456TIP3   OH216310   7.318   2.475   5.556
 5456TIP3    H116311   7.392   2.502   5.610
 5456TIP3    H216312   7.322   2.531   5.479
 5457TIP3   OH216313   4.165   1.584   5.928
 5457TIP3    H116314   4.092   1.646   5.923
 5457TIP3    H216315   4.205   1.587   5.841
 5458TIP3   OH216316   0.218   0.549   2.555
 5458TIP3    H116317   0.221   0.643   2.536
 5458TIP3    H216318   0.200   0.543   2.649
 5459TIP3   OH216319   7.447   5.626   2.016
 5459TIP3    H116320   7.530   5.629   1.968
 5459TIP3    H216321   7.472   5.641   2.107
 5460TIP3   OH216322   5.460   5.309   5.427
 5460TIP3    H116323   5.552   5.330   5.439
 5460TIP3    H216324   5.459   5.222   5.388
 5461TIP3   OH216325   1.091   3.054   3.673
 5461TIP3    H116326   1.150   3.083   3.743
 5461TIP3    H216327   1.123   2.967   3.649
 5462TIP3   OH216328   7.859   4.440   0.257
 5462TIP3    H116329   7.842   4.392   0.176
 5462TIP3    H216330   7.783   4.498   0.266
 5463TIP3   OH216331   7.053   6.451   5.104
 5463TIP3    H116332   7.097   6.406   5.176
 5463TIP3    H216333   6.972   6.484   5.143
 5464TIP3   OH216334   7.621   0.128   4.428
 5464TIP3    H116335   7.578   0.169   4.503
 5464TIP3    H216336   7.614   0.034   4.444
 5465TIP3   OH216337   4.921   6.473   3.694
 5465TIP3    H116338   4.926   6.565   3.668
 5465TIP3    H216339   4.970   6.426   3.627
 5466TIP3   OH216340   2.675   6.721   5.452
 5466TIP3    H116341   2.596   6.710   5.400
 5466TIP3    H216342   2.643   6.737   5.541
 5467TIP3   OH216343   7.136   5.491   3.761
 5467TIP3    H116344   7.140   5.400   3.731
 5467TIP3    H216345   7.073   5.533   3.703
 5468TIP3   OH216346   0.598   4.891   1.856
 5468TIP3    H116347   0.663   4.958   1.876
 5468TIP3    H216348   0.528   4.939   1.812
 5469TIP3   OH216349   7.297   1.963   2.333
 5469TIP3    H116350   7.354   2.014   2.390
 5469TIP3    H216351   7.209   1.992   2.354
 5470TIP3   OH216352   6.124   6.618   4.914
 5470TIP3    H116353   6.052   6.641   4.855
 5470TIP3    H216354   6.083   6.562   4.980
 5471TIP3   OH216355   3.929   2.658   3.365
 5471TIP3    H116356   3.888   2.574   3.342
 5471TIP3    H216357   3.958   2.646   3.456
 5472TIP3   OH216358   6.705   3.406   0.110
 5472TIP3    H116359   6.763   3.390   0.036
 5472TIP3    H216360   6.717   3.330   0.167
 5473TIP3   OH216361   5.147   0.488   1.181
 5473TIP3    H116362   5.199   0.414   1.150
 5473TIP3    H216363   5.123   0.535   1.102
 5474TIP3   OH216364   4.216   0.831   4.570
 5474TIP3    H116365   4.309   0.844   4.550
 5474TIP3    H216366   4.176   0.814   4.485
 5475TIP3   OH216367   5.375   7.607   4.663
 5475TIP3    H116368   5.397   7.581   4.752
 5475TIP3    H216369   5.438   7.675   4.641
 5476TIP3   OH216370   6.385   1.020   0.305
 5476TIP3    H116371   6.394   0.938   0.257
 5476TIP3    H216372   6.362   0.994   0.394
 5477TIP3   OH216373   1.734   2.363   3.750
 5477TIP3    H116374   1.704   2.425   3.684
 5477TIP3    H216375   1.688   2.282   3.729
 5478TIP3   OH216376   4.145   3.607   0.013
 5478TIP3    H116377   4.189   3.656   0.082
 5478TIP3    H216378   4.080   3.668  -0.022
 5479TIP3   OH216379   7.709   7.660   2.902
 5479TIP3    H116380   7.740   7.715   2.974
 5479TIP3    H216381   7.777   7.666   2.835
 5480TIP3   OH216382   0.675   7.615   5.479
 5480TIP3    H116383   0.657   7.706   5.454
 5480TIP3    H216384   0.738   7.622   5.551
 5481TIP3   OH216385   6.598   3.399   3.583
 5481TIP3    H116386   6.555   3.440   3.508
 5481TIP3    H216387   6.660   3.465   3.615
 5482TIP3   OH216388   2.636   0.592   1.278
 5482TIP3    H116389   2.606   0.572   1.366
 5482TIP3    H216390   2.730   0.609   1.288
 5483TIP3   OH216391   6.356   6.198   6.547
 5483TIP3    H116392   6.369   6.254   6.624
 5483TIP3    H216393   6.367   6.257   6.472
 5484TIP3   OH216394   1.141   1.475   5.075
 5484TIP3    H116395   1.081   1.477   5.001
 5484TIP3    H216396   1.161   1.567   5.092
 5485TIP3   OH216397   7.066   5.334   4.983
 5485TIP3    H116398   6.991   5.278   5.005
 5485TIP3    H216399   7.030   5.423   4.984
 5486TIP3   OH216400   3.648   6.479   2.896
 5486TIP3    H116401   3.740   6.465   2.874
 5486TIP3    H216402   3.608   6.392   2.889
 5487TIP3   OH216403   6.897   7.389   0.071
 5487TIP3    H116404   6.811   7.427   0.088
 5487TIP3    H216405   6.893   7.357  -0.019
 5488TIP3   OH216406   7.911   0.647   4.318
 5488TIP3    H116407   7.972   0.610   4.255
 5488TIP3    H216408   7.852   0.576   4.341
 5489TIP3   OH216409   4.998   2.335   2.220
 5489TIP3    H116410   4.960   2.252   2.194
 5489TIP3    H216411   4.928   2.399   2.208
 5490TIP3   OH216412   7.714   6.609   4.985
 5490TIP3    H116413   7.684   6.657   5.062
 5490TIP3    H216414   7.791   6.561   5.015
 5491TIP3   OH216415   2.197   3.814   1.973
 5491TIP3    H116416   2.213   3.908   1.960
 5491TIP3    H216417   2.264   3.788   2.037
 5492TIP3   OH216418   3.469   6.114   1.751
 5492TIP3    H116419   3.436   6.141   1.665
 5492TIP3    H216420   3.426   6.031   1.768
 5493TIP3   OH216421   5.241   3.129   1.783
 5493TIP3    H116422   5.234   3.178   1.865
 5493TIP3    H216423   5.224   3.193   1.714
 5494TIP3   OH216424   0.786   7.786   6.550
 5494TIP3    H116425   0.858   7.770   6.610
 5494TIP3    H216426   0.711   7.804   6.607
 5495TIP3   OH216427   4.945   3.532   5.351
 5495TIP3    H116428   4.967   3.523   5.259
 5495TIP3    H216429   4.936   3.442   5.383
 5496TIP3   OH216430   7.734   3.230   0.155
 5496TIP3    H116431   7.704   3.193   0.072
 5496TIP3    H216432   7.730   3.157   0.217
 5497TIP3   OH216433   7.023   4.663   5.331
 5497TIP3    H116434   7.034   4.590   5.270
 5497TIP3    H216435   7.033   4.624   5.418
 5498TIP3   OH216436   8.287   3.391   5.548
 5498TIP3    H116437   8.276   3.336   5.625
 5498TIP3    H216438   8.204   3.385   5.501
 5499TIP3   OH216439   4.242   2.519   0.899
 5499TIP3    H116440   4.196   2.524   0.983
 5499TIP3    H216441   4.272   2.609   0.883
 5500TIP3   OH216442   6.340   5.545   5.534
 5500TIP3    H116443   6.322   5.554   5.440
 5500TIP3    H216444   6.255   5.555   5.576
 5501TIP3   OH216445   6.848   4.351   1.164
 5501TIP3    H116446   6.866   4.299   1.243
 5501TIP3    H216447   6.770   4.311   1.126
 5502TIP3   OH216448   4.366   2.019   0.139
 5502TIP3    H116449   4.271   2.017   0.129
 5502TIP3    H216450   4.386   1.949   0.201
 5503TIP3   OH216451   2.529   0.466   0.481
 5503TIP3    H116452   2.470   0.432   0.414
 5503TIP3    H216453   2.579   0.390   0.510
 5504TIP3   OH216454   2.312   6.864   1.486
 5504TIP3    H116455   2.392   6.914   1.468
 5504TIP3    H216456   2.248   6.898   1.424
 5505TIP3   OH216457   7.852   6.443   0.676
 5505TIP3    H116458   7.861   6.375   0.742
 5505TIP3    H216459   7.935   6.490   0.678
 5506TIP3   OH216460   4.252   7.394   5.402
 5506TIP3    H116461   4.261   7.423   5.493
 5506TIP3    H216462   4.342   7.395   5.368
 5507TIP3   OH216463   7.181   7.784   4.027
 5507TIP3    H116464   7.262   7.734   4.039
 5507TIP3    H216465   7.157   7.813   4.115
 5508TIP3   OH216466   6.439   1.172   4.731
 5508TIP3    H116467   6.490   1.101   4.771
 5508TIP3    H216468   6.401   1.219   4.805
 5509TIP3   OH216469   1.083   2.517   0.519
 5509TIP3    H116470   1.109   2.517   0.427
 5509TIP3    H216471   1.150   2.570   0.563
 5510TIP3   OH216472   6.823   7.075   0.228
 5510TIP3    H116473   6.763   7.134   0.274
 5510TIP3    H216474   6.807   7.091   0.135
 5511TIP3   OH216475   2.115   0.949   2.318
 5511TIP3    H116476   2.181   0.889   2.281
 5511TIP3    H216477   2.036   0.931   2.267
 5512TIP3   OH216478   0.499   0.438   5.627
 5512TIP3    H116479   0.548   0.482   5.557
 5512TIP3    H216480   0.485   0.506   5.693
 5513TIP3   OH216481   2.054   1.447   4.503
 5513TIP3    H116482   1.992   1.511   4.468
 5513TIP3    H216483   2.124   1.500   4.542
 5514TIP3   OH216484   0.048   3.752   5.363
 5514TIP3    H116485  -0.028   3.757   5.421
 5514TIP3    H216486   0.016   3.786   5.279
 5515TIP3   OH216487   5.632   1.443   4.306
 5515TIP3    H116488   5.539   1.422   4.297
 5515TIP3    H216489   5.634   1.513   4.372
 5516TIP3   OH216490   5.937   7.020   6.674
 5516TIP3    H116491   5.944   6.928   6.697
 5516TIP3    H216492   5.955   7.023   6.580
 5517TIP3   OH216493   4.489   4.563   0.614
 5517TIP3    H116494   4.430   4.531   0.682
 5517TIP3    H216495   4.479   4.501   0.542
 5518TIP3   OH216496   1.909   4.561   6.481
 5518TIP3    H116497   1.987   4.508   6.465
 5518TIP3    H216498   1.836   4.503   6.457
 5519TIP3   OH216499   0.856   5.993   5.278
 5519TIP3    H116500   0.931   6.030   5.232
 5519TIP3    H216501   0.889   5.913   5.318
 5520TIP3   OH216502   2.092   7.504   5.367
 5520TIP3    H116503   2.083   7.584   5.315
 5520TIP3    H216504   2.175   7.466   5.339
 5521TIP3   OH216505   6.443   2.538   5.048
 5521TIP3    H116506   6.453   2.624   5.007
 5521TIP3    H216507   6.503   2.540   5.123
 5522TIP3   OH216508   7.972   4.415   5.396
 5522TIP3    H116509   7.996   4.500   5.359
 5522TIP3    H216510   8.051   4.362   5.386
 5523TIP3   OH216511   1.041   5.750   3.496
 5523TIP3    H116512   1.058   5.782   3.584
 5523TIP3    H216513   0.998   5.665   3.509
 5524TIP3   OH216514   3.503   5.453   3.844
 5524TIP3    H116515   3.493   5.548   3.836
 5524TIP3    H216516   3.501   5.436   3.938
 5525TIP3   OH216517   7.324   5.912   5.953
 5525TIP3    H116518   7.246   5.964   5.933
 5525TIP3    H216519   7.372   5.910   5.870
 5526TIP3   OH216520   3.254   4.339   0.929
 5526TIP3    H116521   3.244   4.264   0.988
 5526TIP3    H216522   3.342   4.372   0.946
 5527TIP3   OH216523   1.757   7.012   2.552
 5527TIP3    H116524   1.721   7.090   2.511
 5527TIP3    H216525   1.681   6.966   2.588
 5528TIP3   OH216526   7.256   3.032   2.950
 5528TIP3    H116527   7.240   3.015   3.043
 5528TIP3    H216528   7.330   3.093   2.949
 5529TIP3   OH216529   4.167   4.002   0.091
 5529TIP3    H116530   4.082   3.960   0.079
 5529TIP3    H216531   4.203   4.009   0.003
 5530TIP3   OH216532   4.824   4.326   2.282
 5530TIP3    H116533   4.866   4.259   2.336
 5530TIP3    H216534   4.747   4.354   2.333
 5531TIP3   OH216535   3.899   3.036   5.906
 5531TIP3    H116536   3.851   3.092   5.967
 5531TIP3    H216537   3.871   3.065   5.819
 5532TIP3   OH216538   7.859   6.686   4.444
 5532TIP3    H116539   7.863   6.680   4.539
 5532TIP3    H216540   7.814   6.768   4.426
 5533TIP3   OH216541   3.684   0.384   2.183
 5533TIP3    H116542   3.681   0.401   2.277
 5533TIP3    H216543   3.616   0.318   2.168
 5534TIP3   OH216544   6.101   1.254   0.470
 5534TIP3    H116545   6.150   1.272   0.550
 5534TIP3    H216546   6.154   1.292   0.400
 5535TIP3   OH216547   1.352   4.334   6.725
 5535TIP3    H116548   1.299   4.292   6.792
 5535TIP3    H216549   1.290   4.367   6.661
 5536TIP3   OH216550   1.418   6.926   6.404
 5536TIP3    H116551   1.497   6.888   6.365
 5536TIP3    H216552   1.346   6.883   6.359
 5537TIP3   OH216553   2.587   0.023   5.048
 5537TIP3    H116554   2.511   0.080   5.054
 5537TIP3    H216555   2.552  -0.066   5.046
 5538TIP3   OH216556   6.277   6.934   0.842
 5538TIP3    H116557   6.261   6.995   0.770
 5538TIP3    H216558   6.363   6.958   0.875
 5539TIP3   OH216559   2.687   7.847   4.219
 5539TIP3    H116560   2.727   7.773   4.173
 5539TIP3    H216561   2.628   7.806   4.282
 5540TIP3   OH216562   2.852   1.328   3.002
 5540TIP3    H116563   2.913   1.256   3.015
 5540TIP3    H216564   2.907   1.406   3.000
 5541TIP3   OH216565   0.651   0.961   1.115
 5541TIP3    H116566   0.724   0.992   1.169
 5541TIP3    H216567   0.678   0.981   1.025
 5542TIP3   OH216568   0.607   6.967   1.050
 5542TIP3    H116569   0.558   6.903   1.101
 5542TIP3    H216570   0.553   7.046   1.052
 5543TIP3   OH216571   7.293   7.588   4.778
 5543TIP3    H116572   7.289   7.660   4.842
 5543TIP3    H216573   7.228   7.612   4.712
 5544TIP3   OH216574   6.722   5.067   0.853
 5544TIP3    H116575   6.666   5.143   0.872
 5544TIP3    H216576   6.668   5.011   0.797
 5545TIP3   OH216577   3.633   4.161   3.978
 5545TIP3    H116578   3.722   4.191   3.997
 5545TIP3    H216579   3.585   4.240   3.955
 5546TIP3   OH216580   2.467   0.548   4.729
 5546TIP3    H116581   2.453   0.475   4.790
 5546TIP3    H216582   2.509   0.616   4.782
 5547TIP3   OH216583   4.296   7.722   0.670
 5547TIP3    H116584   4.341   7.762   0.596
 5547TIP3    H216585   4.271   7.795   0.726
 5548TIP3   OH216586   6.490   0.510   2.602
 5548TIP3    H116587   6.536   0.586   2.565
 5548TIP3    H216588   6.480   0.450   2.528
 5549TIP3   OH216589   6.189   5.374   4.052
 5549TIP3    H116590   6.174   5.414   3.966
 5549TIP3    H216591   6.152   5.437   4.114
 5550TIP3   OH216592   0.783   6.120   3.093
 5550TIP3    H116593   0.847   6.174   3.138
 5550TIP3    H216594   0.731   6.081   3.163
 5551TIP3   OH216595   7.392   4.477   1.663
 5551TIP3    H116596   7.378   4.385   1.688
 5551TIP3    H216597   7.405   4.523   1.746
 5552TIP3   OH216598   3.450   0.643   4.489
 5552TIP3    H116599   3.396   0.577   4.446
 5552TIP3    H216600   3.425   0.726   4.448
 5553TIP3   OH216601   3.491   5.123   0.214
 5553TIP3    H116602   3.546   5.045   0.218
 5553TIP3    H216603   3.401   5.090   0.216
 5554TIP3   OH216604   4.300   6.543   1.473
 5554TIP3    H116605   4.335   6.454   1.470
 5554TIP3    H216606   4.236   6.547   1.402
 5555TIP3   OH216607   6.955   3.540   4.565
 5555TIP3    H116608   6.951   3.617   4.623
 5555TIP3    H216609   7.004   3.569   4.489
 5556TIP3   OH216610   7.256   1.473   3.208
 5556TIP3    H116611   7.275   1.429   3.125
 5556TIP3    H216612   7.316   1.548   3.210
 5557TIP3   OH216613   2.866   5.480   4.292
 5557TIP3    H116614   2.829   5.509   4.208
 5557TIP3    H216615   2.914   5.400   4.271
 5558TIP3   OH216616   3.765   7.399   2.475
 5558TIP3    H116617   3.828   7.470   2.476
 5558TIP3    H216618   3.679   7.442   2.468
 5559TIP3   OH216619   4.637   4.539   3.210
 5559TIP3    H116620   4.670   4.470   3.267
 5559TIP3    H216621   4.582   4.593   3.266
 5560TIP3   OH216622   5.118   7.589   3.058
 5560TIP3    H116623   5.181   7.649   3.018
 5560TIP3    H216624   5.118   7.613   3.151
 5561TIP3   OH216625   7.146   0.844   6.042
 5561TIP3    H116626   7.073   0.784   6.026
 5561TIP3    H216627   7.105   0.925   6.073
 5562TIP3   OH216628   7.202   4.906   2.991
 5562TIP3    H116629   7.199   4.825   2.939
 5562TIP3    H216630   7.178   4.975   2.930
 5563TIP3   OH216631   1.334   3.676   0.688
 5563TIP3    H116632   1.295   3.688   0.775
 5563TIP3    H216633   1.420   3.638   0.706
 5564TIP3   OH216634   2.667   2.547   2.008
 5564TIP3    H116635   2.666   2.452   2.006
 5564TIP3    H216636   2.654   2.574   1.917
 5565TIP3   OH216637   5.446   0.551   1.729
 5565TIP3    H116638   5.472   0.581   1.816
 5565TIP3    H216639   5.438   0.456   1.738
 5566TIP3   OH216640   5.463   6.751   2.060
 5566TIP3    H116641   5.396   6.752   1.992
 5566TIP3    H216642   5.543   6.724   2.014
 5567TIP3   OH216643   3.329   7.685   0.055
 5567TIP3    H116644   3.383   7.653   0.128
 5567TIP3    H216645   3.278   7.757   0.092
 5568TIP3   OH216646   7.330   4.176   5.040
 5568TIP3    H116647   7.299   4.219   5.119
 5568TIP3    H216648   7.384   4.103   5.072
 5569TIP3   OH216649   1.429   1.680   5.672
 5569TIP3    H116650   1.508   1.732   5.687
 5569TIP3    H216651   1.415   1.683   5.578
 5570TIP3   OH216652   5.576   4.681   2.006
 5570TIP3    H116653   5.654   4.734   1.993
 5570TIP3    H216654   5.590   4.639   2.091
 5571TIP3   OH216655   2.591   1.441   2.656
 5571TIP3    H116656   2.627   1.386   2.725
 5571TIP3    H216657   2.565   1.380   2.587
 5572TIP3   OH216658   4.282   1.087   2.041
 5572TIP3    H116659   4.238   1.023   1.984
 5572TIP3    H216660   4.319   1.034   2.112
 5573TIP3   OH216661   2.418   1.277   0.879
 5573TIP3    H116662   2.412   1.249   0.970
 5573TIP3    H216663   2.507   1.312   0.871
 5574TIP3   OH216664   4.931   0.488   1.549
 5574TIP3    H116665   4.850   0.537   1.539
 5574TIP3    H216666   4.940   0.440   1.466
 5575TIP3   OH216667   1.631   6.276   3.867
 5575TIP3    H116668   1.640   6.325   3.949
 5575TIP3    H216669   1.649   6.185   3.892
 5576TIP3   OH216670   4.071   6.140   4.791
 5576TIP3    H116671   4.165   6.156   4.785
 5576TIP3    H216672   4.039   6.208   4.849
 5577TIP3   OH216673   7.038   5.316   0.899
 5577TIP3    H116674   7.052   5.250   0.832
 5577TIP3    H216675   7.095   5.389   0.874
 5578TIP3   OH216676   7.797   2.228   0.266
 5578TIP3    H116677   7.879   2.244   0.313
 5578TIP3    H216678   7.751   2.312   0.269
 5579TIP3   OH216679   4.247   4.242   2.297
 5579TIP3    H116680   4.272   4.258   2.206
 5579TIP3    H216681   4.307   4.174   2.327
 5580TIP3   OH216682   8.328   7.265   2.075
 5580TIP3    H116683   8.248   7.315   2.091
 5580TIP3    H216684   8.311   7.219   1.993
 5581TIP3   OH216685   4.999   4.489   2.417
 5581TIP3    H116686   4.951   4.424   2.365
 5581TIP3    H216687   5.075   4.510   2.365
 5582TIP3   OH216688   3.780   0.596   4.985
 5582TIP3    H116689   3.758   0.507   4.955
 5582TIP3    H216690   3.696   0.640   4.994
 5583TIP3   OH216691   1.509   0.839   5.614
 5583TIP3    H116692   1.423   0.865   5.647
 5583TIP3    H216693   1.519   0.886   5.531
 5584TIP3   OH216694   2.143   2.291   1.386
 5584TIP3    H116695   2.050   2.269   1.382
 5584TIP3    H216696   2.155   2.354   1.315
 5585TIP3   OH216697   4.090   5.498   4.338
 5585TIP3    H116698   4.012   5.481   4.390
 5585TIP3    H216699   4.095   5.425   4.277
 5586TIP3   OH216700   6.598   0.417   4.641
 5586TIP3    H116701   6.684   0.375   4.635
 5586TIP3    H216702   6.596   0.476   4.565
 5587TIP3   OH216703  -0.005   5.451   4.018
 5587TIP3    H116704  -0.009   5.413   3.930
 5587TIP3    H216705   0.072   5.508   4.016
 5588TIP3   OH216706   6.202   7.474   4.033
 5588TIP3    H116707   6.176   7.501   4.121
 5588TIP3    H216708   6.121   7.474   3.983
 5589TIP3   OH216709   6.228   2.882   5.667
 5589TIP3    H116710   6.216   2.977   5.655
 5589TIP3    H216711   6.281   2.855   5.592
 5590TIP3   OH216712   4.980   4.977   4.026
 5590TIP3    H116713   4.948   5.030   4.099
 5590TIP3    H216714   4.964   5.030   3.948
 5591TIP3   OH216715   4.740   3.002   1.267
 5591TIP3    H116716   4.648   3.030   1.266
 5591TIP3    H216717   4.789   3.079   1.238
 5592TIP3   OH216718   1.958   5.966   1.600
 5592TIP3    H116719   1.967   6.060   1.617
 5592TIP3    H216720   1.911   5.932   1.676
 5593TIP3   OH216721   8.146   3.556   6.625
 5593TIP3    H116722   8.215   3.527   6.684
 5593TIP3    H216723   8.168   3.647   6.605
 5594TIP3   OH216724   7.610   3.924   2.826
 5594TIP3    H116725   7.664   3.919   2.748
 5594TIP3    H216726   7.547   3.852   2.816
 5595TIP3   OH216727   7.371   4.405   4.479
 5595TIP3    H116728   7.415   4.399   4.563
 5595TIP3    H216729   7.301   4.340   4.483
 5596TIP3   OH216730   6.665   1.553   6.173
 5596TIP3    H116731   6.584   1.602   6.189
 5596TIP3    H216732   6.639   1.461   6.185
 5597TIP3   OH216733   1.396   7.564   5.376
 5597TIP3    H116734   1.418   7.652   5.344
 5597TIP3    H216735   1.393   7.511   5.296
 5598TIP3   OH216736   3.327   2.839   3.116
 5598TIP3    H116737   3.267   2.859   3.044
 5598TIP3    H216738   3.327   2.744   3.122
 5599TIP3   OH216739   2.686   5.158   4.770
 5599TIP3    H116740   2.715   5.108   4.694
 5599TIP3    H216741   2.655   5.241   4.735
 5600TIP3   OH216742   4.338   4.284   5.902
 5600TIP3    H116743   4.309   4.375   5.898
 5600TIP3    H216744   4.261   4.234   5.929
 5601TIP3   OH216745   2.155   5.416   4.095
 5601TIP3    H116746   2.151   5.365   4.013
 5601TIP3    H216747   2.247   5.444   4.101
 5602TIP3   OH216748   0.099   2.587   1.585
 5602TIP3    H116749   0.130   2.550   1.502
 5602TIP3    H216750   0.089   2.511   1.642
 5603TIP3   OH216751   7.153   6.706   3.133
 5603TIP3    H116752   7.116   6.706   3.044
 5603TIP3    H216753   7.157   6.613   3.157
 5604TIP3   OH216754   6.825   0.443   2.578
 5604TIP3    H116755   6.790   0.411   2.661
 5604TIP3    H216756   6.747   0.470   2.528
 5605TIP3   OH216757   6.865   2.073   2.057
 5605TIP3    H116758   6.842   1.981   2.045
 5605TIP3    H216759   6.868   2.109   1.968
 5606TIP3   OH216760   3.979   2.771   2.793
 5606TIP3    H116761   3.932   2.854   2.802
 5606TIP3    H216762   4.026   2.761   2.876
 5607TIP3   OH216763   2.392   3.634   0.757
 5607TIP3    H116764   2.364   3.547   0.782
 5607TIP3    H216765   2.336   3.657   0.683
 5608TIP3   OH216766   4.943   1.927   1.908
 5608TIP3    H116767   4.989   1.892   1.832
 5608TIP3    H216768   4.939   2.021   1.893
 5609TIP3   OH216769   6.321   5.222   4.562
 5609TIP3    H116770   6.360   5.260   4.483
 5609TIP3    H216771   6.331   5.290   4.628
 5610TIP3   OH216772   3.807   6.215   1.961
 5610TIP3    H116773   3.804   6.195   2.054
 5610TIP3    H216774   3.736   6.277   1.947
 5611TIP3   OH216775   4.719   7.777   2.019
 5611TIP3    H116776   4.626   7.788   2.039
 5611TIP3    H216777   4.762   7.849   2.065
 5612TIP3   OH216778   1.367   3.764   0.323
 5612TIP3    H116779   1.417   3.831   0.277
 5612TIP3    H216780   1.404   3.681   0.294
 5613TIP3   OH216781   6.706   7.365   6.616
 5613TIP3    H116782   6.625   7.407   6.646
 5613TIP3    H216783   6.751   7.340   6.697
 5614TIP3   OH216784   7.245   1.065   3.177
 5614TIP3    H116785   7.167   1.087   3.229
 5614TIP3    H216786   7.262   1.144   3.125
 5615TIP3   OH216787   3.643   1.916   1.958
 5615TIP3    H116788   3.620   1.861   2.034
 5615TIP3    H216789   3.647   1.855   1.885
 5616TIP3   OH216790   4.531   6.912   5.573
 5616TIP3    H116791   4.511   6.835   5.519
 5616TIP3    H216792   4.567   6.877   5.654
 5617TIP3   OH216793   0.794   2.507   4.458
 5617TIP3    H116794   0.805   2.596   4.491
 5617TIP3    H216795   0.831   2.452   4.527
 5618TIP3   OH216796   6.873   6.345   1.800
 5618TIP3    H116797   6.828   6.269   1.762
 5618TIP3    H216798   6.830   6.420   1.760
 5619TIP3   OH216799   5.877   7.754   3.620
 5619TIP3    H116800   5.876   7.661   3.643
 5619TIP3    H216801   5.869   7.755   3.525
 5620TIP3   OH216802   3.257   5.896   3.771
 5620TIP3    H116803   3.175   5.847   3.771
 5620TIP3    H216804   3.244   5.965   3.706
 5621TIP3   OH216805   0.301   1.115   4.595
 5621TIP3    H116806   0.332   1.176   4.663
 5621TIP3    H216807   0.231   1.163   4.551
 5622TIP3   OH216808   1.166   2.015   1.063
 5622TIP3    H116809   1.083   1.981   1.029
 5622TIP3    H216810   1.143   2.051   1.149
 5623TIP3   OH216811   8.022   4.509   5.743
 5623TIP3    H116812   7.945   4.545   5.700
 5623TIP3    H216813   8.070   4.464   5.673
 5624TIP3   OH216814   4.602   3.849   2.913
 5624TIP3    H116815   4.670   3.864   2.979
 5624TIP3    H216816   4.644   3.795   2.846
 5625TIP3   OH216817   2.340   7.442   2.103
 5625TIP3    H116818   2.365   7.474   2.190
 5625TIP3    H216819   2.372   7.352   2.100
 5626TIP3   OH216820   4.369   2.114   3.130
 5626TIP3    H116821   4.386   2.022   3.151
 5626TIP3    H216822   4.411   2.127   3.045
 5627TIP3   OH216823   3.491   4.830   0.920
 5627TIP3    H116824   3.474   4.850   0.829
 5627TIP3    H216825   3.491   4.915   0.964
 5628TIP3   OH216826   6.900   2.698   2.952
 5628TIP3    H116827   6.826   2.759   2.956
 5628TIP3    H216828   6.966   2.743   2.899
 5629TIP3   OH216829   6.600   5.788   4.210
 5629TIP3    H116830   6.539   5.714   4.199
 5629TIP3    H216831   6.543   5.865   4.215
 5630TIP3   OH216832   7.513   5.081   3.640
 5630TIP3    H116833   7.596   5.048   3.604
 5630TIP3    H216834   7.447   5.054   3.576
 5631TIP3   OH216835   0.815   4.211   3.091
 5631TIP3    H116836   0.763   4.250   3.020
 5631TIP3    H216837   0.902   4.251   3.082
 5632TIP3   OH216838   0.925   5.194   2.700
 5632TIP3    H116839   1.006   5.170   2.744
 5632TIP3    H216840   0.884   5.258   2.758
 5633TIP3   OH216841   5.009   3.144   5.100
 5633TIP3    H116842   5.069   3.084   5.144
 5633TIP3    H216843   5.058   3.177   5.025
 5634TIP3   OH216844   5.038   7.216   6.005
 5634TIP3    H116845   5.051   7.301   5.962
 5634TIP3    H216846   5.115   7.205   6.061
 5635TIP3   OH216847   7.561   2.882   1.876
 5635TIP3    H116848   7.559   2.871   1.971
 5635TIP3    H216849   7.653   2.867   1.852
 5636TIP3   OH216850   2.568   1.638   6.295
 5636TIP3    H116851   2.603   1.643   6.384
 5636TIP3    H216852   2.563   1.545   6.276
 5637TIP3   OH216853   3.075   7.513   4.767
 5637TIP3    H116854   3.156   7.501   4.718
 5637TIP3    H216855   3.102   7.521   4.858
 5638TIP3   OH216856   5.875   4.905   6.779
 5638TIP3    H116857   5.940   4.864   6.722
 5638TIP3    H216858   5.877   4.998   6.755
 5639TIP3   OH216859   1.021   4.667   1.702
 5639TIP3    H116860   1.098   4.668   1.758
 5639TIP3    H216861   1.038   4.596   1.640
 5640TIP3   OH216862   2.043   6.327   0.662
 5640TIP3    H116863   2.096   6.384   0.607
 5640TIP3    H216864   2.001   6.267   0.600
 5641TIP3   OH216865   1.045   5.442   5.947
 5641TIP3    H116866   1.135   5.428   5.976
 5641TIP3    H216867   1.053   5.471   5.856
 5642TIP3   OH216868   8.107   6.238   5.617
 5642TIP3    H116869   8.166   6.178   5.665
 5642TIP3    H216870   8.166   6.291   5.564
 5643TIP3   OH216871   4.678   5.370   2.646
 5643TIP3    H116872   4.612   5.305   2.669
 5643TIP3    H216873   4.628   5.443   2.609
 5644TIP3   OH216874   5.692   4.064   5.271
 5644TIP3    H116875   5.653   4.009   5.338
 5644TIP3    H216876   5.751   4.123   5.319
 5645TIP3   OH216877   0.553   1.131   5.283
 5645TIP3    H116878   0.494   1.087   5.222
 5645TIP3    H216879   0.495   1.182   5.340
 5646TIP3   OH216880   2.584   3.306   4.985
 5646TIP3    H116881   2.653   3.353   4.938
 5646TIP3    H216882   2.546   3.247   4.920
 5647TIP3   OH216883   2.053   6.276   3.888
 5647TIP3    H116884   2.032   6.297   3.797
 5647TIP3    H216885   1.982   6.314   3.939
 5648TIP3   OH216886   6.741   3.951   6.481
 5648TIP3    H116887   6.747   3.895   6.404
 5648TIP3    H216888   6.680   3.905   6.539
 5649TIP3   OH216889   4.732   6.652   0.877
 5649TIP3    H116890   4.758   6.696   0.958
 5649TIP3    H216891   4.667   6.588   0.903
 5650TIP3   OH216892   2.758   1.303   5.498
 5650TIP3    H116893   2.742   1.217   5.537
 5650TIP3    H216894   2.849   1.300   5.469
 5651TIP3   OH216895   2.575   6.323   5.656
 5651TIP3    H116896   2.640   6.299   5.590
 5651TIP3    H216897   2.540   6.407   5.626
 5652TIP3   OH216898   3.927   6.451   2.862
 5652TIP3    H116899   3.992   6.475   2.928
 5652TIP3    H216900   3.974   6.395   2.801
 5653TIP3   OH216901   3.497   1.987   2.298
 5653TIP3    H116902   3.566   1.968   2.236
 5653TIP3    H216903   3.459   1.902   2.319
 5654TIP3   OH216904   1.356   5.448   0.819
 5654TIP3    H116905   1.397   5.366   0.848
 5654TIP3    H216906   1.415   5.481   0.751
 5655TIP3   OH216907   0.021   2.486   1.214
 5655TIP3    H116908   0.059   2.480   1.126
 5655TIP3    H216909   0.004   2.579   1.226
 5656TIP3   OH216910   6.554   4.561   3.523
 5656TIP3    H116911   6.502   4.552   3.443
 5656TIP3    H216912   6.534   4.483   3.574
 5657TIP3   OH216913   3.742   5.403   5.272
 5657TIP3    H116914   3.834   5.414   5.296
 5657TIP3    H216915   3.707   5.491   5.266
 5658TIP3   OH216916   0.708   0.876   1.621
 5658TIP3    H116917   0.615   0.877   1.600
 5658TIP3    H216918   0.739   0.964   1.599
 5659TIP3   OH216919   1.208   1.122   4.003
 5659TIP3    H116920   1.139   1.119   4.069
 5659TIP3    H216921   1.289   1.134   4.054
 5660TIP3   OH216922  -0.067   5.001   5.123
 5660TIP3    H116923  -0.056   5.001   5.028
 5660TIP3    H216924  -0.087   4.910   5.144
 5661TIP3   OH216925   5.065   5.625   5.423
 5661TIP3    H116926   5.060   5.543   5.472
 5661TIP3    H216927   5.023   5.606   5.339
 5662TIP3   OH216928   5.760   2.930   0.051
 5662TIP3    H116929   5.671   2.897   0.060
 5662TIP3    H216930   5.813   2.867   0.100
 5663TIP3   OH216931   6.889   1.343   1.294
 5663TIP3    H116932   6.860   1.285   1.223
 5663TIP3    H216933   6.984   1.339   1.290
 5664TIP3   OH216934   1.286   4.824   5.565
 5664TIP3    H116935   1.229   4.772   5.622
 5664TIP3    H216936   1.226   4.864   5.502
 5665TIP3   OH216937   6.526   0.118   3.473
 5665TIP3    H116938   6.501   0.045   3.417
 5665TIP3    H216939   6.491   0.095   3.560
 5666TIP3   OH216940   4.456   0.600   1.846
 5666TIP3    H116941   4.435   0.581   1.937
 5666TIP3    H216942   4.373   0.632   1.809
 5667TIP3   OH216943   1.839   5.056   3.342
 5667TIP3    H116944   1.890   5.059   3.423
 5667TIP3    H216945   1.793   5.141   3.340
 5668TIP3   OH216946   5.315   5.383   1.946
 5668TIP3    H116947   5.356   5.337   2.019
 5668TIP3    H216948   5.335   5.475   1.961
 5669TIP3   OH216949   7.687   2.005   0.113
 5669TIP3    H116950   7.710   2.082   0.164
 5669TIP3    H216951   7.591   2.005   0.111
 5670TIP3   OH216952   6.510   4.352   3.073
 5670TIP3    H116953   6.578   4.312   3.018
 5670TIP3    H216954   6.469   4.417   3.016
 5671TIP3   OH216955   1.567   6.077   5.002
 5671TIP3    H116956   1.618   6.131   5.061
 5671TIP3    H216957   1.556   6.131   4.923
 5672TIP3   OH216958   5.506   6.312   5.927
 5672TIP3    H116959   5.516   6.227   5.969
 5672TIP3    H216960   5.572   6.313   5.857
 5673TIP3   OH216961   0.308   0.392   3.707
 5673TIP3    H116962   0.259   0.339   3.644
 5673TIP3    H216963   0.347   0.328   3.766
 5674TIP3   OH216964   2.815   3.304   3.953
 5674TIP3    H116965   2.794   3.276   4.042
 5674TIP3    H216966   2.820   3.222   3.903
 5675TIP3   OH216967   5.713   5.305   0.360
 5675TIP3    H116968   5.756   5.258   0.432
 5675TIP3    H216969   5.636   5.345   0.400
 5676TIP3   OH216970   7.010   6.031   4.150
 5676TIP3    H116971   6.964   5.981   4.083
 5676TIP3    H216972   7.077   5.972   4.183
 5677TIP3   OH216973   3.862   1.652   5.264
 5677TIP3    H116974   3.908   1.568   5.276
 5677TIP3    H216975   3.814   1.664   5.346
 5678TIP3   OH216976   5.056   0.489   4.957
 5678TIP3    H116977   5.011   0.566   4.924
 5678TIP3    H216978   5.102   0.519   5.035
 5679TIP3   OH216979   7.128   1.757   4.250
 5679TIP3    H116980   7.050   1.767   4.305
 5679TIP3    H216981   7.200   1.783   4.307
 5680TIP3   OH216982   2.543   3.240   5.958
 5680TIP3    H116983   2.542   3.336   5.947
 5680TIP3    H216984   2.526   3.207   5.870
 5681TIP3   OH216985   3.959   4.145   5.174
 5681TIP3    H116986   3.924   4.156   5.085
 5681TIP3    H216987   4.053   4.159   5.164
 5682TIP3   OH216988   8.007   4.179   1.164
 5682TIP3    H116989   7.958   4.194   1.245
 5682TIP3    H216990   7.964   4.103   1.124
 5683TIP3   OH216991   0.412   4.716   5.603
 5683TIP3    H116992   0.422   4.635   5.653
 5683TIP3    H216993   0.354   4.692   5.531
 5684TIP3   OH216994   1.758   2.755   4.529
 5684TIP3    H116995   1.677   2.799   4.501
 5684TIP3    H216996   1.820   2.772   4.459
 5685TIP3   OH216997   4.530   6.421   4.722
 5685TIP3    H116998   4.577   6.456   4.646
 5685TIP3    H216999   4.547   6.327   4.720
 5686TIP3   OH217000   7.909   3.154   6.257
 5686TIP3    H117001   7.884   3.244   6.275
 5686TIP3    H217002   7.987   3.139   6.311
 5687TIP3   OH217003   2.018   2.648   6.251
 5687TIP3    H117004   2.095   2.697   6.281
 5687TIP3    H217005   2.011   2.575   6.312
 5688TIP3   OH217006   7.129   6.616   1.869
 5688TIP3    H117007   7.096   6.656   1.788
 5688TIP3    H217008   7.201   6.560   1.840
 5689TIP3   OH217009   5.299   3.773   6.233
 5689TIP3    H117010   5.211   3.809   6.247
 5689TIP3    H217011   5.357   3.837   6.275
 5690TIP3   OH217012   1.343   2.498   4.021
 5690TIP3    H117013   1.266   2.537   4.063
 5690TIP3    H217014   1.416   2.552   4.052
 5691TIP3   OH217015   2.150   0.968   4.044
 5691TIP3    H117016   2.058   0.953   4.065
 5691TIP3    H217017   2.175   1.043   4.097
 5692TIP3   OH217018   4.433   2.756   3.574
 5692TIP3    H117019   4.515   2.803   3.556
 5692TIP3    H217020   4.455   2.664   3.562
 5693TIP3   OH217021   0.737   5.975   6.037
 5693TIP3    H117022   0.811   5.921   6.065
 5693TIP3    H217023   0.774   6.031   5.968
 5694TIP3   OH217024   3.498   1.920   0.169
 5694TIP3    H117025   3.403   1.922   0.184
 5694TIP3    H217026   3.507   1.884   0.081
 5695TIP3   OH217027   7.932   2.537   2.340
 5695TIP3    H117028   7.981   2.461   2.307
 5695TIP3    H217029   7.995   2.609   2.339
 5696TIP3   OH217030   3.005   2.229   2.946
 5696TIP3    H117031   3.041   2.214   2.859
 5696TIP3    H217032   3.066   2.185   3.006
 5697TIP3   OH217033   1.076   3.728   2.909
 5697TIP3    H117034   1.001   3.670   2.918
 5697TIP3    H217035   1.038   3.812   2.881
 5698TIP3   OH217036   7.815   7.299   0.164
 5698TIP3    H117037   7.751   7.354   0.209
 5698TIP3    H217038   7.765   7.224   0.133
 5699TIP3   OH217039   1.155   1.391   3.866
 5699TIP3    H117040   1.078   1.406   3.812
 5699TIP3    H217041   1.144   1.302   3.900
 5700TIP3   OH217042   3.422   2.165   4.218
 5700TIP3    H117043   3.367   2.203   4.149
 5700TIP3    H217044   3.407   2.071   4.212
 5701TIP3   OH217045   0.656   3.859   0.972
 5701TIP3    H117046   0.566   3.838   0.947
 5701TIP3    H217047   0.679   3.933   0.915
 5702TIP3   OH217048   7.612   2.996   2.626
 5702TIP3    H117049   7.641   2.986   2.717
 5702TIP3    H217050   7.576   3.084   2.622
 5703TIP3   OH217051   8.211   0.459   6.078
 5703TIP3    H117052   8.166   0.543   6.071
 5703TIP3    H217053   8.209   0.424   5.988
 5704TIP3   OH217054   4.410   1.506   6.286
 5704TIP3    H117055   4.398   1.570   6.216
 5704TIP3    H217056   4.394   1.421   6.243
 5705TIP3   OH217057   2.943   6.055   6.527
 5705TIP3    H117058   2.926   5.967   6.494
 5705TIP3    H217059   3.034   6.073   6.504
 5706TIP3   OH217060   3.235   1.579   5.816
 5706TIP3    H117061   3.289   1.517   5.863
 5706TIP3    H217062   3.145   1.555   5.838
 5707TIP3   OH217063   4.881   1.351   3.675
 5707TIP3    H117064   4.884   1.259   3.648
 5707TIP3    H217065   4.952   1.393   3.627
 5708TIP3   OH217066   4.208   5.323   5.923
 5708TIP3    H117067   4.137   5.386   5.936
 5708TIP3    H217068   4.215   5.277   6.006
 5709TIP3   OH217069   6.899   1.547   4.695
 5709TIP3    H117070   6.877   1.536   4.602
 5709TIP3    H217071   6.963   1.478   4.712
 5710TIP3   OH217072   4.164   0.939   6.542
 5710TIP3    H117073   4.232   0.885   6.500
 5710TIP3    H217074   4.144   1.006   6.477
 5711TIP3   OH217075   4.985   5.446   0.307
 5711TIP3    H117076   5.067   5.420   0.267
 5711TIP3    H217077   5.008   5.466   0.398
 5712TIP3   OH217078   4.124   2.141   1.455
 5712TIP3    H117079   4.126   2.063   1.511
 5712TIP3    H217080   4.157   2.111   1.370
 5713TIP3   OH217081   0.507   6.190   3.938
 5713TIP3    H117082   0.466   6.275   3.924
 5713TIP3    H217083   0.482   6.138   3.861
 5714TIP3   OH217084   4.107   1.952   0.044
 5714TIP3    H117085   4.024   1.943   0.092
 5714TIP3    H217086   4.080   1.971  -0.046
 5715TIP3   OH217087   2.583   1.704   0.818
 5715TIP3    H117088   2.623   1.764   0.755
 5715TIP3    H217089   2.502   1.747   0.844
 5716TIP3   OH217090   6.324   3.621   0.039
 5716TIP3    H117091   6.344   3.650   0.128
 5716TIP3    H217092   6.335   3.526   0.041
 5717TIP3   OH217093   6.939   6.230   2.067
 5717TIP3    H117094   6.911   6.292   2.000
 5717TIP3    H217095   7.010   6.181   2.026
 5718TIP3   OH217096   7.483   3.738   4.025
 5718TIP3    H117097   7.434   3.709   4.102
 5718TIP3    H217098   7.495   3.658   3.973
 5719TIP3   OH217099   0.322   3.715   1.856
 5719TIP3    H117100   0.278   3.708   1.772
 5719TIP3    H217101   0.291   3.799   1.892
 5720TIP3   OH217102   7.476   2.916   1.617
 5720TIP3    H117103   7.535   2.865   1.562
 5720TIP3    H217104   7.506   2.898   1.707
 5721TIP3   OH217105   0.087   6.350   5.735
 5721TIP3    H117106   0.106   6.295   5.659
 5721TIP3    H217107   0.146   6.425   5.726
 5722TIP3   OH217108   4.263   6.772   1.613
 5722TIP3    H117109   4.307   6.690   1.592
 5722TIP3    H217110   4.255   6.817   1.529
 5723TIP3   OH217111   0.384   6.585   1.977
 5723TIP3    H117112   0.304   6.573   2.029
 5723TIP3    H217113   0.401   6.499   1.939
 5724TIP3   OH217114   1.551   7.757   1.371
 5724TIP3    H117115   1.500   7.748   1.451
 5724TIP3    H217116   1.503   7.704   1.306
 5725TIP3   OH217117   7.651   0.585   4.026
 5725TIP3    H117118   7.592   0.613   3.957
 5725TIP3    H217119   7.718   0.655   4.030
 5726TIP3   OH217120   1.526   6.678   0.657
 5726TIP3    H117121   1.462   6.714   0.596
 5726TIP3    H217122   1.534   6.585   0.632
 5727TIP3   OH217123   2.060   5.221   6.363
 5727TIP3    H117124   2.104   5.305   6.375
 5727TIP3    H217125   2.110   5.177   6.294
 5728TIP3   OH217126   6.758   4.763   3.386
 5728TIP3    H117127   6.747   4.718   3.302
 5728TIP3    H217128   6.792   4.849   3.363
 5729TIP3   OH217129   2.725   3.922   1.111
 5729TIP3    H117130   2.718   3.907   1.205
 5729TIP3    H217131   2.670   4.000   1.096
 5730TIP3   OH217132   3.242   6.439   3.010
 5730TIP3    H117133   3.297   6.514   2.989
 5730TIP3    H217134   3.209   6.410   2.925
 5731TIP3   OH217135   0.509   1.482   5.780
 5731TIP3    H117136   0.489   1.543   5.708
 5731TIP3    H217137   0.505   1.395   5.740
 5732TIP3   OH217138   0.730   1.758   1.513
 5732TIP3    H117139   0.681   1.793   1.586
 5732TIP3    H217140   0.757   1.670   1.541
 5733TIP3   OH217141   7.488   2.911   5.627
 5733TIP3    H117142   7.523   2.964   5.699
 5733TIP3    H217143   7.472   2.825   5.666
 5734TIP3   OH217144   0.544   0.620   6.753
 5734TIP3    H117145   0.615   0.665   6.708
 5734TIP3    H217146   0.585   0.579   6.829
 5735TIP3   OH217147   7.818   1.844   5.045
 5735TIP3    H117148   7.882   1.909   5.074
 5735TIP3    H217149   7.793   1.873   4.957
 5736TIP3   OH217150   3.348   1.918   0.805
 5736TIP3    H117151   3.336   2.013   0.807
 5736TIP3    H217152   3.350   1.896   0.712
 5737TIP3   OH217153   6.608   1.579   1.011
 5737TIP3    H117154   6.567   1.493   1.025
 5737TIP3    H217155   6.610   1.619   1.098
 5738TIP3   OH217156   3.606   2.646   6.149
 5738TIP3    H117157   3.604   2.610   6.238
 5738TIP3    H217158   3.621   2.571   6.093
 5739TIP3   OH217159   4.065   5.300   1.561
 5739TIP3    H117160   4.127   5.263   1.499
 5739TIP3    H217161   4.023   5.224   1.603
 5740TIP3   OH217162   1.410   2.899   0.479
 5740TIP3    H117163   1.327   2.938   0.504
 5740TIP3    H217164   1.392   2.853   0.397
 5741TIP3   OH217165   7.165   2.419   3.126
 5741TIP3    H117166   7.123   2.451   3.046
 5741TIP3    H217167   7.115   2.341   3.150
 5742TIP3   OH217168   3.856   1.837   2.424
 5742TIP3    H117169   3.817   1.920   2.452
 5742TIP3    H217170   3.884   1.853   2.334
 5743TIP3   OH217171   4.469   2.078   0.482
 5743TIP3    H117172   4.394   2.036   0.439
 5743TIP3    H217173   4.545   2.046   0.434
 5744TIP3   OH217174   6.807   5.798   4.685
 5744TIP3    H117175   6.805   5.809   4.590
 5744TIP3    H217176   6.894   5.764   4.704
 5745TIP3   OH217177   2.691   3.738   6.703
 5745TIP3    H117178   2.749   3.753   6.777
 5745TIP3    H217179   2.749   3.707   6.633
 5746TIP3   OH217180   2.006   7.252   3.557
 5746TIP3    H117181   2.004   7.318   3.488
 5746TIP3    H217182   2.020   7.169   3.512
 5747TIP3   OH217183   0.982   1.278   3.628
 5747TIP3    H117184   1.067   1.242   3.604
 5747TIP3    H217185   0.945   1.215   3.690
 5748TIP3   OH217186   0.612   4.106   0.177
 5748TIP3    H117187   0.616   4.011   0.180
 5748TIP3    H217188   0.523   4.127   0.204
 5749TIP3   OH217189   0.561   7.614   5.185
 5749TIP3    H117190   0.565   7.686   5.248
 5749TIP3    H217191   0.635   7.558   5.207
 5750TIP3   OH217192   1.336   2.378   2.153
 5750TIP3    H117193   1.384   2.427   2.220
 5750TIP3    H217194   1.400   2.364   2.083
 5751TIP3   OH217195   3.812   6.908   0.124
 5751TIP3    H117196   3.787   6.992   0.163
 5751TIP3    H217197   3.903   6.921   0.096
 5752TIP3   OH217198   6.843   4.474   6.483
 5752TIP3    H117199   6.913   4.468   6.548
 5752TIP3    H217200   6.803   4.387   6.483
 5753TIP3   OH217201   0.926   5.807   5.912
 5753TIP3    H117202   0.941   5.826   5.819
 5753TIP3    H217203   0.852   5.746   5.912
 5754TIP3   OH217204   2.200   3.957   2.407
 5754TIP3    H117205   2.288   3.983   2.436
 5754TIP3    H217206   2.205   3.862   2.401
 5755TIP3   OH217207   0.501   6.660   5.722
 5755TIP3    H117208   0.542   6.718   5.785
 5755TIP3    H217209   0.555   6.581   5.722
 5756TIP3   OH217210   5.556   7.200   5.423
 5756TIP3    H117211   5.531   7.179   5.512
 5756TIP3    H217212   5.579   7.293   5.426
 5757TIP3   OH217213   7.123   2.826   2.845
 5757TIP3    H117214   7.152   2.900   2.899
 5757TIP3    H217215   7.203   2.779   2.824
 5758TIP3   OH217216   4.850   5.985   4.216
 5758TIP3    H117217   4.940   5.980   4.186
 5758TIP3    H217218   4.841   5.912   4.278
 5759TIP3   OH217219   2.884   2.166   6.719
 5759TIP3    H117220   2.925   2.174   6.804
 5759TIP3    H217221   2.791   2.151   6.738
 5760TIP3   OH217222   6.619   5.836   5.701
 5760TIP3    H117223   6.644   5.883   5.780
 5760TIP3    H217224   6.618   5.903   5.633
 5761TIP3   OH217225   7.130   5.824   3.992
 5761TIP3    H117226   7.081   5.791   3.916
 5761TIP3    H217227   7.079   5.795   4.068
 5762TIP3   OH217228   8.123   4.964   2.514
 5762TIP3    H117229   8.150   4.942   2.603
 5762TIP3    H217230   8.082   5.050   2.522
 5763TIP3   OH217231   7.761   2.443   5.686
 5763TIP3    H117232   7.791   2.409   5.770
 5763TIP3    H217233   7.668   2.419   5.682
 5764TIP3   OH217234   2.335   5.158   3.516
 5764TIP3    H117235   2.418   5.168   3.469
 5764TIP3    H217236   2.361   5.129   3.603
 5765TIP3   OH217237   1.759   6.904   2.848
 5765TIP3    H117238   1.797   6.847   2.782
 5765TIP3    H217239   1.665   6.884   2.847
 5766TIP3   OH217240   7.644   7.277   0.995
 5766TIP3    H117241   7.618   7.362   0.960
 5766TIP3    H217242   7.598   7.213   0.940
 5767TIP3   OH217243   2.615   4.971   6.433
 5767TIP3    H117244   2.646   4.883   6.411
 5767TIP3    H217245   2.649   4.986   6.521
 5768TIP3   OH217246   6.275   4.125   5.544
 5768TIP3    H117247   6.220   4.081   5.478
 5768TIP3    H217248   6.362   4.087   5.532
 5769TIP3   OH217249   5.317   6.241   3.617
 5769TIP3    H117250   5.320   6.231   3.521
 5769TIP3    H217251   5.227   6.216   3.640
 5770TIP3   OH217252   1.990   4.333   4.222
 5770TIP3    H117253   2.039   4.340   4.304
 5770TIP3    H217254   2.056   4.348   4.154
 5771TIP3   OH217255   2.064   7.584   2.148
 5771TIP3    H117256   2.075   7.633   2.229
 5771TIP3    H217257   1.981   7.538   2.159
 5772TIP3   OH217258   2.727   0.383   1.778
 5772TIP3    H117259   2.730   0.454   1.842
 5772TIP3    H217260   2.733   0.303   1.830
 5773TIP3   OH217261   5.185   4.462   2.696
 5773TIP3    H117262   5.265   4.513   2.710
 5773TIP3    H217263   5.122   4.526   2.662
 5774TIP3   OH217264   1.162   6.230   0.945
 5774TIP3    H117265   1.180   6.308   0.893
 5774TIP3    H217266   1.240   6.219   1.000
 5775TIP3   OH217267   5.834   4.114   6.218
 5775TIP3    H117268   5.927   4.091   6.221
 5775TIP3    H217269   5.791   4.036   6.185
 5776TIP3   OH217270   3.028   0.646   3.690
 5776TIP3    H117271   3.083   0.720   3.715
 5776TIP3    H217272   2.992   0.670   3.605
 5777TIP3   OH217273   4.872   3.286   5.612
 5777TIP3    H117274   4.877   3.279   5.517
 5777TIP3    H217275   4.879   3.195   5.643
 5778TIP3   OH217276   3.333   1.414   5.428
 5778TIP3    H117277   3.377   1.378   5.504
 5778TIP3    H217278   3.247   1.442   5.461
 5779TIP3   OH217279   0.414   5.555   3.027
 5779TIP3    H117280   0.461   5.592   3.102
 5779TIP3    H217281   0.404   5.629   2.967
 5780TIP3   OH217282   5.901   1.239   3.447
 5780TIP3    H117283   5.809   1.227   3.422
 5780TIP3    H217284   5.913   1.180   3.521
 5781TIP3   OH217285   3.168   5.589   2.954
 5781TIP3    H117286   3.182   5.509   2.904
 5781TIP3    H217287   3.232   5.584   3.026
 5782TIP3   OH217288   4.966   6.710   5.564
 5782TIP3    H117289   4.938   6.625   5.598
 5782TIP3    H217290   4.893   6.739   5.509
 5783TIP3   OH217291   0.497   1.066   3.894
 5783TIP3    H117292   0.477   0.987   3.944
 5783TIP3    H217293   0.593   1.072   3.895
 5784TIP3   OH217294   7.341   5.382   6.201
 5784TIP3    H117295   7.298   5.389   6.116
 5784TIP3    H217296   7.422   5.432   6.191
 5785TIP3   OH217297   3.887   7.411   2.892
 5785TIP3    H117298   3.802   7.441   2.858
 5785TIP3    H217299   3.917   7.482   2.949
 5786TIP3   OH217300   4.713   4.802   0.924
 5786TIP3    H117301   4.737   4.747   0.849
 5786TIP3    H217302   4.752   4.887   0.905
 5787TIP3   OH217303   2.263   3.579   6.590
 5787TIP3    H117304   2.249   3.498   6.640
 5787TIP3    H217305   2.336   3.622   6.635
 5788TIP3   OH217306   4.736   0.646   5.320
 5788TIP3    H117307   4.732   0.739   5.340
 5788TIP3    H217308   4.668   0.633   5.254
 5789TIP3   OH217309   6.964   5.392   2.489
 5789TIP3    H117310   6.971   5.465   2.428
 5789TIP3    H217311   6.965   5.433   2.576
 5790TIP3   OH217312   6.307   7.715   5.430
 5790TIP3    H117313   6.245   7.647   5.456
 5790TIP3    H217314   6.347   7.682   5.350
 5791TIP3   OH217315  -0.008   2.716   3.691
 5791TIP3    H117316   0.079   2.754   3.682
 5791TIP3    H217317  -0.042   2.754   3.772
 5792TIP3   OH217318   0.398   1.997   1.952
 5792TIP3    H117319   0.452   2.046   1.890
 5792TIP3    H217320   0.309   2.029   1.938
 5793TIP3   OH217321   4.712   2.121   4.552
 5793TIP3    H117322   4.674   2.035   4.533
 5793TIP3    H217323   4.648   2.164   4.609
 5794TIP3   OH217324   1.749   5.774   0.424
 5794TIP3    H117325   1.728   5.838   0.492
 5794TIP3    H217326   1.836   5.741   0.448
 5795TIP3   OH217327   4.595   1.327   3.892
 5795TIP3    H117328   4.520   1.318   3.833
 5795TIP3    H217329   4.639   1.407   3.862
 5796TIP3   OH217330   1.022   7.712   4.508
 5796TIP3    H117331   0.951   7.686   4.567
 5796TIP3    H217332   1.102   7.701   4.560
 5797TIP3   OH217333   5.140   2.152   3.421
 5797TIP3    H117334   5.082   2.142   3.346
 5797TIP3    H217335   5.082   2.177   3.493
 5798TIP3   OH217336   5.599   2.113   3.005
 5798TIP3    H117337   5.691   2.104   3.032
 5798TIP3    H217338   5.595   2.198   2.962
 5799TIP3   OH217339   7.024   6.912   4.646
 5799TIP3    H117340   7.068   6.858   4.580
 5799TIP3    H217341   6.949   6.949   4.599
 5800TIP3   OH217342   1.299   5.625   3.878
 5800TIP3    H117343   1.357   5.611   3.804
 5800TIP3    H217344   1.311   5.548   3.933
 5801TIP3   OH217345   1.468   4.992   3.610
 5801TIP3    H117346   1.514   4.914   3.640
 5801TIP3    H217347   1.438   5.036   3.690
 5802TIP3   OH217348   7.647   7.270   4.959
 5802TIP3    H117349   7.605   7.302   5.039
 5802TIP3    H217350   7.605   7.319   4.889
 5803TIP3   OH217351   5.919   4.094   2.297
 5803TIP3    H117352   5.879   4.104   2.384
 5803TIP3    H217353   6.013   4.095   2.314
 5804TIP3   OH217354   7.342   5.465   5.312
 5804TIP3    H117355   7.262   5.508   5.342
 5804TIP3    H217356   7.406   5.485   5.380
 5805TIP3   OH217357   7.471   5.461   4.029
 5805TIP3    H117358   7.458   5.418   3.944
 5805TIP3    H217359   7.565   5.477   4.033
 5806TIP3   OH217360   6.939   3.968   1.975
 5806TIP3    H117361   6.922   4.038   1.912
 5806TIP3    H217362   6.858   3.961   2.026
 5807TIP3   OH217363   4.955   0.771   5.801
 5807TIP3    H117364   4.873   0.723   5.792
 5807TIP3    H217365   4.929   0.863   5.804
 5808TIP3   OH217366   7.071   3.883   4.983
 5808TIP3    H117367   7.166   3.875   4.992
 5808TIP3    H217368   7.036   3.868   5.071
 5809TIP3   OH217369   2.210   1.395   4.230
 5809TIP3    H117370   2.143   1.434   4.286
 5809TIP3    H217371   2.212   1.303   4.255
 5810TIP3   OH217372   2.505   5.548   2.634
 5810TIP3    H117373   2.440   5.616   2.648
 5810TIP3    H217374   2.488   5.484   2.704
 5811TIP3   OH217375   0.380   7.339   2.314
 5811TIP3    H117376   0.335   7.255   2.302
 5811TIP3    H217377   0.320   7.404   2.277
 5812TIP3   OH217378   2.305   1.704   3.631
 5812TIP3    H117379   2.254   1.718   3.711
 5812TIP3    H217380   2.373   1.771   3.634
 5813TIP3   OH217381   3.507   1.622   4.336
 5813TIP3    H117382   3.573   1.605   4.269
 5813TIP3    H217383   3.451   1.544   4.335
 5814TIP3   OH217384   3.313   5.891   2.058
 5814TIP3    H117385   3.226   5.931   2.067
 5814TIP3    H217386   3.321   5.834   2.134
 5815TIP3   OH217387   7.753   6.445   6.699
 5815TIP3    H117388   7.663   6.438   6.667
 5815TIP3    H217389   7.802   6.382   6.647
 5816TIP3   OH217390   6.772   5.715   2.513
 5816TIP3    H117391   6.701   5.714   2.449
 5816TIP3    H217392   6.842   5.764   2.470
 5817TIP3   OH217393   5.737   5.484   4.304
 5817TIP3    H117394   5.830   5.463   4.312
 5817TIP3    H217395   5.735   5.575   4.276
 5818TIP3   OH217396   6.041   6.253   6.537
 5818TIP3    H117397   6.065   6.192   6.467
 5818TIP3    H217398   6.071   6.339   6.505
 5819TIP3   OH217399   1.920   5.550   3.062
 5819TIP3    H117400   1.936   5.549   2.968
 5819TIP3    H217401   1.939   5.640   3.089
 5820TIP3   OH217402   1.103   7.030   6.070
 5820TIP3    H117403   1.044   6.955   6.075
 5820TIP3    H217404   1.100   7.057   5.978
 5821TIP3   OH217405   4.082   2.260   2.451
 5821TIP3    H117406   4.064   2.347   2.414
 5821TIP3    H217407   3.996   2.221   2.462
 5822TIP3   OH217408   3.453   4.247   4.433
 5822TIP3    H117409   3.539   4.225   4.468
 5822TIP3    H217410   3.406   4.163   4.432
 5823TIP3   OH217411   3.053   2.274   0.418
 5823TIP3    H117412   2.988   2.259   0.487
 5823TIP3    H217413   3.052   2.194   0.366
 5824TIP3   OH217414   5.554   1.084   6.607
 5824TIP3    H117415   5.624   1.052   6.664
 5824TIP3    H217416   5.521   1.163   6.652
 5825TIP3   OH217417   4.974   6.751   1.075
 5825TIP3    H117418   5.001   6.661   1.059
 5825TIP3    H217419   5.043   6.788   1.130
 5826TIP3   OH217420   5.512   3.963   3.208
 5826TIP3    H117421   5.553   3.939   3.124
 5826TIP3    H217422   5.469   4.047   3.190
 5827TIP3   OH217423   4.934   4.178   1.392
 5827TIP3    H117424   4.947   4.271   1.371
 5827TIP3    H217425   4.970   4.131   1.317
 5828TIP3   OH217426   4.188   0.227   2.228
 5828TIP3    H117427   4.110   0.281   2.215
 5828TIP3    H217428   4.260   0.281   2.197
 5829TIP3   OH217429   7.279   4.177   0.418
 5829TIP3    H117430   7.213   4.137   0.475
 5829TIP3    H217431   7.362   4.164   0.465
 5830TIP3   OH217432   8.226   7.487   1.812
 5830TIP3    H117433   8.197   7.397   1.819
 5830TIP3    H217434   8.161   7.529   1.756
 5831TIP3   OH217435   5.606   2.433   4.273
 5831TIP3    H117436   5.597   2.415   4.367
 5831TIP3    H217437   5.589   2.527   4.265
 5832TIP3   OH217438   6.983   3.829   6.170
 5832TIP3    H117439   6.893   3.837   6.201
 5832TIP3    H217440   7.033   3.803   6.247
 5833TIP3   OH217441   2.472   1.329   6.533
 5833TIP3    H117442   2.476   1.325   6.438
 5833TIP3    H217443   2.524   1.407   6.556
 5834TIP3   OH217444   1.664   6.289   4.211
 5834TIP3    H117445   1.744   6.237   4.210
 5834TIP3    H217446   1.594   6.225   4.199
 5835TIP3   OH217447   3.834   4.529   2.699
 5835TIP3    H117448   3.830   4.571   2.613
 5835TIP3    H217449   3.927   4.521   2.717
 5836TIP3   OH217450   3.904   3.782   3.734
 5836TIP3    H117451   3.929   3.849   3.671
 5836TIP3    H217452   3.865   3.831   3.806
 5837TIP3   OH217453   1.340   0.529   2.662
 5837TIP3    H117454   1.315   0.575   2.582
 5837TIP3    H217455   1.329   0.594   2.732
 5838TIP3   OH217456   8.281   3.865   5.127
 5838TIP3    H117457   8.280   3.908   5.041
 5838TIP3    H217458   8.265   3.772   5.107
 5839TIP3   OH217459   6.151   0.055   1.085
 5839TIP3    H117460   6.159   0.116   1.159
 5839TIP3    H217461   6.065   0.014   1.097
 5840TIP3   OH217462   4.256   7.389   3.247
 5840TIP3    H117463   4.310   7.431   3.179
 5840TIP3    H217464   4.310   7.316   3.278
 5841TIP3   OH217465   4.677   2.600   4.576
 5841TIP3    H117466   4.731   2.534   4.533
 5841TIP3    H217467   4.671   2.570   4.667
 5842TIP3   OH217468   3.860   2.939   3.311
 5842TIP3    H117469   3.876   2.845   3.306
 5842TIP3    H217470   3.897   2.965   3.396
 5843TIP3   OH217471   8.153   3.851   2.412
 5843TIP3    H117472   8.077   3.907   2.426
 5843TIP3    H217473   8.188   3.837   2.500
 5844TIP3   OH217474   3.693   0.417   1.301
 5844TIP3    H117475   3.754   0.458   1.240
 5844TIP3    H217476   3.710   0.323   1.291
 5845TIP3   OH217477   8.142   1.091   4.077
 5845TIP3    H117478   8.167   1.028   4.009
 5845TIP3    H217479   8.200   1.071   4.151
 5846TIP3   OH217480   5.615   6.686   5.991
 5846TIP3    H117481   5.566   6.638   5.923
 5846TIP3    H217482   5.553   6.752   6.023
 5847TIP3   OH217483   5.539   6.703   1.193
 5847TIP3    H117484   5.631   6.675   1.188
 5847TIP3    H217485   5.540   6.794   1.165
 5848TIP3   OH217486   3.587   3.277   5.143
 5848TIP3    H117487   3.611   3.202   5.089
 5848TIP3    H217488   3.511   3.247   5.192
 5849TIP3   OH217489   7.120   0.494   6.737
 5849TIP3    H117490   7.061   0.569   6.748
 5849TIP3    H217491   7.088   0.451   6.658
 5850TIP3   OH217492   3.494   4.410   1.049
 5850TIP3    H117493   3.504   4.505   1.059
 5850TIP3    H217494   3.483   4.377   1.138
 5851TIP3   OH217495   0.647   5.596   5.967
 5851TIP3    H117496   0.666   5.567   6.056
 5851TIP3    H217497   0.560   5.635   5.972
 5852TIP3   OH217498   3.480   3.252   0.860
 5852TIP3    H117499   3.465   3.326   0.801
 5852TIP3    H217500   3.461   3.287   0.947
 5853TIP3   OH217501   2.529   3.594   4.136
 5853TIP3    H117502   2.551   3.539   4.060
 5853TIP3    H217503   2.580   3.674   4.123
 5854TIP3   OH217504   1.839   6.173   2.876
 5854TIP3    H117505   1.774   6.175   2.806
 5854TIP3    H217506   1.816   6.248   2.931
 5855TIP3   OH217507   0.383   6.633   0.782
 5855TIP3    H117508   0.354   6.562   0.725
 5855TIP3    H217509   0.478   6.630   0.778
 5856TIP3   OH217510   3.037   0.020   5.257
 5856TIP3    H117511   2.972   0.064   5.202
 5856TIP3    H217512   3.053   0.081   5.329
 5857TIP3   OH217513   5.954   3.266   0.878
 5857TIP3    H117514   5.888   3.237   0.941
 5857TIP3    H217515   6.031   3.286   0.932
 5858TIP3   OH217516   2.891   6.015   2.896
 5858TIP3    H117517   2.955   5.981   2.833
 5858TIP3    H217518   2.885   5.947   2.963
 5859TIP3   OH217519   8.217   1.414   5.093
 5859TIP3    H117520   8.245   1.502   5.070
 5859TIP3    H217521   8.126   1.409   5.063
 5860TIP3   OH217522   1.680   1.629   5.020
 5860TIP3    H117523   1.692   1.545   4.975
 5860TIP3    H217524   1.618   1.677   4.965
 5861TIP3   OH217525   8.075   2.666   5.068
 5861TIP3    H117526   8.087   2.614   5.147
 5861TIP3    H217527   8.150   2.726   5.067
 5862TIP3   OH217528   3.792   4.720   0.900
 5862TIP3    H117529   3.710   4.690   0.860
 5862TIP3    H217530   3.773   4.810   0.928
 5863TIP3   OH217531   5.895   3.697   5.917
 5863TIP3    H117532   5.843   3.648   5.853
 5863TIP3    H217533   5.964   3.738   5.865
 5864TIP3   OH217534   1.339   3.799   4.232
 5864TIP3    H117535   1.420   3.847   4.251
 5864TIP3    H217536   1.271   3.851   4.274
 5865TIP3   OH217537   4.752   1.486   1.971
 5865TIP3    H117538   4.803   1.492   2.052
 5865TIP3    H217539   4.785   1.407   1.928
 5866TIP3   OH217540   6.933   3.360   0.977
 5866TIP3    H117541   7.003   3.299   0.956
 5866TIP3    H217542   6.854   3.306   0.984
 5867TIP3   OH217543   7.158   6.016   3.205
 5867TIP3    H117544   7.209   5.998   3.284
 5867TIP3    H217545   7.067   6.009   3.233
 5868TIP3   OH217546   5.549   5.843   5.292
 5868TIP3    H117547   5.473   5.790   5.271
 5868TIP3    H217548   5.597   5.852   5.210
 5869TIP3   OH217549   3.334   4.200   0.063
 5869TIP3    H117550   3.419   4.229   0.029
 5869TIP3    H217551   3.316   4.260   0.136
 5870TIP3   OH217552   5.193   3.960   3.388
 5870TIP3    H117553   5.243   3.921   3.460
 5870TIP3    H217554   5.244   4.037   3.362
 5871TIP3   OH217555   7.994   1.661   4.930
 5871TIP3    H117556   7.916   1.713   4.910
 5871TIP3    H217557   7.961   1.581   4.971
 5872TIP3   OH217558   1.205   5.057   1.607
 5872TIP3    H117559   1.206   5.152   1.608
 5872TIP3    H217560   1.114   5.033   1.620
 5873TIP3   OH217561   4.393   3.409   2.644
 5873TIP3    H117562   4.421   3.355   2.717
 5873TIP3    H217563   4.323   3.359   2.602
 5874TIP3   OH217564   7.257   6.325   6.364
 5874TIP3    H117565   7.275   6.407   6.408
 5874TIP3    H217566   7.337   6.274   6.373
 5875TIP3   OH217567   6.940   5.164   3.904
 5875TIP3    H117568   7.028   5.136   3.881
 5875TIP3    H217569   6.921   5.120   3.987
 5876TIP3   OH217570   6.169   5.644   1.666
 5876TIP3    H117571   6.165   5.707   1.738
 5876TIP3    H217572   6.082   5.605   1.662
 5877TIP3   OH217573   7.450   7.285   5.757
 5877TIP3    H117574   7.401   7.218   5.805
 5877TIP3    H217575   7.396   7.364   5.763
 5878TIP3   OH217576   6.089   5.378   5.651
 5878TIP3    H117577   6.160   5.319   5.676
 5878TIP3    H217578   6.026   5.322   5.605
 5879TIP3   OH217579   2.653   5.933   2.787
 5879TIP3    H117580   2.615   6.003   2.734
 5879TIP3    H217581   2.737   5.969   2.817
 5880TIP3   OH217582   2.323   1.522   5.218
 5880TIP3    H117583   2.247   1.467   5.237
 5880TIP3    H217584   2.397   1.471   5.249
 5881TIP3   OH217585   6.074   4.386   6.525
 5881TIP3    H117586   6.131   4.463   6.520
 5881TIP3    H217587   6.107   4.327   6.457
 5882TIP3   OH217588   4.362   6.140   4.599
 5882TIP3    H117589   4.320   6.054   4.606
 5882TIP3    H217590   4.380   6.165   4.690
 5883TIP3   OH217591   4.521   5.137   5.468
 5883TIP3    H117592   4.466   5.132   5.545
 5883TIP3    H217593   4.505   5.055   5.421
 5884TIP3   OH217594   5.884   7.460   3.528
 5884TIP3    H117595   5.927   7.450   3.443
 5884TIP3    H217596   5.955   7.445   3.592
 5885TIP3   OH217597   3.102   2.478   1.967
 5885TIP3    H117598   3.040   2.519   1.907
 5885TIP3    H217599   3.170   2.543   1.979
 5886TIP3   OH217600   5.721   6.971   5.970
 5886TIP3    H117601   5.716   7.065   5.954
 5886TIP3    H217602   5.791   6.941   5.912
 5887TIP3   OH217603   1.238   5.075   4.958
 5887TIP3    H117604   1.174   5.037   5.018
 5887TIP3    H217605   1.320   5.032   4.980
 5888TIP3   OH217606   2.052   3.624   2.472
 5888TIP3    H117607   1.985   3.569   2.430
 5888TIP3    H217608   2.009   3.658   2.551
 5889TIP3   OH217609   1.864   2.106   2.878
 5889TIP3    H117610   1.880   2.196   2.852
 5889TIP3    H217611   1.768   2.099   2.883
 5890TIP3   OH217612   7.221   0.357   4.481
 5890TIP3    H117613   7.281   0.403   4.423
 5890TIP3    H217614   7.149   0.419   4.495
 5891TIP3   OH217615   6.630   1.508   0.753
 5891TIP3    H117616   6.654   1.524   0.845
 5891TIP3    H217617   6.706   1.462   0.716
 5892TIP3   OH217618   7.278   3.925   4.715
 5892TIP3    H117619   7.212   3.937   4.647
 5892TIP3    H217620   7.259   3.995   4.778
 5893TIP3   OH217621   1.387   7.173   3.612
 5893TIP3    H117622   1.446   7.190   3.539
 5893TIP3    H217623   1.430   7.105   3.663
 5894TIP3   OH217624   5.666   1.324   1.124
 5894TIP3    H117625   5.582   1.370   1.123
 5894TIP3    H217626   5.693   1.321   1.032
 5895TIP3   OH217627   3.469   2.760   1.891
 5895TIP3    H117628   3.391   2.734   1.939
 5895TIP3    H217629   3.476   2.855   1.906
 5896TIP3   OH217630   3.797   1.605   1.506
 5896TIP3    H117631   3.806   1.679   1.445
 5896TIP3    H217632   3.704   1.583   1.503
 5897TIP3   OH217633   1.867   2.626   2.734
 5897TIP3    H117634   1.906   2.711   2.756
 5897TIP3    H217635   1.773   2.640   2.747
 5898TIP3   OH217636   5.174   6.454   6.035
 5898TIP3    H117637   5.084   6.424   6.043
 5898TIP3    H217638   5.218   6.417   6.112
 5899TIP3   OH217639   6.097   0.781   0.235
 5899TIP3    H117640   6.191   0.798   0.241
 5899TIP3    H217641   6.067   0.779   0.326
 5900TIP3   OH217642   3.766   6.332   5.940
 5900TIP3    H117643   3.679   6.292   5.940
 5900TIP3    H217644   3.808   6.297   6.018
 5901TIP3   OH217645   5.842   2.377   0.169
 5901TIP3    H117646   5.825   2.297   0.119
 5901TIP3    H217647   5.907   2.424   0.117
 5902TIP3   OH217648   6.973   0.641   3.554
 5902TIP3    H117649   6.953   0.684   3.471
 5902TIP3    H217650   6.988   0.712   3.616
 5903TIP3   OH217651   3.673   1.224   6.542
 5903TIP3    H117652   3.597   1.209   6.598
 5903TIP3    H217653   3.642   1.286   6.476
 5904TIP3   OH217654   7.511   2.488   1.543
 5904TIP3    H117655   7.447   2.498   1.614
 5904TIP3    H217656   7.556   2.406   1.564
 5905TIP3   OH217657   5.580   5.676   5.543
 5905TIP3    H117658   5.662   5.632   5.521
 5905TIP3    H217659   5.583   5.758   5.494
 5906TIP3   OH217660   3.242   4.647   6.272
 5906TIP3    H117661   3.272   4.586   6.206
 5906TIP3    H217662   3.214   4.724   6.223
 5907TIP3   OH217663   5.819   1.821   1.424
 5907TIP3    H117664   5.753   1.854   1.362
 5907TIP3    H217665   5.899   1.868   1.402
 5908TIP3   OH217666   5.839   2.655   5.470
 5908TIP3    H117667   5.927   2.662   5.505
 5908TIP3    H217668   5.847   2.677   5.378
 5909TIP3   OH217669   5.145   5.628   6.540
 5909TIP3    H117670   5.124   5.688   6.611
 5909TIP3    H217671   5.111   5.543   6.570
 5910TIP3   OH217672   0.400   6.297   1.950
 5910TIP3    H117673   0.384   6.208   1.919
 5910TIP3    H217674   0.472   6.287   2.013
 5911TIP3   OH217675   1.611   5.817   4.807
 5911TIP3    H117676   1.641   5.768   4.731
 5911TIP3    H217677   1.668   5.894   4.810
 5912TIP3   OH217678   4.820  -0.021   4.662
 5912TIP3    H117679   4.728  -0.044   4.654
 5912TIP3    H217680   4.820   0.063   4.709
 5913TIP3   OH217681   3.666   3.357   2.343
 5913TIP3    H117682   3.593   3.415   2.321
 5913TIP3    H217683   3.644   3.322   2.429
 5914TIP3   OH217684   0.444   6.043   3.726
 5914TIP3    H117685   0.374   6.023   3.789
 5914TIP3    H217686   0.412   6.007   3.643
 5915TIP3   OH217687   5.078   4.308   2.114
 5915TIP3    H117688   5.043   4.241   2.055
 5915TIP3    H217689   5.008   4.324   2.176
 5916TIP3   OH217690   1.114   2.068   1.980
 5916TIP3    H117691   1.201   2.106   1.966
 5916TIP3    H217692   1.054   2.135   1.950
 5917TIP3   OH217693   5.205   5.610   3.653
 5917TIP3    H117694   5.218   5.610   3.558
 5917TIP3    H217695   5.289   5.637   3.689
 5918TIP3   OH217696   3.351   4.158   1.639
 5918TIP3    H117697   3.270   4.128   1.680
 5918TIP3    H217698   3.420   4.108   1.682
 5919TIP3   OH217699   0.903   7.776   0.877
 5919TIP3    H117700   0.998   7.769   0.878
 5919TIP3    H217701   0.872   7.686   0.863
 5920TIP3   OH217702   7.887   6.898   6.646
 5920TIP3    H117703   7.953   6.950   6.692
 5920TIP3    H217704   7.923   6.810   6.644
 5921TIP3   OH217705   0.956   5.597   1.959
 5921TIP3    H117706   1.008   5.634   2.030
 5921TIP3    H217707   0.983   5.505   1.955
 5922TIP3   OH217708   7.090   1.301   2.407
 5922TIP3    H117709   7.103   1.395   2.399
 5922TIP3    H217710   7.178   1.264   2.406
 5923TIP3   OH217711   4.246   4.853   0.262
 5923TIP3    H117712   4.330   4.869   0.304
 5923TIP3    H217713   4.228   4.760   0.278
 5924TIP3   OH217714   1.884   6.255   1.416
 5924TIP3    H117715   1.878   6.334   1.471
 5924TIP3    H217716   1.967   6.215   1.441
 5925TIP3   OH217717   3.927   1.603   2.189
 5925TIP3    H117718   3.862   1.603   2.120
 5925TIP3    H217719   3.979   1.682   2.174
 5926TIP3   OH217720   7.562   0.185   5.865
 5926TIP3    H117721   7.536   0.273   5.838
 5926TIP3    H217722   7.657   0.190   5.876
 5927TIP3   OH217723   8.050   3.796   0.928
 5927TIP3    H117724   8.080   3.845   0.852
 5927TIP3    H217725   8.115   3.726   0.938
 5928TIP3   OH217726   0.294   0.827   4.477
 5928TIP3    H117727   0.376   0.814   4.430
 5928TIP3    H217728   0.288   0.922   4.491
 5929TIP3   OH217729   6.737   7.285   5.617
 5929TIP3    H117730   6.713   7.225   5.547
 5929TIP3    H217731   6.655   7.308   5.659
 5930TIP3   OH217732   7.697   3.179   4.419
 5930TIP3    H117733   7.775   3.143   4.461
 5930TIP3    H217734   7.728   3.215   4.336
 5931TIP3   OH217735   5.504   4.599   6.507
 5931TIP3    H117736   5.410   4.611   6.517
 5931TIP3    H217737   5.518   4.507   6.529
 5932TIP3   OH217738   1.482   3.576   3.721
 5932TIP3    H117739   1.469   3.559   3.814
 5932TIP3    H217740   1.507   3.668   3.717
 5933TIP3   OH217741   3.636   3.970   6.376
 5933TIP3    H117742   3.559   4.027   6.375
 5933TIP3    H217743   3.706   4.024   6.414
 5934TIP3   OH217744   5.406   3.174   6.252
 5934TIP3    H117745   5.456   3.122   6.314
 5934TIP3    H217746   5.340   3.218   6.305
 5935TIP3   OH217747   0.984   1.157   4.426
 5935TIP3    H117748   0.969   1.251   4.416
 5935TIP3    H217749   0.949   1.137   4.513
 5936TIP3   OH217750   4.696   6.103   4.546
 5936TIP3    H117751   4.727   6.039   4.609
 5936TIP3    H217752   4.606   6.079   4.528
 5937TIP3   OH217753   0.225   1.457   1.181
 5937TIP3    H117754   0.151   1.445   1.241
 5937TIP3    H217755   0.224   1.380   1.125
 5938TIP3   OH217756   5.648   3.985   4.333
 5938TIP3    H117757   5.596   3.978   4.413
 5938TIP3    H217758   5.694   3.900   4.327
 5939TIP3   OH217759   0.352   7.687   3.840
 5939TIP3    H117760   0.431   7.667   3.890
 5939TIP3    H217761   0.384   7.713   3.754
 5940TIP3   OH217762   4.159   3.081   5.576
 5940TIP3    H117763   4.156   3.122   5.662
 5940TIP3    H217764   4.071   3.096   5.539
 5941TIP3   OH217765   7.252   7.344   1.910
 5941TIP3    H117766   7.344   7.321   1.919
 5941TIP3    H217767   7.229   7.316   1.821
 5942TIP3   OH217768   2.881   0.150   3.145
 5942TIP3    H117769   2.859   0.076   3.088
 5942TIP3    H217770   2.974   0.139   3.164
 5943TIP3   OH217771   5.282   3.236   6.743
 5943TIP3    H117772   5.342   3.307   6.722
 5943TIP3    H217773   5.305   3.209   6.832
 5944TIP3   OH217774   7.223   2.552   5.870
 5944TIP3    H117775   7.131   2.578   5.869
 5944TIP3    H217776   7.221   2.456   5.868
 5945TIP3   OH217777   0.182   3.329   4.177
 5945TIP3    H117778   0.112   3.265   4.164
 5945TIP3    H217779   0.254   3.278   4.215
 5946TIP3   OH217780   2.817   2.630   0.217
 5946TIP3    H117781   2.829   2.641   0.311
 5946TIP3    H217782   2.755   2.558   0.208
 5947TIP3   OH217783   2.247   7.615   1.217
 5947TIP3    H117784   2.170   7.659   1.181
 5947TIP3    H217785   2.281   7.562   1.145
 5948TIP3   OH217786   4.382   4.116   1.320
 5948TIP3    H117787   4.476   4.129   1.304
 5948TIP3    H217788   4.377   4.042   1.380
 5949TIP3   OH217789   2.596   5.995   2.088
 5949TIP3    H117790   2.632   6.038   2.011
 5949TIP3    H217791   2.528   6.054   2.120
 5950TIP3   OH217792   5.740   3.891   2.258
 5950TIP3    H117793   5.817   3.947   2.249
 5950TIP3    H217794   5.685   3.935   2.323
 5951TIP3   OH217795   2.689   7.337   3.325
 5951TIP3    H117796   2.694   7.280   3.248
 5951TIP3    H217797   2.756   7.302   3.384
 5952TIP3   OH217798   3.463   4.489   2.863
 5952TIP3    H117799   3.498   4.450   2.943
 5952TIP3    H217800   3.375   4.519   2.887
 5953TIP3   OH217801   3.493   1.711   5.683
 5953TIP3    H117802   3.550   1.664   5.744
 5953TIP3    H217803   3.405   1.682   5.705
 5954TIP3   OH217804   4.198   4.815   2.827
 5954TIP3    H117805   4.248   4.761   2.889
 5954TIP3    H217806   4.265   4.860   2.776
 5955TIP3   OH217807   5.288   6.831   3.973
 5955TIP3    H117808   5.379   6.860   3.973
 5955TIP3    H217809   5.290   6.742   4.006
 5956TIP3   OH217810   5.031   3.827   3.161
 5956TIP3    H117811   4.966   3.894   3.142
 5956TIP3    H217812   5.095   3.870   3.218
 5957TIP3   OH217813   7.895   4.074   4.840
 5957TIP3    H117814   7.908   3.997   4.895
 5957TIP3    H217815   7.967   4.072   4.778
 5958TIP3   OH217816   0.207   3.627   3.544
 5958TIP3    H117817   0.151   3.560   3.505
 5958TIP3    H217818   0.152   3.706   3.545
 5959TIP3   OH217819   7.327   5.279   0.224
 5959TIP3    H117820   7.322   5.363   0.269
 5959TIP3    H217821   7.292   5.297   0.137
 5960TIP3   OH217822   2.729   5.241   2.158
 5960TIP3    H117823   2.721   5.158   2.110
 5960TIP3    H217824   2.715   5.308   2.091
 5961TIP3   OH217825   6.225   0.856   3.936
 5961TIP3    H117826   6.203   0.908   3.859
 5961TIP3    H217827   6.141   0.831   3.973
 5962TIP3   OH217828   3.655   3.772   2.639
 5962TIP3    H117829   3.690   3.848   2.591
 5962TIP3    H217830   3.583   3.808   2.691
 5963TIP3   OH217831   1.410   1.090   1.721
 5963TIP3    H117832   1.373   1.081   1.634
 5963TIP3    H217833   1.379   1.174   1.753
 5964TIP3   OH217834   2.134   1.480   4.798
 5964TIP3    H117835   2.207   1.513   4.852
 5964TIP3    H217836   2.163   1.393   4.772
 5965TIP3   OH217837   2.847   6.585   2.563
 5965TIP3    H117838   2.862   6.499   2.602
 5965TIP3    H217839   2.857   6.647   2.636
 5966TIP3   OH217840   1.913   6.102   0.457
 5966TIP3    H117841   1.890   6.017   0.421
 5966TIP3    H217842   1.983   6.134   0.399
 5967TIP3   OH217843   5.178   6.509   2.298
 5967TIP3    H117844   5.085   6.488   2.297
 5967TIP3    H217845   5.195   6.547   2.212
 5968TIP3   OH217846   5.994   5.799   3.423
 5968TIP3    H117847   5.918   5.849   3.453
 5968TIP3    H217848   6.025   5.846   3.346
 5969TIP3   OH217849   2.557   4.339   5.845
 5969TIP3    H117850   2.503   4.312   5.920
 5969TIP3    H217851   2.627   4.275   5.842
 5970TIP3   OH217852   0.893   5.654   1.688
 5970TIP3    H117853   0.924   5.613   1.768
 5970TIP3    H217854   0.807   5.690   1.711
 5971TIP3   OH217855   0.932   4.457   3.444
 5971TIP3    H117856   0.874   4.391   3.407
 5971TIP3    H217857   0.965   4.505   3.368
 5972TIP3   OH217858   2.214   0.669   5.466
 5972TIP3    H117859   2.146   0.617   5.424
 5972TIP3    H217860   2.231   0.623   5.549
 5973TIP3   OH217861   0.657   4.489   0.588
 5973TIP3    H117862   0.644   4.521   0.678
 5973TIP3    H217863   0.701   4.405   0.600
 5974TIP3   OH217864   5.280   2.403   2.216
 5974TIP3    H117865   5.186   2.399   2.200
 5974TIP3    H217866   5.290   2.368   2.305
 5975TIP3   OH217867   5.405   7.091   5.228
 5975TIP3    H117868   5.458   7.131   5.297
 5975TIP3    H217869   5.370   7.012   5.268
 5976TIP3   OH217870   1.463   6.216   5.557
 5976TIP3    H117871   1.404   6.156   5.513
 5976TIP3    H217872   1.550   6.178   5.546
 5977TIP3   OH217873   7.450   5.334   5.621
 5977TIP3    H117874   7.471   5.351   5.713
 5977TIP3    H217875   7.494   5.404   5.573
 5978TIP3   OH217876   5.034   1.287   6.070
 5978TIP3    H117877   5.053   1.327   5.986
 5978TIP3    H217878   5.083   1.205   6.070
 5979TIP3   OH217879   4.606   1.162   6.745
 5979TIP3    H117880   4.682   1.128   6.698
 5979TIP3    H217881   4.543   1.183   6.676
 5980TIP3   OH217882   4.111   4.470   2.367
 5980TIP3    H117883   4.074   4.533   2.304
 5980TIP3    H217884   4.117   4.388   2.319
 5981TIP3   OH217885   3.292   3.335   4.813
 5981TIP3    H117886   3.251   3.258   4.772
 5981TIP3    H217887   3.385   3.327   4.791
 5982TIP3   OH217888   2.318   1.625   4.957
 5982TIP3    H117889   2.343   1.716   4.943
 5982TIP3    H217890   2.323   1.613   5.051
 5983TIP3   OH217891   2.128   2.201   5.236
 5983TIP3    H117892   2.200   2.174   5.294
 5983TIP3    H217893   2.062   2.237   5.295
 5984TIP3   OH217894   1.696   2.193   0.517
 5984TIP3    H117895   1.680   2.116   0.571
 5984TIP3    H217896   1.661   2.170   0.431
 5985TIP3   OH217897   0.053   6.056   6.404
 5985TIP3    H117898   0.026   6.111   6.330
 5985TIP3    H217899   0.147   6.043   6.392
 5986TIP3   OH217900   4.693   2.271   5.582
 5986TIP3    H117901   4.771   2.307   5.624
 5986TIP3    H217902   4.636   2.346   5.570
 5987TIP3   OH217903   7.716   0.184   5.496
 5987TIP3    H117904   7.810   0.184   5.476
 5987TIP3    H217905   7.689   0.093   5.484
 5988TIP3   OH217906   4.911   3.501   1.974
 5988TIP3    H117907   4.927   3.465   2.062
 5988TIP3    H217908   4.993   3.488   1.927
 5989TIP3   OH217909   8.019   7.383   2.466
 5989TIP3    H117910   7.966   7.310   2.434
 5989TIP3    H217911   7.988   7.398   2.556
 5990TIP3   OH217912   0.579   2.787   3.316
 5990TIP3    H117913   0.672   2.793   3.293
 5990TIP3    H217914   0.533   2.791   3.233
 5991TIP3   OH217915   5.823   6.605   1.616
 5991TIP3    H117916   5.888   6.616   1.686
 5991TIP3    H217917   5.762   6.540   1.650
 5992TIP3   OH217918   4.277   4.578   1.418
 5992TIP3    H117919   4.298   4.668   1.396
 5992TIP3    H217920   4.347   4.526   1.378
 5993TIP3   OH217921   0.752   5.479   6.206
 5993TIP3    H117922   0.815   5.438   6.147
 5993TIP3    H217923   0.738   5.415   6.275
 5994TIP3   OH217924   0.920   6.002   4.220
 5994TIP3    H117925   0.911   6.077   4.280
 5994TIP3    H217926   1.007   6.013   4.181
 5995TIP3   OH217927   3.676   1.169   5.063
 5995TIP3    H117928   3.587   1.194   5.088
 5995TIP3    H217929   3.667   1.083   5.023
 5996TIP3   OH217930   0.716   6.879   5.788
 5996TIP3    H117931   0.713   6.870   5.693
 5996TIP3    H217932   0.787   6.821   5.816
 5997TIP3   OH217933   2.785   0.101   1.860
 5997TIP3    H117934   2.748   0.113   1.947
 5997TIP3    H217935   2.869   0.058   1.874
 5998TIP3   OH217936   0.513   2.474   3.833
 5998TIP3    H117937   0.419   2.480   3.817
 5998TIP3    H217938   0.545   2.412   3.768
 5999TIP3   OH217939   6.919   4.201   4.436
 5999TIP3    H117940   6.888   4.261   4.367
 5999TIP3    H217941   6.839   4.164   4.474
 6000TIP3   OH217942   7.231   4.488   0.939
 6000TIP3    H117943   7.287   4.417   0.970
 6000TIP3    H217944   7.249   4.561   0.998
 6001TIP3   OH217945   3.841   0.693   6.636
 6001TIP3    H117946   3.935   0.673   6.642
 6001TIP3    H217947   3.837   0.788   6.643
 6002TIP3   OH217948   0.693   6.013   4.664
 6002TIP3    H117949   0.635   6.055   4.601
 6002TIP3    H217950   0.757   5.966   4.610
 6003TIP3   OH217951   1.096   6.118   1.899
 6003TIP3    H117952   1.098   6.099   1.993
 6003TIP3    H217953   1.188   6.122   1.874
 6004TIP3   OH217954   6.637   4.819   3.734
 6004TIP3    H117955   6.654   4.807   3.641
 6004TIP3    H217956   6.584   4.743   3.759
 6005TIP3   OH217957   2.591   5.998   3.735
 6005TIP3    H117958   2.532   5.981   3.661
 6005TIP3    H217959   2.607   5.911   3.772
 6006TIP3   OH217960   8.130   2.116   1.634
 6006TIP3    H117961   8.214   2.102   1.677
 6006TIP3    H217962   8.080   2.036   1.652
 6007TIP3   OH217963   6.590   7.102   0.015
 6007TIP3    H117964   6.558   7.158  -0.056
 6007TIP3    H217965   6.519   7.103   0.079
 6008TIP3   OH217966   6.336   3.237   3.799
 6008TIP3    H117967   6.344   3.331   3.817
 6008TIP3    H217968   6.307   3.233   3.708
 6009TIP3   OH217969   3.068   6.897   1.957
 6009TIP3    H117970   3.132   6.923   1.890
 6009TIP3    H217971   3.040   6.980   1.996
 6010TIP3   OH217972   4.960   3.120   3.910
 6010TIP3    H117973   4.993   3.037   3.944
 6010TIP3    H217974   4.932   3.100   3.821
 6011TIP3   OH217975   1.952   3.324   3.144
 6011TIP3    H117976   2.030   3.278   3.113
 6011TIP3    H217977   1.915   3.366   3.066
 6012TIP3   OH217978   6.325   7.704   5.012
 6012TIP3    H117979   6.377   7.766   5.063
 6012TIP3    H217980   6.384   7.673   4.944
 6013TIP3   OH217981   3.188   4.596   1.024
 6013TIP3    H117982   3.210   4.507   0.996
 6013TIP3    H217983   3.163   4.641   0.944
 6014TIP3   OH217984   6.630   3.827   0.238
 6014TIP3    H117985   6.644   3.911   0.283
 6014TIP3    H217986   6.536   3.813   0.241
 6015TIP3   OH217987   5.425   1.370   2.326
 6015TIP3    H117988   5.502   1.339   2.277
 6015TIP3    H217989   5.373   1.417   2.261
 6016TIP3   OH217990   2.758   0.885   4.907
 6016TIP3    H117991   2.853   0.872   4.909
 6016TIP3    H217992   2.746   0.966   4.858
 6017TIP3   OH217993   6.671   0.186   1.014
 6017TIP3    H117994   6.654   0.108   1.066
 6017TIP3    H217995   6.711   0.153   0.934
 6018TIP3   OH217996   0.915   5.555   4.627
 6018TIP3    H117997   0.912   5.638   4.674
 6018TIP3    H217998   0.938   5.490   4.694
 6019TIP3   OH217999   3.995   1.815   5.906
 6019TIP3    H118000   3.957   1.787   5.822
 6019TIP3    H218001   3.922   1.856   5.952
 6020TIP3   OH218002   7.972   5.014   0.806
 6020TIP3    H118003   7.905   4.948   0.790
 6020TIP3    H218004   8.045   4.988   0.749
 6021TIP3   OH218005   4.356   3.964   5.645
 6021TIP3    H118006   4.335   4.026   5.576
 6021TIP3    H218007   4.442   3.993   5.678
 6022TIP3   OH218008   5.314   5.014   5.912
 6022TIP3    H118009   5.378   4.957   5.955
 6022TIP3    H218010   5.304   5.088   5.971
 6023TIP3   OH218011   5.187   4.786   1.576
 6023TIP3    H118012   5.221   4.776   1.488
 6023TIP3    H218013   5.264   4.783   1.633
 6024TIP3   OH218014   0.137   5.383   5.066
 6024TIP3    H118015   0.159   5.401   4.975
 6024TIP3    H218016   0.144   5.468   5.110
 6025TIP3   OH218017   1.903   6.485   1.549
 6025TIP3    H118018   1.945   6.534   1.478
 6025TIP3    H218019   1.906   6.545   1.624
 6026TIP3   OH218020   0.445   7.175   1.332
 6026TIP3    H118021   0.436   7.230   1.255
 6026TIP3    H218022   0.508   7.220   1.388
 6027TIP3   OH218023   5.524   0.290   3.630
 6027TIP3    H118024   5.503   0.217   3.688
 6027TIP3    H218025   5.547   0.362   3.690
 6028TIP3   OH218026   4.951   6.254   0.205
 6028TIP3    H118027   5.036   6.218   0.230
 6028TIP3    H218028   4.890   6.181   0.214
 6029TIP3   OH218029   5.154   3.337   2.622
 6029TIP3    H118030   5.127   3.301   2.706
 6029TIP3    H218031   5.249   3.348   2.630
 6030TIP3   OH218032   2.841   4.510   5.717
 6030TIP3    H118033   2.920   4.559   5.739
 6030TIP3    H218034   2.778   4.534   5.785
 6031TIP3   OH218035   3.953   3.352   0.117
 6031TIP3    H118036   3.991   3.315   0.197
 6031TIP3    H218037   3.997   3.437   0.106
 6032TIP3   OH218038   7.034   1.059   0.244
 6032TIP3    H118039   6.953   1.028   0.285
 6032TIP3    H218040   7.093   1.076   0.317
 6033TIP3   OH218041   1.425   5.405   2.351
 6033TIP3    H118042   1.450   5.332   2.408
 6033TIP3    H218043   1.470   5.387   2.269
 6034TIP3   OH218044   2.135   6.340   0.917
 6034TIP3    H118045   2.227   6.365   0.908
 6034TIP3    H218046   2.104   6.328   0.827
 6035TIP3   OH218047   3.948   6.629   2.576
 6035TIP3    H118048   3.930   6.670   2.660
 6035TIP3    H218049   3.867   6.584   2.554
 6036TIP3   OH218050   3.999   2.614   0.657
 6036TIP3    H118051   3.939   2.668   0.709
 6036TIP3    H218052   3.996   2.528   0.698
 6037TIP3   OH218053   3.027   7.008   5.936
 6037TIP3    H118054   3.052   7.063   6.010
 6037TIP3    H218055   3.065   7.051   5.860
 6038TIP3   OH218056   4.109   6.204   5.488
 6038TIP3    H118057   4.147   6.287   5.461
 6038TIP3    H218058   4.178   6.140   5.475
 6039TIP3   OH218059   1.608   6.627   1.387
 6039TIP3    H118060   1.533   6.635   1.329
 6039TIP3    H218061   1.610   6.534   1.410
 6040TIP3   OH218062   6.768   1.091   3.392
 6040TIP3    H118063   6.774   1.069   3.485
 6040TIP3    H218064   6.778   1.007   3.347
 6041TIP3   OH218065   1.198   3.839   5.003
 6041TIP3    H118066   1.135   3.910   5.009
 6041TIP3    H218067   1.248   3.843   5.084
 6042TIP3   OH218068   0.650   1.651   0.577
 6042TIP3    H118069   0.599   1.711   0.524
 6042TIP3    H218070   0.586   1.595   0.621
 6043TIP3   OH218071   1.988   5.663   6.209
 6043TIP3    H118072   1.938   5.676   6.289
 6043TIP3    H218073   2.035   5.745   6.196
 6044TIP3   OH218074   7.078   4.941   6.172
 6044TIP3    H118075   7.010   4.978   6.115
 6044TIP3    H218076   7.124   4.878   6.117
 6045TIP3   OH218077   5.220   4.161   4.262
 6045TIP3    H118078   5.170   4.183   4.183
 6045TIP3    H218079   5.170   4.200   4.334
 6046TIP3   OH218080   5.774   1.585   5.492
 6046TIP3    H118081   5.843   1.554   5.433
 6046TIP3    H218082   5.822   1.632   5.561
 6047TIP3   OH218083   6.433   2.289   0.499
 6047TIP3    H118084   6.515   2.323   0.535
 6047TIP3    H218085   6.366   2.351   0.526
 6048TIP3   OH218086   6.650   3.652   5.102
 6048TIP3    H118087   6.714   3.585   5.127
 6048TIP3    H218088   6.701   3.733   5.099
 6049TIP3   OH218089   3.395   5.204   4.589
 6049TIP3    H118090   3.424   5.169   4.674
 6049TIP3    H218091   3.327   5.268   4.612
 6050TIP3   OH218092   1.617   4.937   5.379
 6050TIP3    H118093   1.585   4.847   5.382
 6050TIP3    H218094   1.633   4.960   5.470
 6051TIP3   OH218095   1.214   5.369   2.149
 6051TIP3    H118096   1.281   5.375   2.081
 6051TIP3    H218097   1.237   5.289   2.197
 6052TIP3   OH218098   5.092   1.144   0.626
 6052TIP3    H118099   5.025   1.080   0.602
 6052TIP3    H218100   5.175   1.098   0.612
 6053TIP3   OH218101   0.342   3.084   3.701
 6053TIP3    H118102   0.400   3.053   3.632
 6053TIP3    H218103   0.266   3.120   3.655
 6054TIP3   OH218104   6.034   3.790   5.702
 6054TIP3    H118105   6.066   3.880   5.703
 6054TIP3    H218106   6.010   3.774   5.610
 6055TIP3   OH218107   1.533   3.475   6.054
 6055TIP3    H118108   1.548   3.569   6.038
 6055TIP3    H218109   1.467   3.473   6.123
 6056TIP3   OH218110   1.317   5.114   0.863
 6056TIP3    H118111   1.406   5.135   0.891
 6056TIP3    H218112   1.280   5.064   0.936
 6057TIP3   OH218113   0.130   2.645   5.181
 6057TIP3    H118114   0.060   2.638   5.246
 6057TIP3    H218115   0.099   2.714   5.121
 6058TIP3   OH218116   2.748   4.445   2.974
 6058TIP3    H118117   2.843   4.441   2.982
 6058TIP3    H218118   2.716   4.370   3.024
 6059TIP3   OH218119   3.392   0.103   2.646
 6059TIP3    H118120   3.456   0.044   2.607
 6059TIP3    H218121   3.356   0.152   2.572
 6060TIP3   OH218122   5.440   6.056   5.696
 6060TIP3    H118123   5.530   6.089   5.703
 6060TIP3    H218124   5.442   5.970   5.738
 6061TIP3   OH218125   7.966   0.524   0.295
 6061TIP3    H118126   7.999   0.570   0.372
 6061TIP3    H218127   7.965   0.432   0.322
 6062TIP3   OH218128   1.733   7.467   1.738
 6062TIP3    H118129   1.787   7.495   1.812
 6062TIP3    H218130   1.761   7.377   1.720
 6063TIP3   OH218131   6.038   1.152   1.361
 6063TIP3    H118132   6.023   1.112   1.275
 6063TIP3    H218133   6.018   1.082   1.424
 6064TIP3   OH218134   6.671   6.253   2.499
 6064TIP3    H118135   6.766   6.264   2.492
 6064TIP3    H218136   6.659   6.183   2.562
 6065TIP3   OH218137   1.177   4.151   0.317
 6065TIP3    H118138   1.103   4.096   0.292
 6065TIP3    H218139   1.236   4.147   0.242
 6066TIP3   OH218140   6.523   2.278   1.389
 6066TIP3    H118141   6.451   2.281   1.452
 6066TIP3    H218142   6.501   2.344   1.323
 6067TIP3   OH218143   7.684   0.617   5.315
 6067TIP3    H118144   7.639   0.579   5.390
 6067TIP3    H218145   7.748   0.677   5.353
 6068TIP3   OH218146   8.296   3.775   3.519
 6068TIP3    H118147   8.234   3.805   3.586
 6068TIP3    H218148   8.242   3.735   3.451
 6069TIP3   OH218149   0.926   1.090   4.133
 6069TIP3    H118150   0.930   0.994   4.141
 6069TIP3    H218151   0.920   1.121   4.224
 6070TIP3   OH218152   8.230   0.874   3.681
 6070TIP3    H118153   8.236   0.830   3.766
 6070TIP3    H218154   8.317   0.912   3.668
 6071TIP3   OH218155   6.798   1.637   0.089
 6071TIP3    H118156   6.819   1.730   0.093
 6071TIP3    H218157   6.787   1.611   0.180
 6072TIP3   OH218158   5.900   3.156   1.395
 6072TIP3    H118159   5.924   3.114   1.478
 6072TIP3    H218160   5.971   3.218   1.379
 6073TIP3   OH218161   6.454   3.083   0.521
 6073TIP3    H118162   6.521   3.019   0.498
 6073TIP3    H218163   6.373   3.032   0.527
 6074TIP3   OH218164   1.533   1.073   6.060
 6074TIP3    H118165   1.493   0.987   6.075
 6074TIP3    H218166   1.617   1.069   6.105
 6075TIP3   OH218167   6.957   2.781   4.601
 6075TIP3    H118168   6.993   2.810   4.518
 6075TIP3    H218169   6.994   2.693   4.613
 6076TIP3   OH218170   7.397   2.273   4.622
 6076TIP3    H118171   7.468   2.224   4.580
 6076TIP3    H218172   7.435   2.359   4.641
 6077TIP3   OH218173   5.486   2.603   2.475
 6077TIP3    H118174   5.519   2.669   2.537
 6077TIP3    H218175   5.413   2.646   2.431
 6078TIP3   OH218176   0.651   2.912   0.358
 6078TIP3    H118177   0.605   2.854   0.419
 6078TIP3    H218178   0.672   2.857   0.283
 6079TIP3   OH218179   6.528   2.789   4.127
 6079TIP3    H118180   6.458   2.850   4.101
 6079TIP3    H218181   6.606   2.844   4.134
 6080TIP3   OH218182   0.877   5.053   2.361
 6080TIP3    H118183   0.808   5.062   2.426
 6080TIP3    H218184   0.847   4.982   2.304
 6081TIP3   OH218185   2.259   4.617   3.998
 6081TIP3    H118186   2.218   4.605   3.912
 6081TIP3    H218187   2.186   4.626   4.059
 6082TIP3   OH218188   5.222   1.749   4.572
 6082TIP3    H118189   5.132   1.757   4.604
 6082TIP3    H218190   5.237   1.655   4.569
 6083TIP3   OH218191   2.646   0.896   1.903
 6083TIP3    H118192   2.559   0.859   1.890
 6083TIP3    H218193   2.632   0.991   1.902
 6084TIP3   OH218194   4.938   5.595   1.789
 6084TIP3    H118195   4.886   5.535   1.734
 6084TIP3    H218196   4.911   5.575   1.878
 6085TIP3   OH218197   5.222   1.259   2.035
 6085TIP3    H118198   5.258   1.205   1.964
 6085TIP3    H218199   5.135   1.222   2.052
 6086TIP3   OH218200   0.570   1.741   3.978
 6086TIP3    H118201   0.529   1.756   4.063
 6086TIP3    H218202   0.505   1.770   3.915
 6087TIP3   OH218203   5.574   5.598   2.114
 6087TIP3    H118204   5.586   5.573   2.022
 6087TIP3    H218205   5.505   5.539   2.146
 6088TIP3   OH218206   5.014   2.610   6.728
 6088TIP3    H118207   4.949   2.677   6.748
 6088TIP3    H218208   5.084   2.656   6.683
 6089TIP3   OH218209   6.192   4.040   0.442
 6089TIP3    H118210   6.152   3.992   0.514
 6089TIP3    H218211   6.171   3.988   0.364
 6090TIP3   OH218212   6.319   0.483   3.106
 6090TIP3    H118213   6.372   0.425   3.051
 6090TIP3    H218214   6.378   0.509   3.177
 6091TIP3   OH218215   4.671   7.263   5.189
 6091TIP3    H118216   4.750   7.317   5.183
 6091TIP3    H218217   4.600   7.325   5.204
 6092TIP3   OH218218   2.467   5.096   4.082
 6092TIP3    H118219   2.518   5.032   4.131
 6092TIP3    H218220   2.407   5.043   4.029
 6093TIP3   OH218221   4.853   1.336   4.450
 6093TIP3    H118222   4.807   1.368   4.373
 6093TIP3    H218223   4.829   1.398   4.520
 6094TIP3   OH218224   5.212   4.943   2.305
 6094TIP3    H118225   5.240   4.912   2.219
 6094TIP3    H218226   5.142   4.883   2.330
 6095TIP3   OH218227   1.157   1.600   2.022
 6095TIP3    H118228   1.149   1.510   2.054
 6095TIP3    H218229   1.245   1.626   2.047
 6096TIP3   OH218230   0.656   4.588   5.993
 6096TIP3    H118231   0.585   4.523   5.997
 6096TIP3    H218232   0.722   4.555   6.054
 6097TIP3   OH218233   2.563   2.904   6.750
 6097TIP3    H118234   2.541   2.812   6.734
 6097TIP3    H218235   2.627   2.925   6.681
 6098TIP3   OH218236   6.082   6.952   0.369
 6098TIP3    H118237   6.091   6.936   0.275
 6098TIP3    H218238   5.995   6.989   0.379
 6099TIP3   OH218239   1.237   0.369   5.457
 6099TIP3    H118240   1.215   0.397   5.546
 6099TIP3    H218241   1.320   0.321   5.467
 6100TIP3   OH218242   1.306   0.662   4.391
 6100TIP3    H118243   1.210   0.655   4.391
 6100TIP3    H218244   1.326   0.706   4.474
 6101TIP3   OH218245   3.660   4.189   0.969
 6101TIP3    H118246   3.651   4.255   0.900
 6101TIP3    H218247   3.672   4.240   1.049
 6102TIP3   OH218248   0.465   5.418   1.899
 6102TIP3    H118249   0.539   5.468   1.933
 6102TIP3    H218250   0.455   5.448   1.808
 6103TIP3   OH218251   3.685   6.921   4.280
 6103TIP3    H118252   3.654   6.921   4.189
 6103TIP3    H218253   3.780   6.913   4.272
 6104TIP3   OH218254   6.019   7.666   2.493
 6104TIP3    H118255   6.044   7.576   2.516
 6104TIP3    H218256   6.096   7.701   2.448
 6105TIP3   OH218257   5.680   1.350   1.383
 6105TIP3    H118258   5.690   1.340   1.289
 6105TIP3    H218259   5.624   1.276   1.409
 6106TIP3   OH218260   6.259   4.585   6.504
 6106TIP3    H118261   6.349   4.610   6.527
 6106TIP3    H218262   6.244   4.625   6.419
 6107TIP3   OH218263   0.930   6.694   5.051
 6107TIP3    H118264   0.949   6.638   4.975
 6107TIP3    H218265   1.016   6.725   5.080
 6108TIP3   OH218266   5.148   6.919   5.560
 6108TIP3    H118267   5.120   6.935   5.650
 6108TIP3    H218268   5.108   6.835   5.538
 6109TIP3   OH218269   1.034   7.402   4.810
 6109TIP3    H118270   1.082   7.327   4.775
 6109TIP3    H218271   0.952   7.404   4.761
 6110TIP3   OH218272   5.574   0.027   6.278
 6110TIP3    H118273   5.629   0.048   6.203
 6110TIP3    H218274   5.504  -0.029   6.243
 6111TIP3   OH218275   5.385   6.013   4.130
 6111TIP3    H118276   5.453   5.996   4.065
 6111TIP3    H218277   5.426   6.074   4.192
 6112TIP3   OH218278   5.888   0.500   4.044
 6112TIP3    H118279   5.804   0.456   4.030
 6112TIP3    H218280   5.914   0.531   3.958
 6113TIP3   OH218281   1.190   5.419   3.601
 6113TIP3    H118282   1.258   5.449   3.540
 6113TIP3    H218283   1.177   5.327   3.579
 6114TIP3   OH218284   0.645   7.709   1.546
 6114TIP3    H118285   0.584   7.773   1.584
 6114TIP3    H218286   0.719   7.762   1.516
 6115TIP3   OH218287   5.578   0.583   1.072
 6115TIP3    H118288   5.542   0.671   1.082
 6115TIP3    H218289   5.538   0.532   1.142
 6116TIP3   OH218290   7.267   1.006   0.084
 6116TIP3    H118291   7.284   0.916   0.111
 6116TIP3    H218292   7.192   1.033   0.137
 6117TIP3   OH218293   6.138   7.154   4.417
 6117TIP3    H118294   6.171   7.079   4.369
 6117TIP3    H218295   6.111   7.216   4.350
 6118TIP3   OH218296   5.837   7.511   2.293
 6118TIP3    H118297   5.914   7.521   2.349
 6118TIP3    H218298   5.853   7.572   2.221
 6119TIP3   OH218299   7.074   0.589   5.376
 6119TIP3    H118300   6.988   0.632   5.378
 6119TIP3    H218301   7.132   0.648   5.423
 6120TIP3   OH218302   5.127   2.625   1.822
 6120TIP3    H118303   5.048   2.574   1.838
 6120TIP3    H218304   5.096   2.716   1.814
 6121TIP3   OH218305   7.520   2.837   0.474
 6121TIP3    H118306   7.451   2.773   0.492
 6121TIP3    H218307   7.516   2.850   0.379
 6122TIP3   OH218308   7.041   4.757   6.361
 6122TIP3    H118309   7.015   4.683   6.306
 6122TIP3    H218310   7.072   4.823   6.300
 6123TIP3   OH218311   2.213   5.248   2.582
 6123TIP3    H118312   2.267   5.297   2.521
 6123TIP3    H218313   2.130   5.236   2.536
 6124TIP3   OH218314   5.938   6.178   2.268
 6124TIP3    H118315   5.938   6.273   2.253
 6124TIP3    H218316   5.957   6.140   2.182
 6125TIP3   OH218317   6.955   3.315   2.946
 6125TIP3    H118318   6.965   3.256   2.871
 6125TIP3    H218319   7.043   3.347   2.962
 6126TIP3   OH218320   1.296   1.687   3.496
 6126TIP3    H118321   1.319   1.632   3.421
 6126TIP3    H218322   1.246   1.630   3.553
 6127TIP3   OH218323   7.379   7.287   3.701
 6127TIP3    H118324   7.365   7.213   3.759
 6127TIP3    H218325   7.386   7.248   3.614
 6128TIP3   OH218326   2.819   3.436   4.259
 6128TIP3    H118327   2.875   3.407   4.331
 6128TIP3    H218328   2.732   3.444   4.298
 6129TIP3   OH218329   1.113   0.999   3.688
 6129TIP3    H118330   1.150   0.938   3.753
 6129TIP3    H218331   1.183   1.008   3.623
 6130TIP3   OH218332   3.043   1.004   0.925
 6130TIP3    H118333   3.001   0.926   0.886
 6130TIP3    H218334   3.117   0.969   0.974
 6131TIP3   OH218335   4.589   1.940   3.112
 6131TIP3    H118336   4.557   1.907   3.196
 6131TIP3    H218337   4.649   1.872   3.081
 6132TIP3   OH218338   6.413   4.469   3.311
 6132TIP3    H118339   6.435   4.420   3.232
 6132TIP3    H218340   6.320   4.449   3.326
 6133TIP3   OH218341   5.440   4.764   1.769
 6133TIP3    H118342   5.430   4.857   1.790
 6133TIP3    H218343   5.501   4.730   1.835
 6134TIP3   OH218344   4.832   7.461   6.199
 6134TIP3    H118345   4.801   7.486   6.112
 6134TIP3    H218346   4.812   7.368   6.206
 6135TIP3   OH218347   0.417   6.416   2.744
 6135TIP3    H118348   0.394   6.507   2.727
 6135TIP3    H218349   0.338   6.378   2.782
 6136TIP3   OH218350   2.203   2.023   2.140
 6136TIP3    H118351   2.175   1.932   2.127
 6136TIP3    H218352   2.218   2.056   2.051
 6137TIP3   OH218353   4.784   3.317   3.789
 6137TIP3    H118354   4.826   3.291   3.870
 6137TIP3    H218355   4.713   3.375   3.816
 6138TIP3   OH218356   5.502   4.319   2.558
 6138TIP3    H118357   5.418   4.300   2.516
 6138TIP3    H218358   5.494   4.409   2.589
 6139TIP3   OH218359   4.190   4.464   6.228
 6139TIP3    H118360   4.187   4.554   6.260
 6139TIP3    H218361   4.168   4.471   6.136
 6140TIP3   OH218362   4.414   5.288   1.201
 6140TIP3    H118363   4.492   5.268   1.150
 6140TIP3    H218364   4.390   5.377   1.175
 6141TIP3   OH218365   2.496   7.359   5.019
 6141TIP3    H118366   2.586   7.350   5.051
 6141TIP3    H218367   2.505   7.389   4.929
 6142TIP3   OH218368   6.502   4.739   3.136
 6142TIP3    H118369   6.437   4.713   3.070
 6142TIP3    H218370   6.454   4.797   3.195
 6143TIP3   OH218371   3.207   0.580   4.085
 6143TIP3    H118372   3.246   0.652   4.035
 6143TIP3    H218373   3.218   0.503   4.029
 6144TIP3   OH218374   5.397   1.719   3.721
 6144TIP3    H118375   5.464   1.785   3.709
 6144TIP3    H218376   5.328   1.763   3.770
 6145TIP3   OH218377   6.500   6.740   6.528
 6145TIP3    H118378   6.553   6.812   6.494
 6145TIP3    H218379   6.430   6.729   6.464
 6146TIP3   OH218380   0.402   4.127   5.622
 6146TIP3    H118381   0.307   4.140   5.620
 6146TIP3    H218382   0.434   4.192   5.685
 6147TIP3   OH218383   7.211   1.551   5.492
 6147TIP3    H118384   7.133   1.606   5.496
 6147TIP3    H218385   7.178   1.462   5.505
 6148TIP3   OH218386   4.173   2.643   4.193
 6148TIP3    H118387   4.111   2.574   4.169
 6148TIP3    H218388   4.158   2.659   4.286
 6149TIP3   OH218389   4.663   7.047   0.486
 6149TIP3    H118390   4.588   7.044   0.427
 6149TIP3    H218391   4.661   6.963   0.532
 6150TIP3   OH218392   5.324   6.606   0.799
 6150TIP3    H118393   5.406   6.623   0.845
 6150TIP3    H218394   5.291   6.692   0.775
 6151TIP3   OH218395   1.697   6.529   2.557
 6151TIP3    H118396   1.667   6.592   2.491
 6151TIP3    H218397   1.628   6.463   2.561
 6152TIP3   OH218398   0.196   4.225   4.968
 6152TIP3    H118399   0.169   4.204   4.878
 6152TIP3    H218400   0.292   4.218   4.967
 6153TIP3   OH218401   4.104   6.264   1.159
 6153TIP3    H118402   4.105   6.270   1.254
 6153TIP3    H218403   4.120   6.171   1.140
 6154TIP3   OH218404   6.438   4.025   2.216
 6154TIP3    H118405   6.524   4.033   2.175
 6154TIP3    H218406   6.449   3.958   2.283
 6155TIP3   OH218407   4.563   4.934   4.554
 6155TIP3    H118408   4.542   4.872   4.484
 6155TIP3    H218409   4.515   4.902   4.630
 6156TIP3   OH218410   2.395   1.704   4.306
 6156TIP3    H118411   2.427   1.630   4.255
 6156TIP3    H218412   2.342   1.755   4.245
 6157TIP3   OH218413   8.106   5.653   5.730
 6157TIP3    H118414   8.163   5.630   5.803
 6157TIP3    H218415   8.029   5.597   5.741
 6158TIP3   OH218416   4.008   1.692   3.926
 6158TIP3    H118417   4.091   1.659   3.892
 6158TIP3    H218418   3.985   1.631   3.996
 6159TIP3   OH218419   6.144   0.345   5.549
 6159TIP3    H118420   6.109   0.432   5.567
 6159TIP3    H218421   6.200   0.357   5.472
 6160TIP3   OH218422   6.819   7.561   5.516
 6160TIP3    H118423   6.903   7.519   5.498
 6160TIP3    H218424   6.762   7.491   5.546
 6161TIP3   OH218425   7.176   6.096   2.928
 6161TIP3    H118426   7.197   6.082   3.020
 6161TIP3    H218427   7.182   6.010   2.888
 6162TIP3   OH218428   2.285   6.716   6.660
 6162TIP3    H118429   2.372   6.732   6.625
 6162TIP3    H218430   2.249   6.646   6.604
 6163TIP3   OH218431   5.509   0.763   0.281
 6163TIP3    H118432   5.476   0.735   0.366
 6163TIP3    H218433   5.505   0.685   0.226
 6164TIP3   OH218434   0.109   0.343   5.298
 6164TIP3    H118435   0.112   0.252   5.328
 6164TIP3    H218436   0.017   0.360   5.282
 6165TIP3   OH218437   0.149   1.126   2.684
 6165TIP3    H118438   0.221   1.082   2.638
 6165TIP3    H218439   0.144   1.213   2.644
 6166TIP3   OH218440   6.418   3.088   4.769
 6166TIP3    H118441   6.388   2.997   4.772
 6166TIP3    H218442   6.513   3.083   4.781
 6167TIP3   OH218443   0.842   3.128   0.784
 6167TIP3    H118444   0.820   3.162   0.697
 6167TIP3    H218445   0.758   3.114   0.826
 6168TIP3   OH218446   4.524   6.750   2.936
 6168TIP3    H118447   4.597   6.707   2.891
 6168TIP3    H218448   4.538   6.844   2.921
 6169TIP3   OH218449   0.343   0.628   6.578
 6169TIP3    H118450   0.278   0.585   6.634
 6169TIP3    H218451   0.425   0.621   6.627
 6170TIP3   OH218452   6.061   1.357   5.073
 6170TIP3    H118453   6.024   1.413   5.142
 6170TIP3    H218454   6.003   1.371   4.998
 6171TIP3   OH218455   0.893   3.119   6.293
 6171TIP3    H118456   0.876   3.147   6.203
 6171TIP3    H218457   0.887   3.199   6.344
 6172TIP3   OH218458   6.647   7.044   2.792
 6172TIP3    H118459   6.694   6.980   2.845
 6172TIP3    H218460   6.672   7.023   2.702
 6173TIP3   OH218461   2.296   6.646   6.380
 6173TIP3    H118462   2.281   6.599   6.298
 6173TIP3    H218463   2.370   6.704   6.362
 6174TIP3   OH218464   3.116   2.503   5.253
 6174TIP3    H118465   3.032   2.486   5.296
 6174TIP3    H218466   3.122   2.435   5.185
 6175TIP3   OH218467   3.245   0.567   4.679
 6175TIP3    H118468   3.283   0.482   4.701
 6175TIP3    H218469   3.226   0.561   4.585
 6176TIP3   OH218470   3.664   7.473   4.216
 6176TIP3    H118471   3.703   7.388   4.238
 6176TIP3    H218472   3.725   7.512   4.153
 6177TIP3   OH218473   7.424   6.453   5.083
 6177TIP3    H118474   7.458   6.458   5.172
 6177TIP3    H218475   7.475   6.384   5.041
 6178TIP3   OH218476   5.416   2.891   0.240
 6178TIP3    H118477   5.378   2.809   0.210
 6178TIP3    H218478   5.362   2.917   0.315
 6179TIP3   OH218479   3.329   5.858   5.546
 6179TIP3    H118480   3.337   5.771   5.507
 6179TIP3    H218481   3.283   5.910   5.481
 6180TIP3   OH218482   5.107   5.987   2.105
 6180TIP3    H118483   5.038   5.955   2.164
 6180TIP3    H218484   5.159   5.909   2.084
 6181TIP3   OH218485   6.910   0.703   5.978
 6181TIP3    H118486   6.825   0.743   5.963
 6181TIP3    H218487   6.891   0.623   6.027
 6182TIP3   OH218488   2.806   4.606   2.761
 6182TIP3    H118489   2.794   4.545   2.834
 6182TIP3    H218490   2.726   4.657   2.759
 6183TIP3   OH218491   7.785   0.238   0.072
 6183TIP3    H118492   7.844   0.241  -0.003
 6183TIP3    H218493   7.699   0.260   0.037
 6184TIP3   OH218494   0.127   7.787   3.691
 6184TIP3    H118495   0.056   7.730   3.719
 6184TIP3    H218496   0.205   7.751   3.734
 6185TIP3   OH218497   2.471   5.775   6.482
 6185TIP3    H118498   2.499   5.826   6.407
 6185TIP3    H218499   2.493   5.830   6.558
 6186TIP3   OH218500   4.439   4.333   5.575
 6186TIP3    H118501   4.382   4.261   5.548
 6186TIP3    H218502   4.423   4.402   5.511
 6187TIP3   OH218503   2.017   4.723   2.440
 6187TIP3    H118504   2.044   4.812   2.460
 6187TIP3    H218505   1.968   4.694   2.517
 6188TIP3   OH218506   7.659   2.043   4.880
 6188TIP3    H118507   7.568   2.026   4.855
 6188TIP3    H218508   7.653   2.104   4.953
 6189TIP3   OH218509   3.999   5.627   3.782
 6189TIP3    H118510   3.947   5.620   3.703
 6189TIP3    H218511   3.976   5.712   3.819
 6190TIP3   OH218512   3.006   3.854   0.228
 6190TIP3    H118513   2.919   3.825   0.254
 6190TIP3    H218514   3.029   3.799   0.154
 6191TIP3   OH218515   5.566   0.840   3.516
 6191TIP3    H118516   5.502   0.803   3.456
 6191TIP3    H218517   5.636   0.774   3.521
 6192TIP3   OH218518   3.559   3.824   4.178
 6192TIP3    H118519   3.504   3.871   4.116
 6192TIP3    H218520   3.502   3.758   4.217
 6193TIP3   OH218521   8.074   3.923   1.514
 6193TIP3    H118522   8.029   3.994   1.559
 6193TIP3    H218523   8.166   3.949   1.515
 6194TIP3   OH218524   7.487   0.557   4.771
 6194TIP3    H118525   7.581   0.578   4.765
 6194TIP3    H218526   7.451   0.587   4.688
 6195TIP3   OH218527   0.843   2.838   4.113
 6195TIP3    H118528   0.776   2.804   4.172
 6195TIP3    H218529   0.849   2.773   4.042
 6196TIP3   OH218530   6.769   2.636   1.034
 6196TIP3    H118531   6.836   2.673   0.977
 6196TIP3    H218532   6.704   2.599   0.973
 6197TIP3   OH218533   3.998   1.389   1.768
 6197TIP3    H118534   3.955   1.472   1.787
 6197TIP3    H218535   4.079   1.391   1.819
 6198TIP3   OH218536   1.576   1.190   2.260
 6198TIP3    H118537   1.563   1.118   2.198
 6198TIP3    H218538   1.638   1.155   2.324
 6199TIP3   OH218539   1.610   4.563   5.807
 6199TIP3    H118540   1.577   4.611   5.731
 6199TIP3    H218541   1.532   4.526   5.848
 6200TIP3   OH218542   5.337   6.060   1.183
 6200TIP3    H118543   5.320   5.975   1.224
 6200TIP3    H218544   5.321   6.124   1.252
 6201TIP3   OH218545   2.834   5.285   0.377
 6201TIP3    H118546   2.828   5.379   0.395
 6201TIP3    H218547   2.868   5.247   0.458
 6202TIP3   OH218548   2.879   0.730   5.430
 6202TIP3    H118549   2.842   0.783   5.359
 6202TIP3    H218550   2.803   0.687   5.470
 6203TIP3   OH218551   3.415   6.389   4.722
 6203TIP3    H118552   3.505   6.362   4.737
 6203TIP3    H218553   3.368   6.364   4.802
 6204TIP3   OH218554   6.773   2.453   6.012
 6204TIP3    H118555   6.705   2.465   5.945
 6204TIP3    H218556   6.779   2.538   6.055
 6205TIP3   OH218557   4.578   3.006   4.918
 6205TIP3    H118558   4.567   3.039   4.829
 6205TIP3    H218559   4.567   2.911   4.909
 6206TIP3   OH218560   4.863   2.367   1.203
 6206TIP3    H118561   4.792   2.407   1.254
 6206TIP3    H218562   4.942   2.391   1.251
 6207TIP3   OH218563   3.092   7.165   0.967
 6207TIP3    H118564   3.076   7.133   0.878
 6207TIP3    H218565   3.050   7.100   1.023
 6208TIP3   OH218566   7.783   3.859   2.596
 6208TIP3    H118567   7.859   3.911   2.623
 6208TIP3    H218568   7.749   3.905   2.519
 6209TIP3   OH218569   0.636   0.364   3.133
 6209TIP3    H118570   0.607   0.392   3.220
 6209TIP3    H218571   0.599   0.276   3.123
 6210TIP3   OH218572   3.000   3.150   1.060
 6210TIP3    H118573   3.050   3.098   0.998
 6210TIP3    H218574   3.029   3.240   1.045
 6211TIP3   OH218575   6.069   4.513   4.531
 6211TIP3    H118576   6.028   4.503   4.617
 6211TIP3    H218577   6.104   4.426   4.511
 6212TIP3   OH218578   0.026   6.072   3.644
 6212TIP3    H118579  -0.005   5.982   3.634
 6212TIP3    H218580   0.102   6.065   3.702
 6213TIP3   OH218581   0.338   4.593   0.643
 6213TIP3    H118582   0.378   4.644   0.714
 6213TIP3    H218583   0.247   4.622   0.642
 6214TIP3   OH218584   3.987   5.705   2.763
 6214TIP3    H118585   3.955   5.737   2.679
 6214TIP3    H218586   3.975   5.611   2.760
 6215TIP3   OH218587   3.732   7.575   6.213
 6215TIP3    H118588   3.744   7.667   6.189
 6215TIP3    H218589   3.810   7.553   6.264
 6216TIP3   OH218590   4.749   2.491   4.801
 6216TIP3    H118591   4.773   2.402   4.825
 6216TIP3    H218592   4.833   2.533   4.780
 6217TIP3   OH218593   4.603   7.408   1.611
 6217TIP3    H118594   4.538   7.473   1.587
 6217TIP3    H218595   4.599   7.405   1.707
 6218TIP3   OH218596   0.427   3.997   1.536
 6218TIP3    H118597   0.510   4.012   1.491
 6218TIP3    H218598   0.394   4.085   1.555
 6219TIP3   OH218599   1.495   4.640   5.541
 6219TIP3    H118600   1.434   4.713   5.524
 6219TIP3    H218601   1.438   4.563   5.551
 6220TIP3   OH218602   6.979   7.572   1.286
 6220TIP3    H118603   6.927   7.634   1.236
 6220TIP3    H218604   7.050   7.547   1.228
 6221TIP3   OH218605   5.379   4.440   2.991
 6221TIP3    H118606   5.382   4.533   2.971
 6221TIP3    H218607   5.286   4.421   3.007
 6222TIP3   OH218608   7.508   0.948   3.233
 6222TIP3    H118609   7.431   1.000   3.254
 6222TIP3    H218610   7.576   1.012   3.213
 6223TIP3   OH218611   0.059   6.625   0.256
 6223TIP3    H118612   0.110   6.608   0.335
 6223TIP3    H218613   0.124   6.651   0.191
 6224TIP3   OH218614   5.219   2.146   6.687
 6224TIP3    H118615   5.255   2.174   6.603
 6224TIP3    H218616   5.206   2.227   6.736
 6225TIP3   OH218617   0.131   3.319   1.611
 6225TIP3    H118618   0.104   3.349   1.697
 6225TIP3    H218619   0.088   3.234   1.600
 6226TIP3   OH218620   2.851   3.610   5.431
 6226TIP3    H118621   2.772   3.661   5.415
 6226TIP3    H218622   2.830   3.522   5.399
 6227TIP3   OH218623   7.730   1.864   2.880
 6227TIP3    H118624   7.764   1.941   2.926
 6227TIP3    H218625   7.808   1.824   2.840
 6228TIP3   OH218626   4.969   2.852   4.797
 6228TIP3    H118627   5.031   2.789   4.759
 6228TIP3    H218628   4.945   2.813   4.881
 6229TIP3   OH218629   5.771   7.611   0.280
 6229TIP3    H118630   5.826   7.661   0.220
 6229TIP3    H218631   5.742   7.535   0.229
 6230TIP3   OH218632   7.326   6.203   4.228
 6230TIP3    H118633   7.323   6.161   4.142
 6230TIP3    H218634   7.238   6.187   4.265
 6231TIP3   OH218635   5.715   6.648   2.946
 6231TIP3    H118636   5.710   6.681   2.856
 6231TIP3    H218637   5.624   6.641   2.974
 6232TIP3   OH218638   3.148   3.697   5.037
 6232TIP3    H118639   3.124   3.784   5.067
 6232TIP3    H218640   3.095   3.637   5.090
 6233TIP3   OH218641   6.490   2.072   0.714
 6233TIP3    H118642   6.492   1.995   0.771
 6233TIP3    H218643   6.421   2.128   0.751
 6234TIP3   OH218644   0.728   2.349   5.833
 6234TIP3    H118645   0.794   2.305   5.780
 6234TIP3    H218646   0.749   2.324   5.923
 6235TIP3   OH218647   7.084   6.865   3.560
 6235TIP3    H118648   7.008   6.910   3.522
 6235TIP3    H218649   7.055   6.775   3.571
 6236TIP3   OH218650   7.440   3.296   2.088
 6236TIP3    H118651   7.499   3.291   2.013
 6236TIP3    H218652   7.379   3.222   2.075
 6237TIP3   OH218653   8.202   4.307   3.910
 6237TIP3    H118654   8.122   4.342   3.950
 6237TIP3    H218655   8.269   4.372   3.931
 6238TIP3   OH218656   6.231   7.795   2.405
 6238TIP3    H118657   6.307   7.848   2.383
 6238TIP3    H218658   6.190   7.840   2.479
 6239TIP3   OH218659   2.396   5.811   2.351
 6239TIP3    H118660   2.489   5.834   2.352
 6239TIP3    H218661   2.352   5.892   2.326
 6240TIP3   OH218662   0.821   2.349   0.157
 6240TIP3    H118663   0.766   2.319   0.085
 6240TIP3    H218664   0.885   2.406   0.116
 6241TIP3   OH218665   6.349   3.323   2.372
 6241TIP3    H118666   6.390   3.284   2.449
 6241TIP3    H218667   6.351   3.254   2.306
 6242TIP3   OH218668   6.254   6.052   1.355
 6242TIP3    H118669   6.294   5.969   1.330
 6242TIP3    H218670   6.185   6.028   1.416
 6243TIP3   OH218671   7.178   5.354   5.919
 6243TIP3    H118672   7.181   5.403   5.837
 6243TIP3    H218673   7.094   5.378   5.958
 6244TIP3   OH218674   7.330   6.967   3.704
 6244TIP3    H118675   7.258   6.957   3.643
 6244TIP3    H218676   7.290   7.000   3.784
 6245TIP3   OH218677   2.161   6.253   2.114
 6245TIP3    H118678   2.113   6.308   2.176
 6245TIP3    H218679   2.131   6.164   2.133
 6246TIP3   OH218680   6.257   4.870   0.879
 6246TIP3    H118681   6.323   4.801   0.879
 6246TIP3    H218682   6.306   4.950   0.899
 6247TIP3   OH218683   6.521   0.937   4.847
 6247TIP3    H118684   6.529   1.003   4.915
 6247TIP3    H218685   6.433   0.900   4.859
 6248TIP3   OH218686   7.879   6.084   1.534
 6248TIP3    H118687   7.872   6.117   1.624
 6248TIP3    H218688   7.971   6.094   1.512
 6249TIP3   OH218689   2.072   0.308   6.468
 6249TIP3    H118690   2.001   0.346   6.518
 6249TIP3    H218691   2.061   0.213   6.478
 6250TIP3   OH218692   5.820   2.035   2.728
 6250TIP3    H118693   5.829   2.089   2.650
 6250TIP3    H218694   5.768   1.960   2.699
 6251TIP3   OH218695   1.005   4.495   5.414
 6251TIP3    H118696   0.920   4.537   5.424
 6251TIP3    H218697   0.988   4.402   5.428
 6252TIP3   OH218698   0.634   4.038   1.354
 6252TIP3    H118699   0.670   4.124   1.335
 6252TIP3    H218700   0.563   4.027   1.291
 6253TIP3   OH218701   1.440   3.399   5.387
 6253TIP3    H118702   1.393   3.477   5.416
 6253TIP3    H218703   1.385   3.363   5.317
 6254TIP3   OH218704   5.692   1.914   2.517
 6254TIP3    H118705   5.779   1.950   2.500
 6254TIP3    H218706   5.660   1.888   2.431
 6255TIP3   OH218707   3.173   4.858   3.944
 6255TIP3    H118708   3.256   4.905   3.938
 6255TIP3    H218709   3.186   4.780   3.889
 6256TIP3   OH218710   7.992   4.912   5.842
 6256TIP3    H118711   7.947   4.956   5.914
 6256TIP3    H218712   8.058   4.858   5.885
 6257TIP3   OH218713   6.956   5.567   5.083
 6257TIP3    H118714   6.951   5.517   5.163
 6257TIP3    H218715   7.026   5.631   5.099
 6258TIP3   OH218716   5.225   4.512   6.650
 6258TIP3    H118717   5.144   4.463   6.637
 6258TIP3    H218718   5.213   4.555   6.735
 6259TIP3   OH218719   4.919   7.648   2.664
 6259TIP3    H118720   4.984   7.685   2.605
 6259TIP3    H218721   4.903   7.717   2.729
 6260TIP3   OH218722   4.693   2.712   0.473
 6260TIP3    H118723   4.726   2.626   0.496
 6260TIP3    H218724   4.609   2.695   0.430
 6261TIP3   OH218725   1.201   1.881   3.182
 6261TIP3    H118726   1.292   1.852   3.184
 6261TIP3    H218727   1.196   1.949   3.249
 6262TIP3   OH218728   1.367   0.518   0.583
 6262TIP3    H118729   1.457   0.523   0.615
 6262TIP3    H218730   1.376   0.503   0.489
 6263TIP3   OH218731   8.149   6.917   1.283
 6263TIP3    H118732   8.239   6.903   1.253
 6263TIP3    H218733   8.095   6.862   1.227
 6264TIP3   OH218734   7.240   5.140   5.580
 6264TIP3    H118735   7.244   5.087   5.660
 6264TIP3    H218736   7.315   5.199   5.586
 6265TIP3   OH218737   5.532   6.271   1.107
 6265TIP3    H118738   5.592   6.321   1.052
 6265TIP3    H218739   5.512   6.192   1.056
 6266TIP3   OH218740   4.532   5.874   2.587
 6266TIP3    H118741   4.579   5.953   2.616
 6266TIP3    H218742   4.451   5.907   2.548
 6267TIP3   OH218743   2.254   2.011   1.862
 6267TIP3    H118744   2.221   2.008   1.773
 6267TIP3    H218745   2.247   1.921   1.893
 6268TIP3   OH218746   6.608   1.615   1.421
 6268TIP3    H118747   6.682   1.586   1.474
 6268TIP3    H218748   6.643   1.685   1.366
 6269TIP3   OH218749   2.763   2.083   2.328
 6269TIP3    H118750   2.852   2.108   2.306
 6269TIP3    H218751   2.734   2.030   2.254
 6270TIP3   OH218752   0.079   2.711   2.683
 6270TIP3    H118753   0.101   2.801   2.659
 6270TIP3    H218754  -0.006   2.717   2.726
 6271TIP3   OH218755   5.163   1.481   0.276
 6271TIP3    H118756   5.179   1.574   0.295
 6271TIP3    H218757   5.241   1.436   0.307
 6272TIP3   OH218758   0.956   4.045   4.935
 6272TIP3    H118759   0.959   4.102   5.012
 6272TIP3    H218760   0.979   4.103   4.862
 6273TIP3   OH218761   7.070   4.375   6.025
 6273TIP3    H118762   7.151   4.417   6.054
 6273TIP3    H218763   7.075   4.287   6.061
 6274TIP3   OH218764   4.842   3.502   6.064
 6274TIP3    H118765   4.788   3.440   6.014
 6274TIP3    H218766   4.795   3.515   6.146
 6275TIP3   OH218767   8.285   0.717   6.559
 6275TIP3    H118768   8.298   0.808   6.534
 6275TIP3    H218769   8.207   0.718   6.614
 6276TIP3   OH218770   1.319   2.471   4.402
 6276TIP3    H118771   1.346   2.419   4.326
 6276TIP3    H218772   1.396   2.473   4.458
 6277TIP3   OH218773   5.472   5.366   6.319
 6277TIP3    H118774   5.523   5.357   6.239
 6277TIP3    H218775   5.512   5.306   6.381
 6278TIP3   OH218776   1.942   5.078   0.382
 6278TIP3    H118777   2.033   5.100   0.404
 6278TIP3    H218778   1.948   5.026   0.302
 6279TIP3   OH218779   2.608   3.587   0.566
 6279TIP3    H118780   2.558   3.639   0.629
 6279TIP3    H218781   2.595   3.497   0.595
 6280TIP3   OH218782   3.450   5.357   4.101
 6280TIP3    H118783   3.495   5.342   4.184
 6280TIP3    H218784   3.357   5.355   4.122
 6281TIP3   OH218785   5.716   4.696   2.241
 6281TIP3    H118786   5.718   4.783   2.200
 6281TIP3    H218787   5.779   4.702   2.312
 6282TIP3   OH218788   3.541   4.815   1.393
 6282TIP3    H118789   3.483   4.795   1.319
 6282TIP3    H218790   3.628   4.790   1.363
 6283TIP3   OH218791   2.361   0.227   1.035
 6283TIP3    H118792   2.411   0.309   1.030
 6283TIP3    H218793   2.423   0.159   1.011
 6284TIP3   OH218794   4.378   6.940   3.681
 6284TIP3    H118795   4.284   6.946   3.663
 6284TIP3    H218796   4.398   6.847   3.669
 6285TIP3   OH218797   3.219   1.209   4.463
 6285TIP3    H118798   3.124   1.204   4.461
 6285TIP3    H218799   3.248   1.118   4.470
 6286TIP3   OH218800   0.110   3.633   6.527
 6286TIP3    H118801   0.117   3.539   6.547
 6286TIP3    H218802   0.017   3.653   6.538
 6287TIP3   OH218803   7.970   3.003   5.954
 6287TIP3    H118804   7.901   3.037   6.011
 6287TIP3    H218805   7.925   2.973   5.875
 6288TIP3   OH218806   1.191   2.261   5.864
 6288TIP3    H118807   1.232   2.185   5.904
 6288TIP3    H218808   1.111   2.227   5.824
 6289TIP3   OH218809   5.541   3.051   1.994
 6289TIP3    H118810   5.525   3.139   1.959
 6289TIP3    H218811   5.458   3.028   2.037
 6290TIP3   OH218812   1.599   1.619   3.664
 6290TIP3    H118813   1.657   1.558   3.619
 6290TIP3    H218814   1.517   1.570   3.676
 6291TIP3   OH218815   6.670   0.921   5.613
 6291TIP3    H118816   6.609   0.980   5.657
 6291TIP3    H218817   6.709   0.974   5.544
 6292TIP3   OH218818   6.026   1.453   5.663
 6292TIP3    H118819   5.947   1.399   5.654
 6292TIP3    H218820   5.994   1.543   5.658
 6293TIP3   OH218821   2.827   0.893   5.213
 6293TIP3    H118822   2.822   0.989   5.204
 6293TIP3    H218823   2.868   0.863   5.132
 6294TIP3   OH218824   5.537   3.655   4.925
 6294TIP3    H118825   5.539   3.719   4.996
 6294TIP3    H218826   5.505   3.575   4.966
 6295TIP3   OH218827   0.825   6.036   0.211
 6295TIP3    H118828   0.888   6.005   0.276
 6295TIP3    H218829   0.751   5.976   0.219
 6296TIP3   OH218830   5.327   2.023   6.372
 6296TIP3    H118831   5.253   2.052   6.318
 6296TIP3    H218832   5.387   2.098   6.373
 6297TIP3   OH218833   0.607   7.655   0.596
 6297TIP3    H118834   0.595   7.747   0.572
 6297TIP3    H218835   0.558   7.607   0.529
 6298TIP3   OH218836   4.811   2.485   1.887
 6298TIP3    H118837   4.747   2.487   1.816
 6298TIP3    H218838   4.822   2.576   1.912
 6299TIP3   OH218839   3.444   6.900   4.798
 6299TIP3    H118840   3.419   6.808   4.787
 6299TIP3    H218841   3.361   6.947   4.797
 6300TIP3   OH218842   6.185   0.345   0.873
 6300TIP3    H118843   6.208   0.303   0.790
 6300TIP3    H218844   6.236   0.297   0.938
 6301TIP3   OH218845   2.523   6.004   0.397
 6301TIP3    H118846   2.499   6.007   0.490
 6301TIP3    H218847   2.521   6.095   0.368
 6302TIP3   OH218848   7.326   4.263   4.778
 6302TIP3    H118849   7.321   4.232   4.868
 6302TIP3    H218850   7.238   4.252   4.744
 6303TIP3   OH218851   0.076   7.653   4.452
 6303TIP3    H118852   0.111   7.577   4.405
 6303TIP3    H218853   0.071   7.624   4.543
 6304TIP3   OH218854   0.742   3.648   3.513
 6304TIP3    H118855   0.808   3.663   3.581
 6304TIP3    H218856   0.745   3.554   3.496
 6305TIP3   OH218857   3.069   6.670   1.153
 6305TIP3    H118858   3.142   6.709   1.104
 6305TIP3    H218859   3.016   6.627   1.086
 6306TIP3   OH218860   5.998   7.641   5.776
 6306TIP3    H118861   5.945   7.720   5.786
 6306TIP3    H218862   6.022   7.616   5.865
 6307TIP3   OH218863   0.770   6.885   6.387
 6307TIP3    H118864   0.682   6.903   6.356
 6307TIP3    H218865   0.825   6.951   6.345
 6308TIP3   OH218866   5.739   1.227   5.070
 6308TIP3    H118867   5.818   1.183   5.103
 6308TIP3    H218868   5.715   1.179   4.991
 6309TIP3   OH218869   2.791   0.090   5.435
 6309TIP3    H118870   2.722   0.138   5.481
 6309TIP3    H218871   2.843   0.049   5.505
 6310TIP3   OH218872   4.420   0.555   6.086
 6310TIP3    H118873   4.388   0.607   6.012
 6310TIP3    H218874   4.450   0.620   6.149
 6311TIP3   OH218875   1.469   1.072   0.858
 6311TIP3    H118876   1.414   1.148   0.878
 6311TIP3    H218877   1.555   1.094   0.894
 6312TIP3   OH218878   1.800   4.276   3.334
 6312TIP3    H118879   1.863   4.208   3.309
 6312TIP3    H218880   1.740   4.233   3.394
 6313TIP3   OH218881   2.955   6.353   4.173
 6313TIP3    H118882   3.048   6.333   4.187
 6313TIP3    H218883   2.952   6.389   4.084
 6314TIP3   OH218884   8.018   5.807   5.065
 6314TIP3    H118885   7.990   5.718   5.081
 6314TIP3    H218886   7.940   5.852   5.033
 6315TIP3   OH218887   3.890   4.173   4.010
 6315TIP3    H118888   3.904   4.133   4.096
 6315TIP3    H218889   3.965   4.143   3.958
 6316TIP3   OH218890   4.940   0.799   3.475
 6316TIP3    H118891   4.970   0.713   3.502
 6316TIP3    H218892   5.004   0.827   3.410
 6317TIP3   OH218893   4.859   0.672   0.653
 6317TIP3    H118894   4.861   0.676   0.558
 6317TIP3    H218895   4.942   0.631   0.677
 6318TIP3   OH218896   7.134   6.298   1.763
 6318TIP3    H118897   7.043   6.320   1.743
 6318TIP3    H218898   7.128   6.242   1.841
 6319TIP3   OH218899   0.991   4.680   3.832
 6319TIP3    H118900   0.972   4.719   3.918
 6319TIP3    H218901   0.906   4.650   3.801
 6320TIP3   OH218902   4.656   4.256   6.089
 6320TIP3    H118903   4.571   4.285   6.124
 6320TIP3    H218904   4.713   4.332   6.099
 6321TIP3   OH218905   0.319   6.743   1.450
 6321TIP3    H118906   0.376   6.807   1.406
 6321TIP3    H218907   0.376   6.702   1.515
 6322TIP3   OH218908   0.586   5.656   5.527
 6322TIP3    H118909   0.504   5.615   5.555
 6322TIP3    H218910   0.560   5.726   5.468
 6323TIP3   OH218911   3.682   1.557   6.532
 6323TIP3    H118912   3.754   1.577   6.472
 6323TIP3    H218913   3.721   1.565   6.619
 6324TIP3   OH218914   3.259   3.920   3.993
 6324TIP3    H118915   3.225   3.945   3.907
 6324TIP3    H218916   3.182   3.919   4.049
 6325TIP3   OH218917   4.569   5.351   0.669
 6325TIP3    H118918   4.650   5.309   0.698
 6325TIP3    H218919   4.598   5.419   0.609
 6326TIP3   OH218920   2.987   6.494   5.357
 6326TIP3    H118921   2.968   6.576   5.312
 6326TIP3    H218922   3.037   6.520   5.434
 6327TIP3   OH218923   8.353   2.043   2.642
 6327TIP3    H118924   8.402   2.059   2.561
 6327TIP3    H218925   8.305   1.962   2.626
 6328TIP3   OH218926   2.007   0.682   1.224
 6328TIP3    H118927   2.061   0.613   1.185
 6328TIP3    H218928   1.925   0.678   1.176
 6329TIP3   OH218929   1.369   6.728   4.642
 6329TIP3    H118930   1.386   6.648   4.592
 6329TIP3    H218931   1.423   6.719   4.721
 6330TIP3   OH218932   1.337   6.402   5.363
 6330TIP3    H118933   1.407   6.441   5.415
 6330TIP3    H218934   1.383   6.365   5.287
 6331TIP3   OH218935   5.948   1.729   2.841
 6331TIP3    H118936   6.012   1.711   2.910
 6331TIP3    H218937   5.867   1.747   2.889
 6332TIP3   OH218938   3.566   5.372   1.911
 6332TIP3    H118939   3.576   5.339   1.822
 6332TIP3    H218940   3.585   5.466   1.905
 6333TIP3   OH218941   6.693   4.267   6.586
 6333TIP3    H118942   6.687   4.172   6.596
 6333TIP3    H218943   6.604   4.296   6.567
 6334TIP3   OH218944   7.485   7.428   3.170
 6334TIP3    H118945   7.394   7.457   3.177
 6334TIP3    H218946   7.534   7.494   3.220
 6335TIP3   OH218947   2.232   2.546   5.404
 6335TIP3    H118948   2.277   2.603   5.467
 6335TIP3    H218949   2.143   2.580   5.400
 6336TIP3   OH218950   0.853   2.763   6.585
 6336TIP3    H118951   0.856   2.751   6.490
 6336TIP3    H218952   0.910   2.694   6.620
 6337TIP3   OH218953   2.240   2.920   2.913
 6337TIP3    H118954   2.237   2.858   2.986
 6337TIP3    H218955   2.330   2.954   2.915
 6338TIP3   OH218956   2.408   7.839   4.900
 6338TIP3    H118957   2.401   7.780   4.975
 6338TIP3    H218958   2.402   7.927   4.938
 6339TIP3   OH218959   2.165   3.018   4.637
 6339TIP3    H118960   2.157   2.976   4.551
 6339TIP3    H218961   2.256   3.047   4.641
 6340TIP3   OH218962   5.103   1.155   2.993
 6340TIP3    H118963   5.057   1.227   3.036
 6340TIP3    H218964   5.106   1.181   2.901
 6341TIP3   OH218965   3.645   4.002   0.249
 6341TIP3    H118966   3.589   3.989   0.173
 6341TIP3    H218967   3.731   4.024   0.212
 6342TIP3   OH218968   8.008   0.546   3.613
 6342TIP3    H118969   8.047   0.531   3.527
 6342TIP3    H218970   7.944   0.616   3.600
 6343TIP3   OH218971   3.791   6.249   0.800
 6343TIP3    H118972   3.730   6.307   0.847
 6343TIP3    H218973   3.858   6.307   0.765
 6344TIP3   OH218974   7.852   4.499   1.868
 6344TIP3    H118975   7.788   4.429   1.869
 6344TIP3    H218976   7.800   4.579   1.864
 6345TIP3   OH218977   0.613   1.382   3.713
 6345TIP3    H118978   0.686   1.441   3.736
 6345TIP3    H218979   0.613   1.381   3.617
 6346TIP3   OH218980   1.914   0.892   2.138
 6346TIP3    H118981   1.859   0.949   2.082
 6346TIP3    H218982   1.853   0.826   2.171
 6347TIP3   OH218983   6.711   6.862   1.751
 6347TIP3    H118984   6.786   6.871   1.809
 6347TIP3    H218985   6.640   6.908   1.796
 6348TIP3   OH218986   7.138   7.710   3.287
 6348TIP3    H118987   7.133   7.806   3.281
 6348TIP3    H218988   7.232   7.692   3.295
 6349TIP3   OH218989   3.776   5.296   0.487
 6349TIP3    H118990   3.765   5.364   0.553
 6349TIP3    H218991   3.870   5.276   0.489
 6350TIP3   OH218992   3.664   1.152   6.120
 6350TIP3    H118993   3.720   1.164   6.042
 6350TIP3    H218994   3.720   1.108   6.183
 6351TIP3   OH218995   5.962   1.682   4.074
 6351TIP3    H118996   5.950   1.591   4.101
 6351TIP3    H218997   5.905   1.732   4.133
 6352TIP3   OH218998   5.438   4.488   4.625
 6352TIP3    H118999   5.362   4.468   4.570
 6352TIP3    H219000   5.464   4.404   4.662
 6353TIP3   OH219001   0.775   0.573   0.298
 6353TIP3    H119002   0.728   0.505   0.249
 6353TIP3    H219003   0.817   0.627   0.230
 6354TIP3   OH219004   4.148   5.100   1.854
 6354TIP3    H119005   4.234   5.058   1.866
 6354TIP3    H219006   4.111   5.056   1.777
 6355TIP3   OH219007   1.577   7.360   5.142
 6355TIP3    H119008   1.582   7.451   5.111
 6355TIP3    H219009   1.557   7.310   5.063
 6356TIP3   OH219010   5.091   1.473   3.521
 6356TIP3    H119011   5.056   1.561   3.510
 6356TIP3    H219012   5.185   1.485   3.526
 6357TIP3   OH219013   4.937   7.027   2.558
 6357TIP3    H119014   4.924   7.101   2.618
 6357TIP3    H219015   4.850   6.989   2.548
 6358TIP3   OH219016   3.863   7.172   2.621
 6358TIP3    H119017   3.840   7.257   2.584
 6358TIP3    H219018   3.781   7.122   2.621
 6359TIP3   OH219019   8.119   7.766   2.560
 6359TIP3    H119020   8.189   7.755   2.624
 6359TIP3    H219021   8.129   7.856   2.529
 6360TIP3   OH219022   7.232   1.260   5.514
 6360TIP3    H119023   7.265   1.283   5.600
 6360TIP3    H219024   7.308   1.221   5.469
 6361TIP3   OH219025   3.429   2.666   5.485
 6361TIP3    H119026   3.363   2.659   5.417
 6361TIP3    H219027   3.482   2.741   5.458
 6362TIP3   OH219028   5.618   1.665   4.451
 6362TIP3    H119029   5.712   1.646   4.443
 6362TIP3    H219030   5.612   1.720   4.530
 6363TIP3   OH219031   1.627   6.597   3.039
 6363TIP3    H119032   1.702   6.567   2.988
 6363TIP3    H219033   1.666   6.649   3.110
 6364TIP3   OH219034   2.213   6.550   3.948
 6364TIP3    H119035   2.169   6.467   3.960
 6364TIP3    H219036   2.220   6.587   4.036
 6365TIP3   OH219037   2.830   3.123   3.763
 6365TIP3    H119038   2.786   3.144   3.681
 6365TIP3    H219039   2.917   3.092   3.736
 6366TIP3   OH219040   4.038   3.270   4.296
 6366TIP3    H119041   3.988   3.225   4.364
 6366TIP3    H219042   3.974   3.285   4.226
 6367TIP3   OH219043   4.020   0.909   1.181
 6367TIP3    H119044   3.942   0.855   1.187
 6367TIP3    H219045   4.003   0.968   1.107
 6368TIP3   OH219046   5.511   1.286   1.719
 6368TIP3    H119047   5.426   1.323   1.741
 6368TIP3    H219048   5.567   1.309   1.794
 6369TIP3   OH219049   4.980   0.209   6.235
 6369TIP3    H119050   4.894   0.169   6.242
 6369TIP3    H219051   4.971   0.272   6.163
 6370TIP3   OH219052   4.765   7.316   3.337
 6370TIP3    H119053   4.785   7.393   3.284
 6370TIP3    H219054   4.713   7.350   3.410
 6371TIP3   OH219055   0.792   3.667   2.920
 6371TIP3    H119056   0.760   3.680   3.010
 6371TIP3    H219057   0.764   3.579   2.897
 6372TIP3   OH219058   2.320   1.323   3.763
 6372TIP3    H119059   2.230   1.324   3.796
 6372TIP3    H219060   2.335   1.233   3.736
 6373TIP3   OH219061   6.425   5.411   4.768
 6373TIP3    H119062   6.438   5.416   4.863
 6373TIP3    H219063   6.508   5.442   4.731
 6374TIP3   OH219064   0.656   0.548   5.425
 6374TIP3    H119065   0.662   0.458   5.393
 6374TIP3    H219066   0.742   0.586   5.405
 6375TIP3   OH219067   5.951   6.261   5.642
 6375TIP3    H119068   6.006   6.308   5.705
 6375TIP3    H219069   5.936   6.323   5.571
 6376TIP3   OH219070   0.092   6.290   1.907
 6376TIP3    H119071   0.186   6.270   1.905
 6376TIP3    H219072   0.049   6.205   1.909
 6377TIP3   OH219073   6.785   0.045   4.016
 6377TIP3    H119074   6.828   0.082   3.939
 6377TIP3    H219075   6.856   0.014   4.071
 6378TIP3   OH219076   5.587   0.158   2.292
 6378TIP3    H119077   5.508   0.196   2.256
 6378TIP3    H219078   5.575   0.160   2.386
 6379TIP3   OH219079   5.937   3.954   3.881
 6379TIP3    H119080   5.931   3.921   3.970
 6379TIP3    H219081   5.911   4.047   3.887
 6380TIP3   OH219082   5.359   4.028   5.588
 6380TIP3    H119083   5.294   4.011   5.521
 6380TIP3    H219084   5.368   4.123   5.590
 6381TIP3   OH219085   5.924   3.154   3.903
 6381TIP3    H119086   5.924   3.203   3.821
 6381TIP3    H219087   5.860   3.199   3.958
 6382TIP3   OH219088   3.721   0.795   2.719
 6382TIP3    H119089   3.704   0.877   2.672
 6382TIP3    H219090   3.762   0.823   2.801
 6383TIP3   OH219091   6.272   1.134   1.688
 6383TIP3    H119092   6.194   1.094   1.729
 6383TIP3    H219093   6.316   1.179   1.760
 6384TIP3   OH219094   1.471   2.010   0.595
 6384TIP3    H119095   1.497   1.949   0.663
 6384TIP3    H219096   1.375   2.011   0.599
 6385TIP3   OH219097   1.355   3.196   1.413
 6385TIP3    H119098   1.390   3.112   1.444
 6385TIP3    H219099   1.414   3.223   1.343
 6386TIP3   OH219100   1.011   2.988   1.658
 6386TIP3    H119101   1.007   2.971   1.564
 6386TIP3    H219102   1.043   2.906   1.696
 6387TIP3   OH219103   4.431   3.663   6.640
 6387TIP3    H119104   4.424   3.686   6.733
 6387TIP3    H219105   4.478   3.737   6.601
 6388TIP3   OH219106   0.051   1.414   4.564
 6388TIP3    H119107  -0.007   1.436   4.637
 6388TIP3    H219108  -0.004   1.364   4.504
 6389TIP3   OH219109   4.628   1.456   2.529
 6389TIP3    H119110   4.600   1.508   2.453
 6389TIP3    H219111   4.713   1.493   2.553
 6390TIP3   OH219112   1.783   4.790   3.330
 6390TIP3    H119113   1.701   4.793   3.280
 6390TIP3    H219114   1.815   4.880   3.331
 6391TIP3   OH219115   3.216   6.112   3.958
 6391TIP3    H119116   3.273   6.189   3.952
 6391TIP3    H219117   3.266   6.042   3.915
 6392TIP3   OH219118   6.763   7.276   4.632
 6392TIP3    H119119   6.858   7.274   4.635
 6392TIP3    H219120   6.735   7.213   4.698
 6393TIP3   OH219121   4.188   3.526   1.662
 6393TIP3    H119122   4.142   3.582   1.725
 6393TIP3    H219123   4.258   3.485   1.713
 6394TIP3   OH219124   0.949   0.748   1.693
 6394TIP3    H119125   0.960   0.653   1.684
 6394TIP3    H219126   0.862   0.766   1.657
 6395TIP3   OH219127   6.459   7.124   1.581
 6395TIP3    H119128   6.494   7.164   1.501
 6395TIP3    H219129   6.370   7.099   1.558
 6396TIP3   OH219130   5.118   3.000   6.138
 6396TIP3    H119131   5.139   3.067   6.072
 6396TIP3    H219132   5.040   3.034   6.182
 6397TIP3   OH219133   2.458   6.773   3.695
 6397TIP3    H119134   2.393   6.843   3.706
 6397TIP3    H219135   2.457   6.754   3.601
 6398TIP3   OH219136   7.259   3.131   6.034
 6398TIP3    H119137   7.168   3.157   6.021
 6398TIP3    H219138   7.267   3.048   5.986
 6399TIP3   OH219139   5.865   7.503   0.511
 6399TIP3    H119140   5.809   7.538   0.442
 6399TIP3    H219141   5.827   7.536   0.592
 6400TIP3   OH219142   0.046   4.147   2.099
 6400TIP3    H119143   0.037   4.055   2.124
 6400TIP3    H219144   0.110   4.183   2.161
 6401TIP3   OH219145   6.803   4.594   4.807
 6401TIP3    H119146   6.734   4.541   4.846
 6401TIP3    H219147   6.847   4.635   4.882
 6402TIP3   OH219148   1.986   3.758   0.947
 6402TIP3    H119149   2.012   3.769   0.856
 6402TIP3    H219150   2.029   3.678   0.975
 6403TIP3   OH219151   0.599   3.325   5.242
 6403TIP3    H119152   0.631   3.380   5.313
 6403TIP3    H219153   0.518   3.366   5.213
 6404TIP3   OH219154   4.967   2.177   1.795
 6404TIP3    H119155   5.062   2.164   1.791
 6404TIP3    H219156   4.951   2.211   1.883
 6405TIP3   OH219157   7.889   4.530   2.315
 6405TIP3    H119158   7.938   4.595   2.365
 6405TIP3    H219159   7.799   4.562   2.317
 6406TIP3   OH219160   6.884   4.350   5.624
 6406TIP3    H119161   6.839   4.410   5.565
 6406TIP3    H219162   6.816   4.322   5.686
 6407TIP3   OH219163   1.226   0.183   4.712
 6407TIP3    H119164   1.198   0.269   4.742
 6407TIP3    H219165   1.153   0.124   4.734
 6408TIP3   OH219166   4.599   2.856   0.979
 6408TIP3    H119167   4.595   2.887   1.070
 6408TIP3    H219168   4.659   2.782   0.982
 6409TIP3   OH219169   0.390   0.380   5.351
 6409TIP3    H119170   0.295   0.387   5.341
 6409TIP3    H219171   0.404   0.376   5.446
 6410TIP3   OH219172   4.412   1.450   0.338
 6410TIP3    H119173   4.472   1.442   0.412
 6410TIP3    H219174   4.325   1.451   0.378
 6411TIP3   OH219175   4.070   0.059   1.399
 6411TIP3    H119176   4.084  -0.009   1.465
 6411TIP3    H219177   3.977   0.050   1.375
 6412TIP3   OH219178   8.254   4.392   3.595
 6412TIP3    H119179   8.173   4.342   3.588
 6412TIP3    H219180   8.310   4.340   3.653
 6413TIP3   OH219181   2.876   7.499   1.565
 6413TIP3    H119182   2.951   7.442   1.546
 6413TIP3    H219183   2.813   7.442   1.608
 6414TIP3   OH219184   6.623   0.096   4.838
 6414TIP3    H119185   6.609   0.149   4.916
 6414TIP3    H219186   6.718   0.080   4.837
 6415TIP3   OH219187   2.920   1.986   1.665
 6415TIP3    H119188   2.827   1.979   1.687
 6415TIP3    H219189   2.936   2.080   1.661
 6416TIP3   OH219190   0.407   4.950   1.506
 6416TIP3    H119191   0.402   4.929   1.413
 6416TIP3    H219192   0.497   4.929   1.531
 6417TIP3   OH219193   5.784   3.683   2.432
 6417TIP3    H119194   5.747   3.725   2.509
 6417TIP3    H219195   5.787   3.752   2.365
 6418TIP3   OH219196   4.122   0.676   6.663
 6418TIP3    H119197   4.150   0.744   6.603
 6418TIP3    H219198   4.201   0.656   6.714
 6419TIP3   OH219199   0.049   1.869   0.139
 6419TIP3    H119200   0.020   1.917   0.061
 6419TIP3    H219201   0.132   1.829   0.114
 6420TIP3   OH219202   0.381   5.648   4.090
 6420TIP3    H119203   0.429   5.687   4.163
 6420TIP3    H219204   0.294   5.688   4.094
 6421TIP3   OH219205   3.395   3.935   3.447
 6421TIP3    H119206   3.307   3.955   3.416
 6421TIP3    H219207   3.398   3.971   3.536
 6422TIP3   OH219208   3.443   5.608   4.635
 6422TIP3    H119209   3.514   5.568   4.685
 6422TIP3    H219210   3.365   5.561   4.663
 6423TIP3   OH219211   6.097   6.605   1.713
 6423TIP3    H119212   6.126   6.615   1.622
 6423TIP3    H219213   6.176   6.618   1.765
 6424TIP3   OH219214   4.640   2.585   3.054
 6424TIP3    H119215   4.641   2.610   2.961
 6424TIP3    H219216   4.688   2.655   3.098
 6425TIP3   OH219217   0.806   3.438   1.355
 6425TIP3    H119218   0.819   3.451   1.261
 6425TIP3    H219219   0.801   3.527   1.391
 6426TIP3   OH219220   6.125   4.465   1.838
 6426TIP3    H119221   6.140   4.375   1.808
 6426TIP3    H219222   6.080   4.456   1.922
 6427TIP3   OH219223   5.836   1.149   0.793
 6427TIP3    H119224   5.823   1.089   0.866
 6427TIP3    H219225   5.834   1.236   0.832
 6428TIP3   OH219226   1.548   2.188   6.298
 6428TIP3    H119227   1.549   2.100   6.259
 6428TIP3    H219228   1.591   2.243   6.233
 6429TIP3   OH219229   3.116   0.237   5.403
 6429TIP3    H119230   3.047   0.267   5.462
 6429TIP3    H219231   3.177   0.311   5.397
 6430TIP3   OH219232   0.728   4.403   4.536
 6430TIP3    H119233   0.646   4.425   4.491
 6430TIP3    H219234   0.782   4.362   4.469
 6431TIP3   OH219235   6.523   1.208   4.465
 6431TIP3    H119236   6.508   1.118   4.437
 6431TIP3    H219237   6.467   1.218   4.542
 6432TIP3   OH219238   3.367   3.411   4.414
 6432TIP3    H119239   3.285   3.435   4.370
 6432TIP3    H219240   3.418   3.492   4.417
 6433TIP3   OH219241   6.390   2.101   5.775
 6433TIP3    H119242   6.298   2.081   5.761
 6433TIP3    H219243   6.436   2.050   5.708
 6434TIP3   OH219244   4.541   0.250   2.144
 6434TIP3    H119245   4.456   0.284   2.115
 6434TIP3    H219246   4.605   0.310   2.105
 6435TIP3   OH219247   7.493   6.714   4.511
 6435TIP3    H119248   7.525   6.675   4.593
 6435TIP3    H219249   7.544   6.794   4.501
 6436TIP3   OH219250   0.397   7.293   3.147
 6436TIP3    H119251   0.381   7.367   3.204
 6436TIP3    H219252   0.351   7.314   3.066
 6437TIP3   OH219253   3.845   7.166   6.504
 6437TIP3    H119254   3.771   7.220   6.532
 6437TIP3    H219255   3.845   7.173   6.408
 6438TIP3   OH219256   7.991   0.254   3.364
 6438TIP3    H119257   7.929   0.249   3.291
 6438TIP3    H219258   7.991   0.346   3.389
 6439TIP3   OH219259   6.243   6.844   5.063
 6439TIP3    H119260   6.229   6.756   5.030
 6439TIP3    H219261   6.276   6.832   5.152
 6440TIP3   OH219262   4.694   6.986   1.961
 6440TIP3    H119263   4.730   6.984   1.872
 6440TIP3    H219264   4.758   7.037   2.011
 6441TIP3   OH219265   2.965   1.007   2.477
 6441TIP3    H119266   2.966   0.972   2.566
 6441TIP3    H219267   3.011   0.941   2.425
 6442TIP3   OH219268   0.077   0.003   2.012
 6442TIP3    H119269   0.015   0.070   1.982
 6442TIP3    H219270   0.115   0.039   2.091
 6443TIP3   OH219271   3.692   0.817   3.303
 6443TIP3    H119272   3.612   0.870   3.306
 6443TIP3    H219273   3.758   0.872   3.345
 6444TIP3   OH219274   0.398   4.310   0.874
 6444TIP3    H119275   0.448   4.388   0.897
 6444TIP3    H219276   0.464   4.241   0.864
 6445TIP3   OH219277   8.155   6.140   0.895
 6445TIP3    H119278   8.224   6.198   0.928
 6445TIP3    H219279   8.145   6.073   0.962
 6446TIP3   OH219280   3.041   2.560   2.970
 6446TIP3    H119281   3.050   2.470   2.999
 6446TIP3    H219282   3.106   2.571   2.901
 6447TIP3   OH219283   2.898   6.008   4.401
 6447TIP3    H119284   2.942   6.001   4.316
 6447TIP3    H219285   2.967   5.991   4.465
 6448TIP3   OH219286   2.336   3.078   1.302
 6448TIP3    H119287   2.394   3.154   1.310
 6448TIP3    H219288   2.254   3.114   1.268
 6449TIP3   OH219289   0.343   5.740   1.935
 6449TIP3    H119290   0.360   5.666   1.993
 6449TIP3    H219291   0.378   5.816   1.982
 6450TIP3   OH219292   4.074   3.570   1.216
 6450TIP3    H119293   4.164   3.600   1.216
 6450TIP3    H219294   4.034   3.612   1.292
 6451TIP3   OH219295   2.707   2.919   6.476
 6451TIP3    H119296   2.710   2.897   6.383
 6451TIP3    H219297   2.702   3.015   6.478
 6452TIP3   OH219298   1.233   4.925   4.446
 6452TIP3    H119299   1.200   4.913   4.357
 6452TIP3    H219300   1.154   4.929   4.500
 6453TIP3   OH219301   3.728   2.200   5.377
 6453TIP3    H119302   3.722   2.201   5.282
 6453TIP3    H219303   3.643   2.232   5.408
 6454TIP3   OH219304   1.328   7.321   6.658
 6454TIP3    H119305   1.376   7.258   6.605
 6454TIP3    H219306   1.254   7.347   6.603
 6455TIP3   OH219307   2.136   6.335   5.949
 6455TIP3    H119308   2.114   6.264   6.009
 6455TIP3    H219309   2.231   6.337   5.947
 6456TIP3   OH219310   1.523   7.232   1.472
 6456TIP3    H119311   1.511   7.154   1.527
 6456TIP3    H219312   1.617   7.242   1.464
 6457TIP3   OH219313   0.103   6.072   0.368
 6457TIP3    H119314   0.077   6.018   0.293
 6457TIP3    H219315   0.157   6.015   0.421
 6458TIP3   OH219316   2.278   0.750   3.035
 6458TIP3    H119317   2.349   0.812   3.020
 6458TIP3    H219318   2.276   0.739   3.130
 6459TIP3   OH219319   1.705   4.688   5.054
 6459TIP3    H119320   1.706   4.681   5.150
 6459TIP3    H219321   1.614   4.708   5.033
 6460TIP3   OH219322   4.142   7.549   4.437
 6460TIP3    H119323   4.191   7.549   4.519
 6460TIP3    H219324   4.053   7.574   4.463
 6461TIP3   OH219325   7.236   4.886   0.637
 6461TIP3    H119326   7.200   4.863   0.551
 6461TIP3    H219327   7.227   4.806   0.688
 6462TIP3   OH219328   5.572   0.916   0.800
 6462TIP3    H119329   5.596   0.861   0.725
 6462TIP3    H219330   5.647   0.910   0.859
 6463TIP3   OH219331   5.629   3.135   5.179
 6463TIP3    H119332   5.605   3.187   5.103
 6463TIP3    H219333   5.551   3.084   5.199
 6464TIP3   OH219334   0.322   0.281   2.757
 6464TIP3    H119335   0.258   0.338   2.801
 6464TIP3    H219336   0.286   0.193   2.766
 6465TIP3   OH219337   0.175   0.079   1.151
 6465TIP3    H119338   0.209   0.000   1.193
 6465TIP3    H219339   0.152   0.050   1.062
 6466TIP3   OH219340   1.015   7.150   2.264
 6466TIP3    H119341   0.948   7.212   2.294
 6466TIP3    H219342   1.002   7.145   2.169
 6467TIP3   OH219343   5.440   6.148   2.598
 6467TIP3    H119344   5.512   6.129   2.538
 6467TIP3    H219345   5.404   6.062   2.621
 6468TIP3   OH219346   7.881   3.530   6.544
 6468TIP3    H119347   7.948   3.566   6.603
 6468TIP3    H219348   7.836   3.464   6.596
 6469TIP3   OH219349   3.853   6.390   5.164
 6469TIP3    H119350   3.873   6.466   5.109
 6469TIP3    H219351   3.826   6.428   5.248
 6470TIP3   OH219352   6.469   2.118   6.336
 6470TIP3    H119353   6.461   2.055   6.265
 6470TIP3    H219354   6.555   2.159   6.323
 6471TIP3   OH219355   3.458   1.767   1.289
 6471TIP3    H119356   3.493   1.823   1.358
 6471TIP3    H219357   3.398   1.707   1.335
 6472TIP3   OH219358   3.605   7.513   0.887
 6472TIP3    H119359   3.511   7.529   0.900
 6472TIP3    H219360   3.618   7.524   0.792
 6473TIP3   OH219361   1.675   5.914   6.375
 6473TIP3    H119362   1.766   5.892   6.396
 6473TIP3    H219363   1.641   5.836   6.333
 6474TIP3   OH219364   4.519   1.969   1.803
 6474TIP3    H119365   4.613   1.977   1.791
 6474TIP3    H219366   4.494   2.047   1.852
 6475TIP3   OH219367   2.503   1.376   4.597
 6475TIP3    H119368   2.445   1.450   4.580
 6475TIP3    H219369   2.504   1.327   4.515
 6476TIP3   OH219370   4.368   6.247   0.019
 6476TIP3    H119371   4.299   6.185  -0.008
 6476TIP3    H219372   4.336   6.332  -0.009
 6477TIP3   OH219373   7.724   0.386   2.442
 6477TIP3    H119374   7.760   0.321   2.502
 6477TIP3    H219375   7.664   0.336   2.386
 6478TIP3   OH219376   0.623   3.586   5.867
 6478TIP3    H119377   0.580   3.569   5.784
 6478TIP3    H219378   0.715   3.562   5.852
 6479TIP3   OH219379   2.691   4.652   3.282
 6479TIP3    H119380   2.637   4.573   3.273
 6479TIP3    H219381   2.675   4.681   3.372
 6480TIP3   OH219382   1.178   2.589   5.363
 6480TIP3    H119383   1.210   2.579   5.453
 6480TIP3    H219384   1.136   2.675   5.362
 6481TIP3   OH219385   4.094   0.404   4.259
 6481TIP3    H119386   4.183   0.402   4.223
 6481TIP3    H219387   4.106   0.409   4.354
 6482TIP3   OH219388   3.649   0.059   5.722
 6482TIP3    H119389   3.668   0.080   5.814
 6482TIP3    H219390   3.718   0.104   5.672
 6483TIP3   OH219391   7.962   4.855   6.827
 6483TIP3    H119392   8.036   4.867   6.886
 6483TIP3    H219393   7.940   4.762   6.836
 6484TIP3   OH219394   5.829   7.344   1.101
 6484TIP3    H119395   5.797   7.286   1.171
 6484TIP3    H219396   5.791   7.307   1.021
 6485TIP3   OH219397   5.750   2.034   6.017
 6485TIP3    H119398   5.690   2.090   6.066
 6485TIP3    H219399   5.819   2.094   5.987
 6486TIP3   OH219400   3.456   1.428   4.976
 6486TIP3    H119401   3.507   1.428   4.895
 6486TIP3    H219402   3.383   1.488   4.958
 6487TIP3   OH219403   3.024   4.879   2.916
 6487TIP3    H119404   2.992   4.820   2.983
 6487TIP3    H219405   2.945   4.921   2.881
 6488TIP3   OH219406   5.382   2.261   0.094
 6488TIP3    H119407   5.350   2.232   0.008
 6488TIP3    H219408   5.471   2.226   0.098
 6489TIP3   OH219409   4.026   1.237   1.031
 6489TIP3    H119410   3.970   1.165   1.001
 6489TIP3    H219411   4.114   1.212   1.002
 6490TIP3   OH219412   3.452   5.333   0.770
 6490TIP3    H119413   3.505   5.411   0.752
 6490TIP3    H219414   3.366   5.367   0.794
 6491TIP3   OH219415   5.079   5.307   4.775
 6491TIP3    H119416   5.120   5.223   4.791
 6491TIP3    H219417   5.144   5.358   4.727
 6492TIP3   OH219418   7.356   3.971   1.289
 6492TIP3    H119419   7.357   3.998   1.197
 6492TIP3    H219420   7.268   3.938   1.303
 6493TIP3   OH219421   4.800   5.197   0.413
 6493TIP3    H119422   4.710   5.198   0.379
 6493TIP3    H219423   4.853   5.226   0.338
 6494TIP3   OH219424   1.317   2.206   6.464
 6494TIP3    H119425   1.272   2.124   6.445
 6494TIP3    H219426   1.392   2.207   6.404
 6495TIP3   OH219427   1.514   2.874   4.473
 6495TIP3    H119428   1.500   2.901   4.382
 6495TIP3    H219429   1.548   2.953   4.516
 6496TIP3   OH219430   3.128   6.691   0.249
 6496TIP3    H119431   3.079   6.672   0.168
 6496TIP3    H219432   3.099   6.622   0.309
 6497TIP3   OH219433   5.206   2.327   5.565
 6497TIP3    H119434   5.293   2.341   5.602
 6497TIP3    H219435   5.221   2.323   5.470
 6498TIP3   OH219436   2.436   5.726   5.824
 6498TIP3    H119437   2.378   5.739   5.900
 6498TIP3    H219438   2.387   5.764   5.751
 6499TIP3   OH219439   3.528   4.256   6.005
 6499TIP3    H119440   3.435   4.275   5.995
 6499TIP3    H219441   3.564   4.270   5.917
 6500TIP3   OH219442   7.753   5.678   5.238
 6500TIP3    H119443   7.771   5.717   5.153
 6500TIP3    H219444   7.737   5.585   5.219
 6501TIP3   OH219445   1.631   1.117   3.196
 6501TIP3    H119446   1.580   1.190   3.161
 6501TIP3    H219447   1.707   1.159   3.237
 6502TIP3   OH219448   5.369   6.618   6.274
 6502TIP3    H119449   5.373   6.698   6.325
 6502TIP3    H219450   5.289   6.575   6.303
 6503TIP3   OH219451   6.715   1.074   4.133
 6503TIP3    H119452   6.767   1.146   4.169
 6503TIP3    H219453   6.645   1.060   4.196
 6504TIP3   OH219454   3.710   0.105   4.375
 6504TIP3    H119455   3.747   0.029   4.421
 6504TIP3    H219456   3.783   0.138   4.322
 6505TIP3   OH219457   2.713   7.185   1.383
 6505TIP3    H119458   2.760   7.259   1.345
 6505TIP3    H219459   2.757   7.107   1.349
 6506TIP3   OH219460   6.948   7.411   1.511
 6506TIP3    H119461   6.925   7.470   1.439
 6506TIP3    H219462   6.924   7.324   1.479
 6507TIP3   OH219463   4.503   7.274   6.628
 6507TIP3    H119464   4.423   7.235   6.593
 6507TIP3    H219465   4.570   7.207   6.614
 6508TIP3   OH219466   3.494   3.812   1.705
 6508TIP3    H119467   3.569   3.757   1.687
 6508TIP3    H219468   3.421   3.769   1.661
 6509TIP3   OH219469   3.340   5.305   5.910
 6509TIP3    H119470   3.330   5.270   5.998
 6509TIP3    H219471   3.298   5.391   5.913
 6510TIP3   OH219472   0.598   7.455   6.612
 6510TIP3    H119473   0.670   7.509   6.646
 6510TIP3    H219474   0.605   7.462   6.517
 6511TIP3   OH219475   2.774   6.883   6.481
 6511TIP3    H119476   2.828   6.961   6.486
 6511TIP3    H219477   2.827   6.814   6.520
 6512TIP3   OH219478   2.834   6.905   4.016
 6512TIP3    H119479   2.797   6.874   3.934
 6512TIP3    H219480   2.783   6.861   4.084
 6513TIP3   OH219481   2.080   2.761   6.672
 6513TIP3    H119482   2.012   2.795   6.729
 6513TIP3    H219483   2.093   2.670   6.700
 6514TIP3   OH219484   2.305   7.015   4.900
 6514TIP3    H119485   2.314   6.939   4.843
 6514TIP3    H219486   2.223   7.000   4.947
 6515TIP3   OH219487   4.879   7.420   5.184
 6515TIP3    H119488   4.915   7.361   5.250
 6515TIP3    H219489   4.923   7.503   5.199
 6516TIP3   OH219490   6.213   0.844   1.297
 6516TIP3    H119491   6.162   0.913   1.254
 6516TIP3    H219492   6.147   0.783   1.330
 6517TIP3   OH219493   7.842   7.123   4.395
 6517TIP3    H119494   7.787   7.200   4.377
 6517TIP3    H219495   7.896   7.114   4.317
 6518TIP3   OH219496   4.540   1.242   5.156
 6518TIP3    H119497   4.618   1.297   5.163
 6518TIP3    H219498   4.473   1.299   5.119
 6519TIP3   OH219499   2.699   6.762   1.655
 6519TIP3    H119500   2.728   6.817   1.583
 6519TIP3    H219501   2.605   6.778   1.662
 6520TIP3   OH219502   3.343   7.452   3.117
 6520TIP3    H119503   3.330   7.533   3.067
 6520TIP3    H219504   3.438   7.442   3.122
 6521TIP3   OH219505   5.168   3.304   1.594
 6521TIP3    H119506   5.119   3.378   1.630
 6521TIP3    H219507   5.181   3.326   1.502
 6522TIP3   OH219508   2.867   4.481   0.957
 6522TIP3    H119509   2.917   4.484   0.876
 6522TIP3    H219510   2.830   4.393   0.960
 6523TIP3   OH219511   1.102   3.760   5.653
 6523TIP3    H119512   1.101   3.687   5.591
 6523TIP3    H219513   1.014   3.797   5.647
 6524TIP3   OH219514   5.456   6.682   3.031
 6524TIP3    H119515   5.417   6.714   3.112
 6524TIP3    H219516   5.436   6.750   2.967
 6525TIP3   OH219517   1.658   1.889   1.226
 6525TIP3    H119518   1.570   1.868   1.193
 6525TIP3    H219519   1.711   1.900   1.147
 6526TIP3   OH219520   1.745   5.127   1.468
 6526TIP3    H119521   1.676   5.068   1.439
 6526TIP3    H219522   1.815   5.069   1.498
 6527TIP3   OH219523   6.921   3.508   5.123
 6527TIP3    H119524   6.973   3.453   5.065
 6527TIP3    H219525   6.974   3.588   5.133
 6528TIP3   OH219526   1.648   4.046   5.538
 6528TIP3    H119527   1.674   4.092   5.459
 6528TIP3    H219528   1.682   4.101   5.609
 6529TIP3   OH219529   4.898   3.773   5.224
 6529TIP3    H119530   4.868   3.701   5.279
 6529TIP3    H219531   4.943   3.832   5.285
 6530TIP3   OH219532   8.027   3.992   2.049
 6530TIP3    H119533   8.005   3.956   2.135
 6530TIP3    H219534   8.059   4.080   2.068
 6531TIP3   OH219535   4.231   6.718   0.737
 6531TIP3    H119536   4.239   6.812   0.750
 6531TIP3    H219537   4.321   6.688   0.722
 6532TIP3   OH219538   0.725   5.434   2.477
 6532TIP3    H119539   0.681   5.397   2.553
 6532TIP3    H219540   0.812   5.458   2.509
 6533TIP3   OH219541   2.811   7.682   2.053
 6533TIP3    H119542   2.813   7.721   1.966
 6533TIP3    H219543   2.804   7.588   2.037
 6534TIP3   OH219544   3.385   5.012   3.975
 6534TIP3    H119545   3.411   5.081   3.915
 6534TIP3    H219546   3.467   4.970   4.001
 6535TIP3   OH219547   3.347   3.096   2.904
 6535TIP3    H119548   3.273   3.074   2.961
 6535TIP3    H219549   3.309   3.149   2.834
 6536TIP3   OH219550   4.524   4.461   0.370
 6536TIP3    H119551   4.578   4.390   0.337
 6536TIP3    H219552   4.555   4.539   0.323
 6537TIP3   OH219553   3.816   3.312   3.407
 6537TIP3    H119554   3.876   3.386   3.412
 6537TIP3    H219555   3.871   3.237   3.385
 6538TIP3   OH219556   1.217   6.584   2.980
 6538TIP3    H119557   1.216   6.674   2.947
 6538TIP3    H219558   1.135   6.576   3.028
 6539TIP3   OH219559   0.349   3.573   0.143
 6539TIP3    H119560   0.416   3.593   0.078
 6539TIP3    H219561   0.278   3.634   0.124
 6540TIP3   OH219562   5.808   2.448   6.042
 6540TIP3    H119563   5.820   2.420   5.951
 6540TIP3    H219564   5.753   2.381   6.081
 6541TIP3   OH219565   7.792   0.875   4.243
 6541TIP3    H119566   7.840   0.792   4.244
 6541TIP3    H219567   7.808   0.910   4.156
 6542TIP3   OH219568   0.189   5.596   1.018
 6542TIP3    H119569   0.126   5.539   1.062
 6542TIP3    H219570   0.222   5.654   1.087
 6543TIP3   OH219571   7.204   1.395   4.697
 6543TIP3    H119572   7.205   1.356   4.785
 6543TIP3    H219573   7.251   1.478   4.707
 6544TIP3   OH219574   0.123   7.078   2.647
 6544TIP3    H119575   0.077   7.001   2.612
 6544TIP3    H219576   0.185   7.042   2.711
 6545TIP3   OH219577   5.919   6.709   0.535
 6545TIP3    H119578   5.927   6.762   0.456
 6545TIP3    H219579   5.995   6.733   0.588
 6546TIP3   OH219580   1.140   1.658   0.534
 6546TIP3    H119581   1.051   1.634   0.559
 6546TIP3    H219582   1.130   1.708   0.453
 6547TIP3   OH219583   8.320   1.673   0.745
 6547TIP3    H119584   8.323   1.623   0.664
 6547TIP3    H219585   8.231   1.658   0.778
 6548TIP3   OH219586   6.769   4.300   0.811
 6548TIP3    H119587   6.795   4.388   0.838
 6548TIP3    H219588   6.730   4.312   0.725
 6549TIP3   OH219589   5.471   4.009   0.994
 6549TIP3    H119590   5.480   3.989   0.900
 6549TIP3    H219591   5.540   4.073   1.011
 6550TIP3   OH219592   2.112   1.062   2.560
 6550TIP3    H119593   2.037   1.119   2.575
 6550TIP3    H219594   2.093   1.018   2.477
 6551TIP3   OH219595   0.381   3.522   2.257
 6551TIP3    H119596   0.431   3.589   2.210
 6551TIP3    H219597   0.445   3.482   2.316
 6552TIP3   OH219598   0.090   0.900   0.347
 6552TIP3    H119599   0.181   0.872   0.356
 6552TIP3    H219600   0.041   0.841   0.405
 6553TIP3   OH219601   7.342   7.278   1.339
 6553TIP3    H119602   7.420   7.250   1.291
 6553TIP3    H219603   7.376   7.330   1.412
 6554TIP3   OH219604   6.793   2.330   1.410
 6554TIP3    H119605   6.837   2.276   1.344
 6554TIP3    H219606   6.701   2.329   1.384
 6555TIP3   OH219607   6.859   1.522   5.170
 6555TIP3    H119608   6.829   1.511   5.079
 6555TIP3    H219609   6.860   1.434   5.206
 6556TIP3   OH219610   1.599   1.856   6.780
 6556TIP3    H119611   1.607   1.860   6.684
 6556TIP3    H219612   1.603   1.763   6.800
 6557TIP3   OH219613   5.578   7.045   2.620
 6557TIP3    H119614   5.523   7.115   2.656
 6557TIP3    H219615   5.566   7.051   2.525
 6558TIP3   OH219616   6.399   4.050   3.482
 6558TIP3    H119617   6.361   3.963   3.495
 6558TIP3    H219618   6.446   4.068   3.564
 6559TIP3   OH219619   1.520   7.629   5.025
 6559TIP3    H119620   1.503   7.693   4.955
 6559TIP3    H219621   1.485   7.671   5.104
 6560TIP3   OH219622   5.944   6.962   0.754
 6560TIP3    H119623   5.928   6.916   0.837
 6560TIP3    H219624   5.995   7.039   0.780
 6561TIP3   OH219625   0.253   0.667   3.776
 6561TIP3    H119626   0.291   0.581   3.757
 6561TIP3    H219627   0.190   0.682   3.706
 6562TIP3   OH219628   3.615   0.618   0.188
 6562TIP3    H119629   3.655   0.701   0.215
 6562TIP3    H219630   3.534   0.613   0.239
 6563TIP3   OH219631   5.181   6.701   4.886
 6563TIP3    H119632   5.259   6.698   4.830
 6563TIP3    H219633   5.111   6.731   4.827
 6564TIP3   OH219634   2.167   4.070   3.048
 6564TIP3    H119635   2.092   4.036   3.098
 6564TIP3    H219636   2.159   4.165   3.057
 6565TIP3   OH219637   3.616   4.018   0.693
 6565TIP3    H119638   3.560   3.961   0.640
 6565TIP3    H219639   3.657   3.960   0.756
 6566TIP3   OH219640   6.057   4.784   4.602
 6566TIP3    H119641   6.138   4.826   4.577
 6566TIP3    H219642   6.052   4.706   4.547
 6567TIP3   OH219643   7.543   5.204   2.526
 6567TIP3    H119644   7.468   5.222   2.469
 6567TIP3    H219645   7.517   5.127   2.575
 6568TIP3   OH219646   2.116   4.942   3.459
 6568TIP3    H119647   2.102   4.943   3.554
 6568TIP3    H219648   2.175   5.016   3.443
 6569TIP3   OH219649   7.956   4.027   3.005
 6569TIP3    H119650   7.954   4.107   2.951
 6569TIP3    H219651   7.908   4.051   3.084
 6570TIP3   OH219652   4.442   6.640   3.931
 6570TIP3    H119653   4.387   6.718   3.930
 6570TIP3    H219654   4.522   6.666   3.885
 6571TIP3   OH219655   7.743   1.815   4.141
 6571TIP3    H119656   7.818   1.775   4.097
 6571TIP3    H219657   7.676   1.821   4.073
 6572TIP3   OH219658   7.484   6.236   4.896
 6572TIP3    H119659   7.442   6.158   4.859
 6572TIP3    H219660   7.568   6.203   4.930
 6573TIP3   OH219661   2.712   6.723   0.953
 6573TIP3    H119662   2.637   6.724   1.012
 6573TIP3    H219663   2.687   6.781   0.881
 6574TIP3   OH219664   2.217   3.272   6.300
 6574TIP3    H119665   2.188   3.348   6.250
 6574TIP3    H219666   2.277   3.226   6.242
 6575TIP3   OH219667   1.527   2.359   3.074
 6575TIP3    H119668   1.612   2.403   3.076
 6575TIP3    H219669   1.477   2.406   3.008
 6576TIP3   OH219670   1.111   5.622   5.051
 6576TIP3    H119671   1.170   5.663   5.114
 6576TIP3    H219672   1.128   5.528   5.060
 6577TIP3   OH219673   0.659   5.155   3.645
 6577TIP3    H119674   0.634   5.073   3.604
 6577TIP3    H219675   0.580   5.210   3.638
 6578TIP3   OH219676   3.056   6.252   4.719
 6578TIP3    H119677   2.985   6.189   4.732
 6578TIP3    H219678   3.082   6.240   4.628
 6579TIP3   OH219679   2.845   2.497   0.635
 6579TIP3    H119680   2.924   2.497   0.581
 6579TIP3    H219681   2.821   2.590   0.641
 6580TIP3   OH219682   4.464   5.475   3.196
 6580TIP3    H119683   4.397   5.534   3.231
 6580TIP3    H219684   4.524   5.532   3.149
 6581TIP3   OH219685   3.775   2.233   0.593
 6581TIP3    H119686   3.825   2.222   0.673
 6581TIP3    H219687   3.824   2.185   0.527
 6582TIP3   OH219688   6.420   6.319   5.909
 6582TIP3    H119689   6.496   6.278   5.868
 6582TIP3    H219690   6.375   6.248   5.954
 6583TIP3   OH219691   3.497   5.545   1.079
 6583TIP3    H119692   3.467   5.491   1.006
 6583TIP3    H219693   3.554   5.610   1.040
 6584TIP3   OH219694   2.217   1.060   5.047
 6584TIP3    H119695   2.240   0.967   5.045
 6584TIP3    H219696   2.210   1.081   5.140
 6585TIP3   OH219697   1.852   2.865   5.190
 6585TIP3    H119698   1.900   2.809   5.128
 6585TIP3    H219699   1.815   2.934   5.136
 6586TIP3   OH219700   4.170   3.919   0.897
 6586TIP3    H119701   4.179   3.942   0.805
 6586TIP3    H219702   4.122   3.837   0.896
 6587TIP3   OH219703   7.434   4.605   2.095
 6587TIP3    H119704   7.346   4.628   2.063
 6587TIP3    H219705   7.490   4.674   2.060
 6588TIP3   OH219706   5.205   4.027   5.331
 6588TIP3    H119707   5.253   3.977   5.265
 6588TIP3    H219708   5.138   3.966   5.363
 6589TIP3   OH219709   5.776   7.102   4.962
 6589TIP3    H119710   5.776   7.136   4.872
 6589TIP3    H219711   5.857   7.051   4.968
 6590TIP3   OH219712   0.389   7.601   4.645
 6590TIP3    H119713   0.397   7.696   4.632
 6590TIP3    H219714   0.428   7.585   4.731
 6591TIP3   OH219715   3.390   2.776   6.285
 6591TIP3    H119716   3.443   2.740   6.214
 6591TIP3    H219717   3.410   2.721   6.360
 6592TIP3   OH219718   5.403   5.114   2.117
 6592TIP3    H119719   5.345   5.122   2.193
 6592TIP3    H219720   5.491   5.130   2.151
 6593TIP3   OH219721   7.027   0.500   2.400
 6593TIP3    H119722   6.948   0.512   2.452
 6593TIP3    H219723   7.082   0.575   2.423
 6594TIP3   OH219724   3.406   5.030   5.564
 6594TIP3    H119725   3.329   5.013   5.509
 6594TIP3    H219726   3.423   5.124   5.553
 6595TIP3   OH219727   3.061   5.560   0.396
 6595TIP3    H119728   3.035   5.547   0.487
 6595TIP3    H219729   3.124   5.491   0.379
 6596TIP3   OH219730   5.238   4.322   2.443
 6596TIP3    H119731   5.229   4.400   2.388
 6596TIP3    H219732   5.205   4.349   2.528
 6597TIP3   OH219733   3.537   7.046   1.655
 6597TIP3    H119734   3.504   7.101   1.584
 6597TIP3    H219735   3.627   7.024   1.630
 6598TIP3   OH219736   3.425   6.628   2.921
 6598TIP3    H119737   3.411   6.697   2.856
 6598TIP3    H219738   3.511   6.592   2.899
 6599TIP3   OH219739   1.618   7.700   0.949
 6599TIP3    H119740   1.671   7.658   1.018
 6599TIP3    H219741   1.603   7.789   0.982
 6600TIP3   OH219742   2.363   7.678   5.123
 6600TIP3    H119743   2.338   7.585   5.123
 6600TIP3    H219744   2.319   7.714   5.200
 6601TIP3   OH219745   6.951   5.054   0.328
 6601TIP3    H119746   6.971   5.120   0.394
 6601TIP3    H219747   7.035   5.034   0.287
 6602TIP3   OH219748   2.562   4.888   3.226
 6602TIP3    H119749   2.617   4.810   3.227
 6602TIP3    H219750   2.475   4.856   3.249
 6603TIP3   OH219751   7.729   6.842   6.140
 6603TIP3    H119752   7.719   6.928   6.100
 6603TIP3    H219753   7.726   6.860   6.234
 6604TIP3   OH219754   6.182   2.793   5.172
 6604TIP3    H119755   6.156   2.704   5.147
 6604TIP3    H219756   6.178   2.843   5.090
 6605TIP3   OH219757   2.326   4.873   5.181
 6605TIP3    H119758   2.351   4.958   5.144
 6605TIP3    H219759   2.284   4.894   5.264
 6606TIP3   OH219760   4.914   1.446   0.860
 6606TIP3    H119761   4.886   1.398   0.938
 6606TIP3    H219762   4.920   1.537   0.888
 6607TIP3   OH219763   4.835   3.608   1.457
 6607TIP3    H119764   4.791   3.692   1.462
 6607TIP3    H219765   4.820   3.567   1.543
 6608TIP3   OH219766   8.272   4.691   2.057
 6608TIP3    H119767   8.252   4.628   1.988
 6608TIP3    H219768   8.187   4.726   2.083
 6609TIP3   OH219769   2.398   2.236   1.635
 6609TIP3    H119770   2.465   2.168   1.626
 6609TIP3    H219771   2.413   2.294   1.561
 6610TIP3   OH219772   3.952   1.215   5.096
 6610TIP3    H119773   3.864   1.177   5.103
 6610TIP3    H219774   4.000   1.154   5.040
 6611TIP3   OH219775   1.686   6.320   6.130
 6611TIP3    H119776   1.724   6.235   6.153
 6611TIP3    H219777   1.761   6.380   6.128
 6612TIP3   OH219778   5.802   4.675   2.500
 6612TIP3    H119779   5.769   4.587   2.479
 6612TIP3    H219780   5.768   4.694   2.587
 6613TIP3   OH219781   7.285   1.895   1.093
 6613TIP3    H119782   7.367   1.853   1.068
 6613TIP3    H219783   7.259   1.945   1.015
 6614TIP3   OH219784   7.683   5.683   3.871
 6614TIP3    H119785   7.716   5.772   3.877
 6614TIP3    H219786   7.660   5.671   3.779
 6615TIP3   OH219787   0.196   4.700   5.011
 6615TIP3    H119788   0.127   4.661   5.065
 6615TIP3    H219789   0.262   4.631   5.004
 6616TIP3   OH219790   6.767   0.041   1.925
 6616TIP3    H119791   6.780  -0.004   1.841
 6616TIP3    H219792   6.678   0.075   1.921
 6617TIP3   OH219793   7.990   2.374   4.119
 6617TIP3    H119794   8.056   2.442   4.104
 6617TIP3    H219795   7.908   2.423   4.130
 6618TIP3   OH219796   6.279   0.309   3.393
 6618TIP3    H119797   6.224   0.238   3.359
 6618TIP3    H219798   6.341   0.265   3.452
 6619TIP3   OH219799   6.530   3.343   6.689
 6619TIP3    H119800   6.559   3.358   6.599
 6619TIP3    H219801   6.607   3.306   6.733
 6620TIP3   OH219802   2.946   1.162   3.886
 6620TIP3    H119803   2.896   1.223   3.833
 6620TIP3    H219804   2.941   1.198   3.975
 6621TIP3   OH219805   6.754   3.006   6.374
 6621TIP3    H119806   6.755   3.049   6.288
 6621TIP3    H219807   6.665   3.019   6.407
 6622TIP3   OH219808   4.522   5.594   2.520
 6622TIP3    H119809   4.507   5.588   2.425
 6622TIP3    H219810   4.544   5.686   2.534
 6623TIP3   OH219811   6.560   5.999   1.751
 6623TIP3    H119812   6.571   6.024   1.843
 6623TIP3    H219813   6.588   6.077   1.702
 6624TIP3   OH219814   0.911   5.080   0.986
 6624TIP3    H119815   0.889   5.027   0.909
 6624TIP3    H219816   0.941   5.163   0.949
 6625TIP3   OH219817   8.195   1.998   6.550
 6625TIP3    H119818   8.236   2.084   6.543
 6625TIP3    H219819   8.104   2.012   6.525
 6626TIP3   OH219820   6.794   4.088   3.477
 6626TIP3    H119821   6.781   4.091   3.572
 6626TIP3    H219822   6.745   4.164   3.444
 6627TIP3   OH219823   5.872   1.619   6.556
 6627TIP3    H119824   5.867   1.712   6.580
 6627TIP3    H219825   5.959   1.592   6.587
 6628TIP3   OH219826   0.807   2.532   0.545
 6628TIP3    H119827   0.890   2.568   0.514
 6628TIP3    H219828   0.806   2.442   0.514
 6629TIP3   OH219829   0.551   3.870   1.955
 6629TIP3    H119830   0.525   3.786   1.919
 6629TIP3    H219831   0.629   3.894   1.906
 6630TIP3   OH219832   7.326   3.699   0.907
 6630TIP3    H119833   7.239   3.719   0.872
 6630TIP3    H219834   7.382   3.691   0.830
 6631TIP3   OH219835   5.789   7.805   5.848
 6631TIP3    H119836   5.742   7.875   5.894
 6631TIP3    H219837   5.727   7.733   5.843
 6632TIP3   OH219838   0.639   6.620   1.909
 6632TIP3    H119839   0.553   6.631   1.950
 6632TIP3    H219840   0.624   6.555   1.840
 6633TIP3   OH219841   0.658   6.262   0.303
 6633TIP3    H119842   0.619   6.194   0.357
 6633TIP3    H219843   0.741   6.225   0.273
 6634TIP3   OH219844   3.791   5.207   4.497
 6634TIP3    H119845   3.761   5.186   4.585
 6634TIP3    H219846   3.781   5.302   4.491
 6635TIP3   OH219847   3.654   6.915   2.393
 6635TIP3    H119848   3.630   6.827   2.422
 6635TIP3    H219849   3.621   6.973   2.462
 6636TIP3   OH219850   0.945   0.867   1.340
 6636TIP3    H119851   0.879   0.932   1.362
 6636TIP3    H219852   1.005   0.912   1.281
 6637TIP3   OH219853   2.736   0.908   2.313
 6637TIP3    H119854   2.784   0.920   2.231
 6637TIP3    H219855   2.782   0.964   2.375
 6638TIP3   OH219856   0.626   5.398   2.232
 6638TIP3    H119857   0.645   5.406   2.325
 6638TIP3    H219858   0.537   5.361   2.229
 6639TIP3   OH219859   2.274   2.009   3.330
 6639TIP3    H119860   2.254   2.100   3.309
 6639TIP3    H219861   2.306   1.971   3.248
 6640TIP3   OH219862   6.625   1.972   5.284
 6640TIP3    H119863   6.711   1.984   5.245
 6640TIP3    H219864   6.605   1.879   5.270
 6641TIP3   OH219865   1.273   5.447   0.529
 6641TIP3    H119866   1.276   5.370   0.586
 6641TIP3    H219867   1.364   5.477   0.524
 6642TIP3   OH219868   1.721   3.523   4.694
 6642TIP3    H119869   1.727   3.533   4.789
 6642TIP3    H219870   1.651   3.459   4.681
 6643TIP3   OH219871   6.462   0.659   2.011
 6643TIP3    H119872   6.474   0.617   1.926
 6643TIP3    H219873   6.389   0.719   1.998
 6644TIP3   OH219874   6.127   6.441   5.746
 6644TIP3    H119875   6.126   6.463   5.839
 6644TIP3    H219876   6.113   6.525   5.701
 6645TIP3   OH219877   5.874   2.890   0.560
 6645TIP3    H119878   5.806   2.905   0.493
 6645TIP3    H219879   5.830   2.909   0.643
 6646TIP3   OH219880   8.137   3.182   3.113
 6646TIP3    H119881   8.207   3.239   3.083
 6646TIP3    H219882   8.060   3.209   3.063
 6647TIP3   OH219883   4.802   1.708   0.497
 6647TIP3    H119884   4.754   1.719   0.579
 6647TIP3    H219885   4.878   1.655   0.520
 6648TIP3   OH219886   7.025   3.638   3.229
 6648TIP3    H119887   6.984   3.710   3.277
 6648TIP3    H219888   7.034   3.568   3.293
 6649TIP3   OH219889   6.655   7.399   0.549
 6649TIP3    H119890   6.747   7.411   0.571
 6649TIP3    H219891   6.631   7.314   0.585
 6650TIP3   OH219892   2.203   4.084   5.103
 6650TIP3    H119893   2.278   4.036   5.138
 6650TIP3    H219894   2.215   4.173   5.135
 6651TIP3   OH219895   1.077   2.619   1.996
 6651TIP3    H119896   1.148   2.636   1.934
 6651TIP3    H219897   1.093   2.679   2.068
 6652TIP3   OH219898   0.503   7.311   3.856
 6652TIP3    H119899   0.436   7.304   3.788
 6652TIP3    H219900   0.535   7.401   3.849
 6653TIP3   OH219901   3.042   7.769   4.987
 6653TIP3    H119902   3.112   7.705   4.986
 6653TIP3    H219903   2.961   7.718   4.986
 6654TIP3   OH219904   3.512   5.543   2.788
 6654TIP3    H119905   3.605   5.556   2.767
 6654TIP3    H219906   3.503   5.579   2.877
 6655TIP3   OH219907   8.289   0.456   4.018
 6655TIP3    H119908   8.285   0.476   3.924
 6655TIP3    H219909   8.199   0.463   4.049
 6656TIP3   OH219910   5.174   1.837   3.846
 6656TIP3    H119911   5.094   1.816   3.799
 6656TIP3    H219912   5.179   1.932   3.843
 6657TIP3   OH219913   4.845   2.268   5.317
 6657TIP3    H119914   4.896   2.283   5.238
 6657TIP3    H219915   4.896   2.204   5.367
 6658TIP3   OH219916   8.100   0.442   0.821
 6658TIP3    H119917   8.136   0.388   0.891
 6658TIP3    H219918   8.161   0.516   0.816
 6659TIP3   OH219919   4.664   0.174   5.536
 6659TIP3    H119920   4.751   0.171   5.497
 6659TIP3    H219921   4.664   0.103   5.600
 6660TIP3   OH219922   5.732   6.771   1.934
 6660TIP3    H119923   5.743   6.860   1.968
 6660TIP3    H219924   5.812   6.726   1.961
 6661TIP3   OH219925   7.241   5.648   0.009
 6661TIP3    H119926   7.184   5.720  -0.015
 6661TIP3    H219927   7.317   5.690   0.050
 6662TIP3   OH219928   3.144   5.070   0.034
 6662TIP3    H119929   3.154   5.092   0.127
 6662TIP3    H219930   3.223   5.106  -0.007
 6663TIP3   OH219931   2.610   3.468   3.894
 6663TIP3    H119932   2.690   3.420   3.917
 6663TIP3    H219933   2.559   3.404   3.844
 6664TIP3   OH219934   0.582   0.864   0.440
 6664TIP3    H119935   0.668   0.889   0.473
 6664TIP3    H219936   0.581   0.768   0.446
 6665TIP3   OH219937   6.648   2.805   3.002
 6665TIP3    H119938   6.626   2.867   3.072
 6665TIP3    H219939   6.572   2.808   2.943
 6666TIP3   OH219940   6.137   2.994   3.515
 6666TIP3    H119941   6.054   3.009   3.561
 6666TIP3    H219942   6.175   2.918   3.558
 6667TIP3   OH219943   5.046   7.310   3.606
 6667TIP3    H119944   4.952   7.293   3.599
 6667TIP3    H219945   5.080   7.232   3.651
 6668TIP3   OH219946   2.987   5.839   1.056
 6668TIP3    H119947   2.968   5.933   1.051
 6668TIP3    H219948   2.945   5.811   1.138
 6669TIP3   OH219949   7.714   5.057   0.614
 6669TIP3    H119950   7.628   5.025   0.642
 6669TIP3    H219951   7.694   5.119   0.544
 6670TIP3   OH219952   5.290   1.082   3.201
 6670TIP3    H119953   5.241   1.123   3.130
 6670TIP3    H219954   5.313   1.155   3.259
 6671TIP3   OH219955   7.203   6.824   1.303
 6671TIP3    H119956   7.147   6.774   1.244
 6671TIP3    H219957   7.231   6.761   1.370
 6672TIP3   OH219958   1.468   1.370   3.218
 6672TIP3    H119959   1.454   1.420   3.137
 6672TIP3    H219960   1.386   1.381   3.266
 6673TIP3   OH219961   0.107   3.303   4.817
 6673TIP3    H119962   0.130   3.293   4.909
 6673TIP3    H219963   0.016   3.274   4.811
 6674TIP3   OH219964   6.780   5.883   4.433
 6674TIP3    H119965   6.756   5.853   4.346
 6674TIP3    H219966   6.774   5.979   4.428
 6675TIP3   OH219967   3.413   6.025   4.853
 6675TIP3    H119968   3.371   5.965   4.913
 6675TIP3    H219969   3.387   5.995   4.766
 6676TIP3   OH219970   1.069   3.416   6.701
 6676TIP3    H119971   1.161   3.439   6.715
 6676TIP3    H219972   1.049   3.448   6.613
 6677TIP3   OH219973   2.743   6.781   6.071
 6677TIP3    H119974   2.770   6.767   5.980
 6677TIP3    H219975   2.804   6.728   6.122
 6678TIP3   OH219976   0.404   3.915   4.524
 6678TIP3    H119977   0.346   3.888   4.453
 6678TIP3    H219978   0.422   3.835   4.572
 6679TIP3   OH219979   4.173   1.803   5.606
 6679TIP3    H119980   4.208   1.716   5.628
 6679TIP3    H219981   4.201   1.859   5.678
 6680TIP3   OH219982   6.879   6.814   5.592
 6680TIP3    H119983   6.869   6.749   5.662
 6680TIP3    H219984   6.972   6.813   5.572
 6681TIP3   OH219985   4.981   1.787   2.924
 6681TIP3    H119986   4.902   1.777   2.871
 6681TIP3    H219987   5.024   1.865   2.889
 6682TIP3   OH219988   3.395   2.344   1.271
 6682TIP3    H119989   3.342   2.361   1.193
 6682TIP3    H219990   3.370   2.413   1.332
 6683TIP3   OH219991   0.738   6.600   6.000
 6683TIP3    H119992   0.782   6.634   6.078
 6683TIP3    H219993   0.783   6.641   5.927
 6684TIP3   OH219994   4.103   5.005   4.136
 6684TIP3    H119995   4.130   4.989   4.226
 6684TIP3    H219996   4.124   5.097   4.120
 6685TIP3   OH219997   2.444   3.512   6.375
 6685TIP3    H119998   2.470   3.594   6.418
 6685TIP3    H219999   2.350   3.508   6.387
 6686TIP3   OH220000   6.899   1.145   2.502
 6686TIP3    H120001   6.973   1.188   2.460
 6686TIP3    H220002   6.835   1.135   2.432
 6687TIP3   OH220003   3.242   2.055   0.433
 6687TIP3    H120004   3.325   2.098   0.455
 6687TIP3    H220005   3.219   2.005   0.511
 6688TIP3   OH220006   8.004   6.241   3.263
 6688TIP3    H120007   8.005   6.333   3.236
 6688TIP3    H220008   7.923   6.232   3.313
 6689TIP3   OH220009   6.682   0.500   4.153
 6689TIP3    H120010   6.703   0.411   4.127
 6689TIP3    H220011   6.598   0.493   4.200
 6690TIP3   OH220012   7.415   6.925   4.343
 6690TIP3    H120013   7.447   6.863   4.277
 6690TIP3    H220014   7.404   6.873   4.422
 6691TIP3   OH220015   1.216   4.605   1.186
 6691TIP3    H120016   1.262   4.526   1.215
 6691TIP3    H220017   1.128   4.575   1.165
 6692TIP3   OH220018   4.507   3.014   6.523
 6692TIP3    H120019   4.436   3.076   6.507
 6692TIP3    H220020   4.480   2.968   6.603
 6693TIP3   OH220021   2.478   5.753   5.528
 6693TIP3    H120022   2.395   5.718   5.496
 6693TIP3    H220023   2.474   5.846   5.508
 6694TIP3   OH220024   4.927   6.251   4.418
 6694TIP3    H120025   4.939   6.239   4.324
 6694TIP3    H220026   4.861   6.187   4.443
 6695TIP3   OH220027   6.308   2.012   2.998
 6695TIP3    H120028   6.262   1.930   3.015
 6695TIP3    H220029   6.242   2.069   2.959
 6696TIP3   OH220030   6.177   3.979   0.193
 6696TIP3    H120031   6.168   3.954   0.101
 6696TIP3    H220032   6.236   4.055   0.191
 6697TIP3   OH220033   2.344   1.608   4.552
 6697TIP3    H120034   2.314   1.686   4.599
 6697TIP3    H220035   2.361   1.638   4.463
 6698TIP3   OH220036   1.276   6.933   0.970
 6698TIP3    H120037   1.189   6.895   0.958
 6698TIP3    H220038   1.296   6.976   0.886
 6699TIP3   OH220039   2.588   2.925   0.342
 6699TIP3    H120040   2.571   2.966   0.426
 6699TIP3    H220041   2.666   2.970   0.309
 6700TIP3   OH220042   3.109   4.750   4.188
 6700TIP3    H120043   3.015   4.757   4.205
 6700TIP3    H220044   3.123   4.804   4.110
 6701TIP3   OH220045   0.908   3.449   4.942
 6701TIP3    H120046   0.893   3.527   4.996
 6701TIP3    H220047   0.997   3.460   4.908
 6702TIP3   OH220048   6.079   6.571   3.154
 6702TIP3    H120049   6.131   6.526   3.221
 6702TIP3    H220050   6.025   6.502   3.115
 6703TIP3   OH220051   7.972   1.793   5.746
 6703TIP3    H120052   8.007   1.793   5.835
 6703TIP3    H220053   7.990   1.881   5.713
 6704TIP3   OH220054   3.351   4.421   1.334
 6704TIP3    H120055   3.420   4.366   1.372
 6704TIP3    H220056   3.280   4.418   1.398
 6705TIP3   OH220057   1.109   4.400   6.553
 6705TIP3    H120058   1.071   4.378   6.468
 6705TIP3    H220059   1.122   4.494   6.551
 6706TIP3   OH220060   0.814   6.785   1.736
 6706TIP3    H120061   0.741   6.768   1.795
 6706TIP3    H220062   0.816   6.710   1.677
 6707TIP3   OH220063   5.382   4.174   3.115
 6707TIP3    H120064   5.385   4.266   3.090
 6707TIP3    H220065   5.309   4.138   3.064
 6708TIP3   OH220066   2.882   4.337   3.768
 6708TIP3    H120067   2.971   4.308   3.787
 6708TIP3    H220068   2.846   4.268   3.713
 6709TIP3   OH220069   6.776   5.235   4.162
 6709TIP3    H120070   6.786   5.258   4.254
 6709TIP3    H220071   6.769   5.139   4.162
 6710TIP3   OH220072   6.006   0.054   5.980
 6710TIP3    H120073   6.094   0.081   6.007
 6710TIP3    H220074   5.971   0.130   5.933
 6711TIP3   OH220075   6.957   4.112   4.157
 6711TIP3    H120076   6.950   4.168   4.234
 6711TIP3    H220077   7.017   4.159   4.098
 6712TIP3   OH220078   0.212   5.771   0.793
 6712TIP3    H120079   0.124   5.764   0.829
 6712TIP3    H220080   0.269   5.729   0.858
 6713TIP3   OH220081   7.349   1.910   2.755
 6713TIP3    H120082   7.373   1.932   2.665
 6713TIP3    H220083   7.266   1.957   2.770
 6714TIP3   OH220084   1.638   1.407   6.295
 6714TIP3    H120085   1.591   1.490   6.303
 6714TIP3    H220086   1.574   1.341   6.322
 6715TIP3   OH220087   3.320   2.404   6.722
 6715TIP3    H120088   3.314   2.432   6.631
 6715TIP3    H220089   3.380   2.329   6.719
 6716TIP3   OH220090   8.060   6.491   4.120
 6716TIP3    H120091   8.058   6.532   4.034
 6716TIP3    H220092   8.074   6.398   4.103
 6717TIP3   OH220093   8.105   3.019   5.518
 6717TIP3    H120094   8.193   3.045   5.545
 6717TIP3    H220095   8.070   3.097   5.474
 6718TIP3   OH220096   6.774   4.983   4.108
 6718TIP3    H120097   6.778   4.916   4.039
 6718TIP3    H220098   6.765   4.932   4.189
 6719TIP3   OH220099   3.411   3.444   4.001
 6719TIP3    H120100   3.426   3.504   4.074
 6719TIP3    H220101   3.479   3.377   4.012
 6720TIP3   OH220102   0.498   5.339   0.302
 6720TIP3    H120103   0.586   5.337   0.266
 6720TIP3    H220104   0.442   5.307   0.232
 6721TIP3   OH220105   2.773   4.378   3.506
 6721TIP3    H120106   2.698   4.322   3.526
 6721TIP3    H220107   2.815   4.392   3.591
 6722TIP3   OH220108   3.233   5.785   5.984
 6722TIP3    H120109   3.324   5.762   5.962
 6722TIP3    H220110   3.180   5.722   5.936
 6723TIP3   OH220111   5.741   0.493   0.466
 6723TIP3    H120112   5.823   0.477   0.512
 6723TIP3    H220113   5.694   0.410   0.471
 6724TIP3   OH220114   2.935   7.415   1.968
 6724TIP3    H120115   3.029   7.413   1.952
 6724TIP3    H220116   2.902   7.482   1.908
 6725TIP3   OH220117   5.240   2.170   1.828
 6725TIP3    H120118   5.276   2.252   1.861
 6725TIP3    H220119   5.283   2.155   1.744
 6726TIP3   OH220120   6.975   3.525   1.208
 6726TIP3    H120121   6.945   3.457   1.147
 6726TIP3    H220122   7.056   3.489   1.246
 6727TIP3   OH220123   2.046   6.687   6.174
 6727TIP3    H120124   1.983   6.714   6.108
 6727TIP3    H220125   2.132   6.702   6.134
 6728TIP3   OH220126   5.551   6.750   3.857
 6728TIP3    H120127   5.602   6.670   3.857
 6728TIP3    H220128   5.491   6.741   3.782
 6729TIP3   OH220129   6.382   0.775   0.181
 6729TIP3    H120130   6.343   0.784   0.094
 6729TIP3    H220131   6.464   0.728   0.166
 6730TIP3   OH220132   7.069   1.990   5.483
 6730TIP3    H120133   7.015   1.925   5.438
 6730TIP3    H220134   7.052   1.976   5.576
 6731TIP3   OH220135   2.890   5.621   3.848
 6731TIP3    H120136   2.938   5.696   3.815
 6731TIP3    H220137   2.886   5.560   3.773
 6732TIP3   OH220138   7.787   2.791   1.765
 6732TIP3    H120139   7.839   2.715   1.740
 6732TIP3    H220140   7.819   2.861   1.707
 6733TIP3   OH220141   5.105   0.820   4.862
 6733TIP3    H120142   5.025   0.802   4.912
 6733TIP3    H220143   5.174   0.822   4.929
 6734TIP3   OH220144   3.679   1.913   1.147
 6734TIP3    H120145   3.652   2.005   1.151
 6734TIP3    H220146   3.772   1.914   1.167
 6735TIP3   OH220147   6.983   6.437   6.193
 6735TIP3    H120148   7.064   6.481   6.221
 6735TIP3    H220149   6.979   6.359   6.247
 6736TIP3   OH220150   7.642   2.226   1.661
 6736TIP3    H120151   7.608   2.216   1.750
 6736TIP3    H220152   7.574   2.191   1.605
 6737TIP3   OH220153   6.336   1.445   5.091
 6737TIP3    H120154   6.258   1.393   5.073
 6737TIP3    H220155   6.316   1.490   5.173
 6738TIP3   OH220156   2.422   6.451   3.671
 6738TIP3    H120157   2.373   6.528   3.640
 6738TIP3    H220158   2.370   6.416   3.742
 6739TIP3   OH220159   8.228   3.637   0.156
 6739TIP3    H120160   8.245   3.606   0.245
 6739TIP3    H220161   8.304   3.691   0.134
 6740TIP3   OH220162   0.218   1.526   4.396
 6740TIP3    H120163   0.184   1.451   4.347
 6740TIP3    H220164   0.182   1.515   4.484
 6741TIP3   OH220165   4.594   5.610   4.805
 6741TIP3    H120166   4.541   5.532   4.788
 6741TIP3    H220167   4.619   5.602   4.897
 6742TIP3   OH220168   8.130   3.342   2.846
 6742TIP3    H120169   8.188   3.418   2.852
 6742TIP3    H220170   8.176   3.283   2.787
 6743TIP3   OH220171   0.307   1.174   0.590
 6743TIP3    H120172   0.341   1.132   0.669
 6743TIP3    H220173   0.384   1.184   0.534
 6744TIP3   OH220174   5.610   4.077   3.492
 6744TIP3    H120175   5.670   4.067   3.419
 6744TIP3    H220176   5.529   4.108   3.453
 6745TIP3   OH220177   5.755   4.168   3.742
 6745TIP3    H120178   5.691   4.138   3.677
 6745TIP3    H220179   5.829   4.200   3.691
 6746TIP3   OH220180   1.328   3.237   4.574
 6746TIP3    H120181   1.406   3.292   4.561
 6746TIP3    H220182   1.283   3.240   4.489
 6747TIP3   OH220183   1.243   1.546   2.336
 6747TIP3    H120184   1.295   1.627   2.337
 6747TIP3    H220185   1.154   1.575   2.320
 6748TIP3   OH220186   4.234   0.654   1.016
 6748TIP3    H120187   4.156   0.658   0.961
 6748TIP3    H220188   4.301   0.702   0.967
 6749TIP3   OH220189   4.454   1.457   6.762
 6749TIP3    H120190   4.417   1.420   6.682
 6749TIP3    H220191   4.415   1.544   6.769
 6750TIP3   OH220192   6.541   3.947   5.536
 6750TIP3    H120193   6.484   3.871   5.547
 6750TIP3    H220194   6.569   3.968   5.625
 6751TIP3   OH220195   5.334   5.052   2.991
 6751TIP3    H120196   5.415   5.078   3.035
 6751TIP3    H220197   5.284   5.133   2.982
 6752TIP3   OH220198   1.794   2.190   4.459
 6752TIP3    H120199   1.888   2.174   4.455
 6752TIP3    H220200   1.787   2.278   4.495
 6753TIP3   OH220201   4.662   3.552   1.265
 6753TIP3    H120202   4.728   3.563   1.333
 6753TIP3    H220203   4.649   3.640   1.229
 6754TIP3   OH220204   7.720   3.190   4.913
 6754TIP3    H120205   7.681   3.136   4.843
 6754TIP3    H220206   7.794   3.233   4.871
 6755TIP3   OH220207   3.483   6.873   5.369
 6755TIP3    H120208   3.441   6.898   5.287
 6755TIP3    H220209   3.452   6.937   5.433
 6756TIP3   OH220210   5.330   2.433   1.845
 6756TIP3    H120211   5.265   2.503   1.846
 6756TIP3    H220212   5.380   2.447   1.765
 6757TIP3   OH220213   2.906   0.389   0.539
 6757TIP3    H120214   2.949   0.344   0.467
 6757TIP3    H220215   2.823   0.342   0.550
 6758TIP3   OH220216   4.158   1.103   6.013
 6758TIP3    H120217   4.147   1.152   5.932
 6758TIP3    H220218   4.224   1.036   5.992
 6759TIP3   OH220219   6.059   7.620   1.307
 6759TIP3    H120220   6.054   7.683   1.378
 6759TIP3    H220221   6.024   7.539   1.343
 6760TIP3   OH220222   5.818   3.909   0.854
 6760TIP3    H120223   5.801   3.818   0.831
 6760TIP3    H220224   5.894   3.934   0.800
 6761TIP3   OH220225   2.899   5.470   0.614
 6761TIP3    H120226   2.902   5.413   0.690
 6761TIP3    H220227   2.847   5.546   0.641
 6762TIP3   OH220228   2.771   0.138   4.288
 6762TIP3    H120229   2.678   0.116   4.284
 6762TIP3    H220230   2.779   0.218   4.237
 6763TIP3   OH220231   4.186   1.523   1.976
 6763TIP3    H120232   4.141   1.478   2.048
 6763TIP3    H220233   4.180   1.616   1.998
 6764TIP3   OH220234   1.393   3.986   3.300
 6764TIP3    H120235   1.337   3.978   3.377
 6764TIP3    H220236   1.363   3.917   3.241
 6765TIP3   OH220237   6.692   4.218   2.261
 6765TIP3    H120238   6.672   4.309   2.285
 6765TIP3    H220239   6.638   4.166   2.321
 6766TIP3   OH220240   0.579   0.115   6.445
 6766TIP3    H120241   0.522   0.046   6.480
 6766TIP3    H220242   0.622   0.152   6.522
 6767TIP3   OH220243   0.638   2.358   2.359
 6767TIP3    H120244   0.665   2.404   2.438
 6767TIP3    H220245   0.593   2.424   2.307
 6768TIP3   OH220246   0.744   1.358   5.546
 6768TIP3    H120247   0.783   1.301   5.480
 6768TIP3    H220248   0.795   1.342   5.625
 6769TIP3   OH220249   7.877   5.813   6.792
 6769TIP3    H120250   7.924   5.735   6.761
 6769TIP3    H220251   7.945   5.878   6.807
 6770TIP3   OH220252   0.925   1.440   1.230
 6770TIP3    H120253   0.973   1.449   1.148
 6770TIP3    H220254   0.993   1.430   1.296
 6771TIP3   OH220255   4.539   2.649   1.936
 6771TIP3    H120256   4.522   2.742   1.928
 6771TIP3    H220257   4.537   2.616   1.846
 6772TIP3   OH220258   2.866   0.444   6.594
 6772TIP3    H120259   2.843   0.400   6.512
 6772TIP3    H220260   2.954   0.479   6.578
 6773TIP3   OH220261   5.535   2.826   6.172
 6773TIP3    H120262   5.571   2.880   6.243
 6773TIP3    H220263   5.568   2.866   6.092
 6774TIP3   OH220264   1.307   3.554   1.357
 6774TIP3    H120265   1.311   3.604   1.276
 6774TIP3    H220266   1.332   3.617   1.425
 6775TIP3   OH220267   3.872   2.372   3.273
 6775TIP3    H120268   3.851   2.300   3.332
 6775TIP3    H220269   3.800   2.374   3.210
 6776TIP3   OH220270   6.816   7.796   1.787
 6776TIP3    H120271   6.860   7.871   1.828
 6776TIP3    H220272   6.769   7.834   1.712
 6777TIP3   OH220273   6.930   6.767   4.977
 6777TIP3    H120274   6.969   6.708   5.041
 6777TIP3    H220275   6.925   6.851   5.022
 6778TIP3   OH220276   4.596   2.542   1.698
 6778TIP3    H120277   4.670   2.497   1.657
 6778TIP3    H220278   4.524   2.533   1.636
 6779TIP3   OH220279   5.578   2.531   0.613
 6779TIP3    H120280   5.536   2.471   0.551
 6779TIP3    H220281   5.671   2.505   0.612
 6780TIP3   OH220282   0.315   3.346   0.738
 6780TIP3    H120283   0.321   3.279   0.806
 6780TIP3    H220284   0.366   3.311   0.665
 6781TIP3   OH220285   2.081   3.932   1.516
 6781TIP3    H120286   2.142   4.004   1.502
 6781TIP3    H220287   2.052   3.908   1.428
 6782TIP3   OH220288   6.059   4.822   1.372
 6782TIP3    H120289   6.081   4.741   1.327
 6782TIP3    H220290   5.982   4.855   1.326
 6783TIP3   OH220291   6.762   7.090   4.812
 6783TIP3    H120292   6.736   7.145   4.886
 6783TIP3    H220293   6.856   7.080   4.820
 6784TIP3   OH220294   1.394   1.526   4.796
 6784TIP3    H120295   1.382   1.552   4.705
 6784TIP3    H220296   1.422   1.607   4.840
 6785TIP3   OH220297   6.993   1.027   1.563
 6785TIP3    H120298   7.022   1.119   1.563
 6785TIP3    H220299   6.957   1.013   1.650
 6786TIP3   OH220300   5.155   5.885   5.403
 6786TIP3    H120301   5.120   5.797   5.417
 6786TIP3    H220302   5.212   5.876   5.327
 6787TIP3   OH220303   0.235   1.380   2.815
 6787TIP3    H120304   0.145   1.405   2.794
 6787TIP3    H220305   0.265   1.449   2.875
 6788TIP3   OH220306   5.522   7.172   2.379
 6788TIP3    H120307   5.432   7.159   2.406
 6788TIP3    H220308   5.530   7.267   2.367
 6789TIP3   OH220309   4.024   7.143   3.962
 6789TIP3    H120310   4.024   7.048   3.971
 6789TIP3    H220311   4.110   7.170   3.993
 6790TIP3   OH220312   3.114   5.475   6.432
 6790TIP3    H120313   3.165   5.550   6.461
 6790TIP3    H220314   3.032   5.512   6.399
 6791TIP3   OH220315   4.580   1.364   2.855
 6791TIP3    H120316   4.582   1.460   2.853
 6791TIP3    H220317   4.606   1.338   2.766
 6792TIP3   OH220318   5.217   3.023   6.422
 6792TIP3    H120319   5.208   2.999   6.329
 6792TIP3    H220320   5.178   3.111   6.427
 6793TIP3   OH220321   1.862   7.237   4.620
 6793TIP3    H120322   1.913   7.316   4.635
 6793TIP3    H220323   1.841   7.205   4.708
 6794TIP3   OH220324   3.292   7.469   2.500
 6794TIP3    H120325   3.254   7.479   2.587
 6794TIP3    H220326   3.278   7.554   2.457
 6795TIP3   OH220327   3.598   4.734   2.954
 6795TIP3    H120328   3.513   4.755   2.992
 6795TIP3    H220329   3.587   4.647   2.916
 6796TIP3   OH220330   1.813   6.826   1.240
 6796TIP3    H120331   1.755   6.892   1.203
 6796TIP3    H220332   1.769   6.743   1.224
 6797TIP3   OH220333   1.126   5.357   5.128
 6797TIP3    H120334   1.043   5.314   5.106
 6797TIP3    H220335   1.193   5.300   5.092
 6798TIP3   OH220336   0.207   3.231   6.429
 6798TIP3    H120337   0.179   3.280   6.352
 6798TIP3    H220338   0.192   3.140   6.406
 6799TIP3   OH220339   5.296   7.260   2.021
 6799TIP3    H120340   5.299   7.319   2.096
 6799TIP3    H220341   5.325   7.175   2.056
 6800TIP3   OH220342   7.993   6.631   2.728
 6800TIP3    H120343   8.025   6.642   2.818
 6800TIP3    H220344   7.913   6.683   2.725
 6801TIP3   OH220345   6.070   1.913   0.103
 6801TIP3    H120346   6.071   1.852   0.029
 6801TIP3    H220347   6.116   1.991   0.070
 6802TIP3   OH220348   6.090   7.060   1.070
 6802TIP3    H120349   6.124   7.121   1.005
 6802TIP3    H220350   6.168   7.027   1.116
 6803TIP3   OH220351   7.335   5.521   1.753
 6803TIP3    H120352   7.280   5.568   1.817
 6803TIP3    H220353   7.311   5.429   1.763
 6804TIP3   OH220354   3.202   0.499   4.379
 6804TIP3    H120355   3.181   0.449   4.299
 6804TIP3    H220356   3.117   0.527   4.412
 6805TIP3   OH220357   4.332   2.028   2.767
 6805TIP3    H120358   4.313   2.101   2.709
 6805TIP3    H220359   4.421   2.043   2.797
 6806TIP3   OH220360   8.132   2.168   1.011
 6806TIP3    H120361   8.104   2.255   1.039
 6806TIP3    H220362   8.082   2.108   1.066
 6807TIP3   OH220363   6.749   1.103   5.017
 6807TIP3    H120364   6.679   1.138   5.071
 6807TIP3    H220365   6.823   1.093   5.077
 6808TIP3   OH220366   2.673   7.226   2.806
 6808TIP3    H120367   2.755   7.260   2.769
 6808TIP3    H220368   2.618   7.210   2.729
 6809TIP3   OH220369   1.405   6.482   1.681
 6809TIP3    H120370   1.478   6.465   1.622
 6809TIP3    H220371   1.447   6.503   1.765
 6810TIP3   OH220372   1.341   2.657   2.994
 6810TIP3    H120373   1.283   2.733   2.987
 6810TIP3    H220374   1.427   2.693   3.012
 6811TIP3   OH220375   8.044   3.302   5.419
 6811TIP3    H120376   7.997   3.379   5.387
 6811TIP3    H220377   8.037   3.238   5.348
 6812TIP3   OH220378   6.760   3.662   5.638
 6812TIP3    H120379   6.815   3.623   5.570
 6812TIP3    H220380   6.752   3.754   5.613
 6813TIP3   OH220381   5.969   7.195   4.105
 6813TIP3    H120382   5.997   7.172   4.017
 6813TIP3    H220383   5.935   7.284   4.098
 6814TIP3   OH220384   0.450   2.643   2.664
 6814TIP3    H120385   0.519   2.578   2.649
 6814TIP3    H220386   0.377   2.615   2.609
 6815TIP3   OH220387   7.015   5.547   2.718
 6815TIP3    H120388   6.962   5.606   2.771
 6815TIP3    H220389   7.030   5.471   2.775
 6816TIP3   OH220390   2.990   3.420   0.488
 6816TIP3    H120391   2.901   3.385   0.486
 6816TIP3    H220392   3.004   3.456   0.400
 6817TIP3   OH220393   6.541   7.400   0.957
 6817TIP3    H120394   6.517   7.308   0.943
 6817TIP3    H220395   6.635   7.403   0.943
 6818TIP3   OH220396   6.957   0.566   5.722
 6818TIP3    H120397   6.886   0.584   5.785
 6818TIP3    H220398   6.943   0.629   5.652
 6819TIP3   OH220399   4.362   0.958   5.910
 6819TIP3    H120400   4.448   0.992   5.935
 6819TIP3    H220401   4.380   0.900   5.836
 6820TIP3   OH220402   1.032   1.942   2.367
 6820TIP3    H120403   1.057   1.945   2.459
 6820TIP3    H220404   1.053   2.028   2.333
 6821TIP3   OH220405   6.327   4.642   4.453
 6821TIP3    H120406   6.339   4.606   4.365
 6821TIP3    H220407   6.248   4.600   4.485
 6822TIP3   OH220408   1.861   3.415   4.339
 6822TIP3    H120409   1.893   3.377   4.421
 6822TIP3    H220410   1.927   3.480   4.316
 6823TIP3   OH220411   3.328   3.907   5.419
 6823TIP3    H120412   3.407   3.956   5.395
 6823TIP3    H220413   3.361   3.826   5.458
 6824TIP3   OH220414   3.239   5.717   6.499
 6824TIP3    H120415   3.229   5.796   6.446
 6824TIP3    H220416   3.218   5.745   6.588
 6825TIP3   OH220417   2.517   4.295   3.648
 6825TIP3    H120418   2.470   4.211   3.652
 6825TIP3    H220419   2.464   4.354   3.702
 6826TIP3   OH220420   4.029   6.700   5.716
 6826TIP3    H120421   3.978   6.620   5.726
 6826TIP3    H220422   4.093   6.697   5.787
 6827TIP3   OH220423   3.267   2.738   5.272
 6827TIP3    H120424   3.246   2.800   5.202
 6827TIP3    H220425   3.236   2.653   5.239
 6828TIP3   OH220426   3.120   2.233   0.800
 6828TIP3    H120427   3.115   2.328   0.807
 6828TIP3    H220428   3.044   2.208   0.748
 6829TIP3   OH220429   1.799   0.718   0.131
 6829TIP3    H120430   1.713   0.757   0.149
 6829TIP3    H220431   1.848   0.787   0.086
 6830TIP3   OH220432   2.658   3.161   6.412
 6830TIP3    H120433   2.688   3.216   6.340
 6830TIP3    H220434   2.578   3.205   6.444
 6831TIP3   OH220435   3.073   5.053   1.230
 6831TIP3    H120436   3.158   5.045   1.188
 6831TIP3    H220437   3.069   4.978   1.290
 6832TIP3   OH220438   3.761   2.652   2.227
 6832TIP3    H120439   3.781   2.617   2.141
 6832TIP3    H220440   3.668   2.676   2.222
 6833TIP3   OH220441   4.533   5.220   0.358
 6833TIP3    H120442   4.481   5.237   0.280
 6833TIP3    H220443   4.493   5.275   0.426
 6834TIP3   OH220444   8.000   5.994   3.153
 6834TIP3    H120445   8.009   6.062   3.219
 6834TIP3    H220446   8.000   6.041   3.069
 6835TIP3   OH220447   4.751   0.469   6.175
 6835TIP3    H120448   4.717   0.450   6.263
 6835TIP3    H220449   4.782   0.559   6.180
 6836TIP3   OH220450   0.158   4.478   2.745
 6836TIP3    H120451   0.205   4.395   2.750
 6836TIP3    H220452   0.109   4.473   2.663
 6837TIP3   OH220453   5.641   1.664   2.680
 6837TIP3    H120454   5.708   1.606   2.715
 6837TIP3    H220455   5.661   1.672   2.587
 6838TIP3   OH220456   6.394   3.910   4.964
 6838TIP3    H120457   6.446   3.830   4.950
 6838TIP3    H220458   6.324   3.904   4.898
 6839TIP3   OH220459   3.604   2.360   0.879
 6839TIP3    H120460   3.692   2.332   0.851
 6839TIP3    H220461   3.607   2.455   0.874
 6840TIP3   OH220462   5.042   3.561   2.941
 6840TIP3    H120463   4.974   3.610   2.987
 6840TIP3    H220464   5.041   3.597   2.852
 6841TIP3   OH220465   5.025   3.037   0.189
 6841TIP3    H120466   4.947   2.997   0.228
 6841TIP3    H220467   5.045   2.981   0.114
 6842TIP3   OH220468   0.581   6.209   2.468
 6842TIP3    H120469   0.586   6.297   2.431
 6842TIP3    H220470   0.651   6.205   2.532
 6843TIP3   OH220471   0.511   6.213   0.639
 6843TIP3    H120472   0.565   6.213   0.718
 6843TIP3    H220473   0.463   6.131   0.642
 6844TIP3   OH220474   0.496   0.712   1.403
 6844TIP3    H120475   0.402   0.695   1.404
 6844TIP3    H220476   0.506   0.795   1.450
 6845TIP3   OH220477   0.716   6.943   1.498
 6845TIP3    H120478   0.768   7.017   1.529
 6845TIP3    H220479   0.777   6.870   1.496
 6846TIP3   OH220480   8.182   6.513   6.270
 6846TIP3    H120481   8.104   6.569   6.277
 6846TIP3    H220482   8.255   6.575   6.275
 6847TIP3   OH220483   2.862   2.094   4.478
 6847TIP3    H120484   2.820   2.102   4.564
 6847TIP3    H220485   2.949   2.059   4.497
 6848TIP3   OH220486   4.325   5.921   1.616
 6848TIP3    H120487   4.268   5.996   1.631
 6848TIP3    H220488   4.344   5.924   1.522
 6849TIP3   OH220489   2.554   4.058   5.483
 6849TIP3    H120490   2.643   4.091   5.494
 6849TIP3    H220491   2.561   3.964   5.500
 6850TIP3   OH220492   0.708   0.378   2.220
 6850TIP3    H120493   0.641   0.397   2.154
 6850TIP3    H220494   0.677   0.424   2.299
 6851TIP3   OH220495   4.149   6.365   2.707
 6851TIP3    H120496   4.213   6.345   2.639
 6851TIP3    H220497   4.167   6.456   2.731
 6852TIP3   OH220498   7.860   7.188   1.130
 6852TIP3    H120499   7.852   7.164   1.222
 6852TIP3    H220500   7.771   7.211   1.103
 6853TIP3   OH220501   6.361   6.357   2.700
 6853TIP3    H120502   6.339   6.369   2.608
 6853TIP3    H220503   6.277   6.361   2.746
 6854TIP3   OH220504   4.479   2.502   3.543
 6854TIP3    H120505   4.421   2.469   3.474
 6854TIP3    H220506   4.476   2.434   3.611
 6855TIP3   OH220507   0.500   6.506   3.307
 6855TIP3    H120508   0.488   6.562   3.384
 6855TIP3    H220509   0.540   6.427   3.342
 6856TIP3   OH220510   6.800   4.827   5.991
 6856TIP3    H120511   6.710   4.809   6.016
 6856TIP3    H220512   6.814   4.919   6.012
 6857TIP3   OH220513   0.820   2.567   0.823
 6857TIP3    H120514   0.811   2.532   0.735
 6857TIP3    H220515   0.762   2.512   0.877
 6858TIP3   OH220516   3.304   1.445   4.390
 6858TIP3    H120517   3.268   1.357   4.400
 6858TIP3    H220518   3.315   1.476   4.480
 6859TIP3   OH220519   3.490   3.653   4.473
 6859TIP3    H120520   3.483   3.642   4.568
 6859TIP3    H220521   3.433   3.727   4.453
 6860TIP3   OH220522   2.597   5.456   0.581
 6860TIP3    H120523   2.576   5.436   0.490
 6860TIP3    H220524   2.651   5.535   0.576
 6861TIP3   OH220525   7.967   6.055   5.926
 6861TIP3    H120526   8.034   6.040   5.859
 6861TIP3    H220527   7.996   6.135   5.969
 6862TIP3   OH220528   6.041   4.579   0.306
 6862TIP3    H120529   6.004   4.545   0.224
 6862TIP3    H220530   6.090   4.504   0.342
 6863TIP3   OH220531   5.711   7.325   6.205
 6863TIP3    H120532   5.630   7.315   6.156
 6863TIP3    H220533   5.686   7.377   6.282
 6864TIP3   OH220534   0.683   2.700   0.133
 6864TIP3    H120535   0.630   2.627   0.166
 6864TIP3    H220536   0.768   2.661   0.115
 6865TIP3   OH220537   4.071   7.247   1.428
 6865TIP3    H120538   4.135   7.293   1.373
 6865TIP3    H220539   4.012   7.316   1.458
 6866TIP3   OH220540   1.291   0.286   1.601
 6866TIP3    H120541   1.228   0.323   1.662
 6866TIP3    H220542   1.376   0.319   1.631
 6867TIP3   OH220543   0.918   4.085   1.001
 6867TIP3    H120544   0.921   4.032   0.922
 6867TIP3    H220545   0.827   4.114   1.008
 6868TIP3   OH220546   3.180   1.857   5.525
 6868TIP3    H120547   3.100   1.904   5.502
 6868TIP3    H220548   3.173   1.774   5.478
 6869TIP3   OH220549   2.522   4.080   1.005
 6869TIP3    H120550   2.451   4.041   1.056
 6869TIP3    H220551   2.501   4.057   0.914
 6870TIP3   OH220552   2.200   7.654   4.821
 6870TIP3    H120553   2.260   7.723   4.849
 6870TIP3    H220554   2.134   7.700   4.769
 6871TIP3   OH220555   4.728   4.745   5.862
 6871TIP3    H120556   4.733   4.832   5.823
 6871TIP3    H220557   4.673   4.695   5.802
 6872TIP3   OH220558   1.497   3.379   0.439
 6872TIP3    H120559   1.490   3.423   0.354
 6872TIP3    H220560   1.536   3.294   0.418
 6873TIP3   OH220561   4.589   1.048   0.457
 6873TIP3    H120562   4.538   1.082   0.383
 6873TIP3    H220563   4.525   1.001   0.511
 6874TIP3   OH220564   7.598   6.477   1.354
 6874TIP3    H120565   7.615   6.384   1.365
 6874TIP3    H220566   7.565   6.486   1.264
 6875TIP3   OH220567   0.384   3.619   6.459
 6875TIP3    H120568   0.300   3.664   6.468
 6875TIP3    H220569   0.409   3.633   6.368
 6876TIP3   OH220570   3.501   1.071   6.692
 6876TIP3    H120571   3.568   1.036   6.752
 6876TIP3    H220572   3.467   0.994   6.646
 6877TIP3   OH220573   7.745   1.516   0.157
 6877TIP3    H120574   7.765   1.570   0.234
 6877TIP3    H220575   7.810   1.543   0.092
 6878TIP3   OH220576   4.951   7.180   3.223
 6878TIP3    H120577   4.993   7.258   3.186
 6878TIP3    H220578   4.872   7.213   3.265
 6879TIP3   OH220579   5.194   3.170   1.010
 6879TIP3    H120580   5.243   3.246   1.040
 6879TIP3    H220581   5.229   3.152   0.922
 6880TIP3   OH220582   0.878   7.024   4.470
 6880TIP3    H120583   0.789   7.052   4.492
 6880TIP3    H220584   0.868   6.934   4.440
 6881TIP3   OH220585   0.294   3.431   4.430
 6881TIP3    H120586   0.218   3.380   4.458
 6881TIP3    H220587   0.356   3.365   4.399
 6882TIP3   OH220588   4.040   3.097   0.234
 6882TIP3    H120589   4.046   3.065   0.144
 6882TIP3    H220590   3.946   3.109   0.249
 6883TIP3   OH220591   4.436   4.526   6.698
 6883TIP3    H120592   4.473   4.541   6.785
 6883TIP3    H220593   4.368   4.460   6.711
 6884TIP3   OH220594   5.606   0.599   4.630
 6884TIP3    H120595   5.557   0.577   4.709
 6884TIP3    H220596   5.673   0.530   4.623
 6885TIP3   OH220597   6.506   1.347   5.803
 6885TIP3    H120598   6.510   1.354   5.898
 6885TIP3    H220599   6.426   1.298   5.785
 6886TIP3   OH220600   7.241   3.373   3.035
 6886TIP3    H120601   7.321   3.323   3.054
 6886TIP3    H220602   7.247   3.392   2.942
 6887TIP3   OH220603   3.761   5.490   4.499
 6887TIP3    H120604   3.813   5.552   4.550
 6887TIP3    H220605   3.720   5.544   4.431
 6888TIP3   OH220606   5.665   7.346   1.701
 6888TIP3    H120607   5.611   7.412   1.745
 6888TIP3    H220608   5.611   7.266   1.703
 6889TIP3   OH220609   3.078   2.919   2.982
 6889TIP3    H120610   3.014   2.942   2.915
 6889TIP3    H220611   3.033   2.853   3.036
 6890TIP3   OH220612   6.507   2.516   4.139
 6890TIP3    H120613   6.530   2.609   4.146
 6890TIP3    H220614   6.417   2.511   4.170
 6891TIP3   OH220615   1.019   6.871   5.548
 6891TIP3    H120616   0.926   6.890   5.551
 6891TIP3    H220617   1.057   6.943   5.498
 6892TIP3   OH220618   0.614   1.357   4.214
 6892TIP3    H120619   0.565   1.331   4.136
 6892TIP3    H220620   0.584   1.297   4.282
 6893TIP3   OH220621   8.078   3.945   0.700
 6893TIP3    H120622   8.142   3.954   0.629
 6893TIP3    H220623   8.086   4.026   0.750
 6894TIP3   OH220624   0.954   0.519   2.422
 6894TIP3    H120625   1.011   0.451   2.458
 6894TIP3    H220626   0.951   0.501   2.328
 6895TIP3   OH220627   4.373   2.890   4.627
 6895TIP3    H120628   4.456   2.935   4.608
 6895TIP3    H220629   4.386   2.852   4.714
 6896TIP3   OH220630   1.457   6.784   3.505
 6896TIP3    H120631   1.434   6.761   3.414
 6896TIP3    H220632   1.389   6.742   3.558
 6897TIP3   OH220633   6.886   7.766   0.615
 6897TIP3    H120634   6.952   7.729   0.557
 6897TIP3    H220635   6.913   7.858   0.625
 6898TIP3   OH220636   1.581   0.627   1.217
 6898TIP3    H120637   1.618   0.706   1.177
 6898TIP3    H220638   1.570   0.650   1.309
 6899TIP3   OH220639   0.464   2.277   2.600
 6899TIP3    H120640   0.535   2.338   2.582
 6899TIP3    H220641   0.401   2.292   2.530
 6900TIP3   OH220642   3.843   1.038   6.297
 6900TIP3    H120643   3.928   1.081   6.301
 6900TIP3    H220644   3.863   0.948   6.272
 6901TIP3   OH220645   4.275   0.731   6.350
 6901TIP3    H120646   4.273   0.641   6.382
 6901TIP3    H220647   4.363   0.742   6.312
 6902TIP3   OH220648   0.070   5.839   2.464
 6902TIP3    H120649  -0.023   5.816   2.476
 6902TIP3    H220650   0.082   5.838   2.369
 6903TIP3   OH220651   7.149   0.439   2.153
 6903TIP3    H120652   7.079   0.377   2.132
 6903TIP3    H220653   7.128   0.470   2.241
 6904TIP3   OH220654   3.345   2.712   6.566
 6904TIP3    H120655   3.290   2.758   6.629
 6904TIP3    H220656   3.433   2.718   6.602
 6905TIP3   OH220657   3.012   0.641   0.996
 6905TIP3    H120658   2.976   0.702   0.931
 6905TIP3    H220659   3.034   0.563   0.945
 6906TIP3   OH220660   7.637   6.439   3.513
 6906TIP3    H120661   7.634   6.347   3.539
 6906TIP3    H220662   7.565   6.448   3.450
 6907TIP3   OH220663   6.419   2.927   2.862
 6907TIP3    H120664   6.412   3.000   2.801
 6907TIP3    H220665   6.353   2.946   2.929
 6908TIP3   OH220666   1.714   4.096   0.570
 6908TIP3    H120667   1.798   4.118   0.611
 6908TIP3    H220668   1.649   4.117   0.638
 6909TIP3   OH220669   5.759   0.717   6.741
 6909TIP3    H120670   5.763   0.624   6.719
 6909TIP3    H220671   5.716   0.719   6.827
 6910TIP3   OH220672   4.362   5.031   2.743
 6910TIP3    H120673   4.369   4.976   2.665
 6910TIP3    H220674   4.370   5.121   2.710
 6911TIP3   OH220675   1.058   4.446   0.497
 6911TIP3    H120676   0.978   4.460   0.447
 6911TIP3    H220677   1.030   4.402   0.577
 6912TIP3   OH220678   4.384   4.206   3.136
 6912TIP3    H120679   4.353   4.285   3.181
 6912TIP3    H220680   4.305   4.165   3.102
 6913TIP3   OH220681   5.407   6.946   6.741
 6913TIP3    H120682   5.492   6.904   6.729
 6913TIP3    H220683   5.354   6.879   6.786
 6914TIP3   OH220684   7.363   7.646   5.472
 6914TIP3    H120685   7.454   7.634   5.445
 6914TIP3    H220686   7.366   7.722   5.530
 6915TIP3   OH220687   5.888   6.016   3.052
 6915TIP3    H120688   5.855   6.008   2.963
 6915TIP3    H220689   5.839   6.090   3.089
 6916TIP3   OH220690   7.005   3.272   1.817
 6916TIP3    H120691   7.005   3.234   1.729
 6916TIP3    H220692   7.095   3.301   1.830
 6917TIP3   OH220693   6.177   3.540   2.217
 6917TIP3    H120694   6.118   3.601   2.171
 6917TIP3    H220695   6.119   3.473   2.253
 6918TIP3   OH220696   2.539   1.140   4.862
 6918TIP3    H120697   2.625   1.144   4.820
 6918TIP3    H220698   2.556   1.168   4.952
 6919TIP3   OH220699   2.992   2.457   2.494
 6919TIP3    H120700   2.988   2.434   2.401
 6919TIP3    H220701   3.070   2.513   2.501
 6920TIP3   OH220702   1.936   5.879   0.725
 6920TIP3    H120703   2.010   5.941   0.730
 6920TIP3    H220704   1.976   5.796   0.699
 6921TIP3   OH220705   0.512   1.970   4.765
 6921TIP3    H120706   0.553   2.057   4.772
 6921TIP3    H220707   0.564   1.924   4.700
 6922TIP3   OH220708   1.546   0.557   3.369
 6922TIP3    H120709   1.496   0.502   3.308
 6922TIP3    H220710   1.631   0.567   3.327
 6923TIP3   OH220711   4.157   3.253   0.896
 6923TIP3    H120712   4.144   3.278   0.987
 6923TIP3    H220713   4.223   3.315   0.863
 6924TIP3   OH220714   6.956   7.067   0.694
 6924TIP3    H120715   7.017   7.002   0.729
 6924TIP3    H220716   6.979   7.073   0.601
 6925TIP3   OH220717   5.882   6.912   3.715
 6925TIP3    H120718   5.806   6.949   3.760
 6925TIP3    H220719   5.890   6.963   3.635
 6926TIP3   OH220720   6.282   2.965   6.738
 6926TIP3    H120721   6.279   3.055   6.770
 6926TIP3    H220722   6.367   2.932   6.767
 6927TIP3   OH220723   6.451   0.911   5.780
 6927TIP3    H120724   6.357   0.926   5.769
 6927TIP3    H220725   6.473   0.845   5.714
 6928TIP3   OH220726   6.293   4.364   3.637
 6928TIP3    H120727   6.324   4.274   3.650
 6928TIP3    H220728   6.256   4.364   3.549
 6929TIP3   OH220729   5.000   3.641   2.684
 6929TIP3    H120730   5.047   3.695   2.620
 6929TIP3    H220731   4.979   3.561   2.637
 6930TIP3   OH220732   3.323   2.308   6.092
 6930TIP3    H120733   3.287   2.221   6.112
 6930TIP3    H220734   3.322   2.312   5.996
 6931TIP3   OH220735   1.542   5.994   4.382
 6931TIP3    H120736   1.554   5.973   4.289
 6931TIP3    H220737   1.447   5.992   4.395
 6932TIP3   OH220738   4.852   3.712   2.394
 6932TIP3    H120739   4.918   3.718   2.324
 6932TIP3    H220740   4.772   3.684   2.349
 6933TIP3   OH220741   7.377   1.991   4.900
 6933TIP3    H120742   7.325   2.047   4.957
 6933TIP3    H220743   7.324   1.982   4.821
 6934TIP3   OH220744   7.513   5.221   5.216
 6934TIP3    H120745   7.481   5.256   5.133
 6934TIP3    H220746   7.500   5.293   5.278
 6935TIP3   OH220747   4.159   5.988   3.410
 6935TIP3    H120748   4.201   5.937   3.341
 6935TIP3    H220749   4.230   6.042   3.446
 6936TIP3   OH220750   5.794   0.527   4.872
 6936TIP3    H120751   5.763   0.505   4.960
 6936TIP3    H220752   5.751   0.464   4.815
 6937TIP3   OH220753   7.160   1.382   1.319
 6937TIP3    H120754   7.164   1.473   1.289
 6937TIP3    H220755   7.208   1.333   1.252
 6938TIP3   OH220756   0.981   0.683   5.025
 6938TIP3    H120757   0.937   0.653   4.945
 6938TIP3    H220758   1.018   0.604   5.062
 6939TIP3   OH220759   0.664   0.113   0.635
 6939TIP3    H120760   0.685   0.175   0.566
 6939TIP3    H220761   0.596   0.057   0.598
 6940TIP3   OH220762   1.326   3.174   3.885
 6940TIP3    H120763   1.245   3.198   3.931
 6940TIP3    H220764   1.388   3.158   3.956
 6941TIP3   OH220765   7.463   6.457   3.954
 6941TIP3    H120766   7.427   6.485   4.038
 6941TIP3    H220767   7.411   6.381   3.930
 6942TIP3   OH220768   2.066   7.156   4.142
 6942TIP3    H120769   2.107   7.208   4.073
 6942TIP3    H220770   2.019   7.220   4.195
 6943TIP3   OH220771   6.494   2.965   6.479
 6943TIP3    H120772   6.470   2.873   6.471
 6943TIP3    H220773   6.410   3.011   6.492
 6944TIP3   OH220774   4.580   0.983   1.193
 6944TIP3    H120775   4.486   0.969   1.196
 6944TIP3    H220776   4.616   0.923   1.259
 6945TIP3   OH220777   4.579   5.282   2.966
 6945TIP3    H120778   4.560   5.257   3.056
 6945TIP3    H220779   4.673   5.299   2.966
 6946TIP3   OH220780   6.485   0.209   5.048
 6946TIP3    H120781   6.447   0.272   5.109
 6946TIP3    H220782   6.417   0.193   4.983
 6947TIP3   OH220783   6.642   0.408   6.537
 6947TIP3    H120784   6.605   0.363   6.461
 6947TIP3    H220785   6.566   0.439   6.586
 6948TIP3   OH220786   6.625   5.527   3.474
 6948TIP3    H120787   6.697   5.511   3.413
 6948TIP3    H220788   6.581   5.605   3.439
 6949TIP3   OH220789   1.719   4.164   1.051
 6949TIP3    H120790   1.791   4.140   0.993
 6949TIP3    H220791   1.749   4.245   1.093
 6950TIP3   OH220792   5.259   4.805   6.583
 6950TIP3    H120793   5.241   4.782   6.492
 6950TIP3    H220794   5.206   4.745   6.635
 6951TIP3   OH220795   1.890   6.895   0.555
 6951TIP3    H120796   1.835   6.919   0.629
 6951TIP3    H220797   1.896   6.975   0.502
 6952TIP3   OH220798   4.299   0.328   2.020
 6952TIP3    H120799   4.224   0.380   1.988
 6952TIP3    H220800   4.325   0.276   1.944
 6953TIP3   OH220801   1.084   4.264   4.805
 6953TIP3    H120802   1.100   4.347   4.761
 6953TIP3    H220803   1.167   4.217   4.799
 6954TIP3   OH220804   0.403   4.627   2.422
 6954TIP3    H120805   0.352   4.608   2.343
 6954TIP3    H220806   0.342   4.609   2.494
 6955TIP3   OH220807   4.010   4.305   1.690
 6955TIP3    H120808   4.024   4.399   1.697
 6955TIP3    H220809   4.067   4.278   1.618
 6956TIP3   OH220810   0.284   5.102   6.550
 6956TIP3    H120811   0.306   5.010   6.535
 6956TIP3    H220812   0.337   5.127   6.627
 6957TIP3   OH220813   6.752   7.407   2.656
 6957TIP3    H120814   6.703   7.380   2.734
 6957TIP3    H220815   6.737   7.501   2.649
 6958TIP3   OH220816   6.215   2.804   5.938
 6958TIP3    H120817   6.215   2.826   5.844
 6958TIP3    H220818   6.126   2.775   5.956
 6959TIP3   OH220819   6.754   5.351   4.435
 6959TIP3    H120820   6.768   5.274   4.490
 6959TIP3    H220821   6.842   5.375   4.405
 6960TIP3   OH220822   6.841   3.371   2.457
 6960TIP3    H120823   6.853   3.310   2.383
 6960TIP3    H220824   6.772   3.330   2.510
 6961TIP3   OH220825   7.226   1.328   3.457
 6961TIP3    H120826   7.135   1.309   3.433
 6961TIP3    H220827   7.260   1.380   3.384
 6962TIP3   OH220828   5.065   1.390   3.926
 6962TIP3    H120829   5.040   1.388   3.834
 6962TIP3    H220830   5.021   1.468   3.961
 6963TIP3   OH220831   4.258   2.107   2.264
 6963TIP3    H120832   4.189   2.159   2.306
 6963TIP3    H220833   4.211   2.046   2.207
 6964TIP3   OH220834   7.334   3.743   5.888
 6964TIP3    H120835   7.251   3.790   5.879
 6964TIP3    H220836   7.351   3.744   5.983
 6965TIP3   OH220837   5.243   6.517   2.954
 6965TIP3    H120838   5.185   6.502   3.029
 6965TIP3    H220839   5.318   6.564   2.991
 6966TIP3   OH220840   2.164   5.249   5.623
 6966TIP3    H120841   2.232   5.184   5.607
 6966TIP3    H220842   2.207   5.333   5.607
 6967TIP3   OH220843   2.289   0.599   6.239
 6967TIP3    H120844   2.307   0.667   6.304
 6967TIP3    H220845   2.199   0.573   6.256
 6968TIP3   OH220846   8.191   1.773   6.240
 6968TIP3    H120847   8.228   1.716   6.307
 6968TIP3    H220848   8.115   1.814   6.282
 6969TIP3   OH220849   3.720   3.602   5.797
 6969TIP3    H120850   3.756   3.678   5.842
 6969TIP3    H220851   3.786   3.579   5.731
 6970TIP3   OH220852   6.679   7.104   1.307
 6970TIP3    H120853   6.663   7.195   1.332
 6970TIP3    H220854   6.665   7.102   1.212
 6971TIP3   OH220855   0.088   6.186   4.802
 6971TIP3    H120856   0.105   6.092   4.797
 6971TIP3    H220857   0.162   6.226   4.757
 6972TIP3   OH220858   1.628   3.088   0.370
 6972TIP3    H120859   1.637   3.017   0.307
 6972TIP3    H220860   1.559   3.059   0.430
 6973TIP3   OH220861   2.446   2.851   5.001
 6973TIP3    H120862   2.388   2.775   5.002
 6973TIP3    H220863   2.395   2.921   5.042
 6974TIP3   OH220864   0.440   0.398   2.458
 6974TIP3    H120865   0.367   0.450   2.492
 6974TIP3    H220866   0.518   0.451   2.478
 6975TIP3   OH220867   7.888   4.702   2.960
 6975TIP3    H120868   7.919   4.620   2.922
 6975TIP3    H220869   7.793   4.700   2.945
 6976TIP3   OH220870   3.357   2.156   4.966
 6976TIP3    H120871   3.443   2.133   5.003
 6976TIP3    H220872   3.378   2.196   4.882
 6977TIP3   OH220873   5.993   7.079   6.378
 6977TIP3    H120874   6.046   7.034   6.312
 6977TIP3    H220875   5.904   7.047   6.364
 6978TIP3   OH220876   2.924   6.311   6.679
 6978TIP3    H120877   3.018   6.330   6.684
 6978TIP3    H220878   2.917   6.237   6.619
 6979TIP3   OH220879   4.151   1.916   6.611
 6979TIP3    H120880   4.147   1.827   6.577
 6979TIP3    H220881   4.224   1.957   6.564
 6980TIP3   OH220882   3.912   6.427   5.731
 6980TIP3    H120883   3.859   6.394   5.804
 6980TIP3    H220884   3.962   6.351   5.702
 6981TIP3   OH220885   4.257   5.277   2.989
 6981TIP3    H120886   4.296   5.268   2.902
 6981TIP3    H220887   4.307   5.215   3.043
 6982TIP3   OH220888   7.768   7.566   2.492
 6982TIP3    H120889   7.803   7.648   2.527
 6982TIP3    H220890   7.835   7.534   2.433
 6983TIP3   OH220891   6.778   4.628   1.644
 6983TIP3    H120892   6.739   4.567   1.707
 6983TIP3    H220893   6.718   4.702   1.643
 6984TIP3   OH220894   6.484   0.845   3.488
 6984TIP3    H120895   6.513   0.834   3.579
 6984TIP3    H220896   6.458   0.937   3.482
 6985TIP3   OH220897   7.870   1.274   1.709
 6985TIP3    H120898   7.880   1.352   1.764
 6985TIP3    H220899   7.847   1.308   1.623
 6986TIP3   OH220900   8.064   2.225   6.246
 6986TIP3    H120901   8.148   2.266   6.268
 6986TIP3    H220902   8.075   2.196   6.155
 6987TIP3   OH220903   1.100   3.150   2.432
 6987TIP3    H120904   1.188   3.142   2.470
 6987TIP3    H220905   1.111   3.118   2.342
 6988TIP3   OH220906   5.314   2.545   3.175
 6988TIP3    H120907   5.376   2.515   3.109
 6988TIP3    H220908   5.360   2.613   3.223
 6989TIP3   OH220909   2.150   4.937   4.171
 6989TIP3    H120910   2.134   4.858   4.222
 6989TIP3    H220911   2.215   4.986   4.221
 6990TIP3   OH220912   1.076   6.617   6.003
 6990TIP3    H120913   1.169   6.600   6.013
 6990TIP3    H220914   1.033   6.535   6.025
 6991TIP3   OH220915   4.295   1.592   1.682
 6991TIP3    H120916   4.226   1.548   1.632
 6991TIP3    H220917   4.334   1.522   1.734
 6992TIP3   OH220918   6.111   6.350   4.579
 6992TIP3    H120919   6.184   6.298   4.613
 6992TIP3    H220920   6.033   6.311   4.619
 6993TIP3   OH220921   3.782   4.983   5.111
 6993TIP3    H120922   3.759   5.052   5.050
 6993TIP3    H220923   3.702   4.967   5.162
 6994TIP3   OH220924   2.382   5.548   1.721
 6994TIP3    H120925   2.401   5.480   1.785
 6994TIP3    H220926   2.381   5.502   1.637
 6995TIP3   OH220927   6.943   0.467   3.822
 6995TIP3    H120928   6.938   0.545   3.767
 6995TIP3    H220929   6.939   0.500   3.912
 6996TIP3   OH220930   7.539   1.864   3.546
 6996TIP3    H120931   7.449   1.891   3.563
 6996TIP3    H220932   7.549   1.781   3.591
 6997TIP3   OH220933   7.834   1.348   4.742
 6997TIP3    H120934   7.908   1.365   4.683
 6997TIP3    H220935   7.758   1.382   4.695
 6998TIP3   OH220936   2.016   7.737   2.909
 6998TIP3    H120937   1.988   7.764   2.822
 6998TIP3    H220938   2.039   7.645   2.900
 6999TIP3   OH220939   4.681   0.096   6.098
 6999TIP3    H120940   4.743   0.121   6.030
 6999TIP3    H220941   4.595   0.118   6.062
 7000TIP3   OH220942   0.716   2.795   2.008
 7000TIP3    H120943   0.694   2.850   1.933
 7000TIP3    H220944   0.676   2.838   2.083
 7001TIP3   OH220945   0.332   7.681   2.935
 7001TIP3    H120946   0.336   7.671   2.840
 7001TIP3    H220947   0.399   7.746   2.956
 7002TIP3   OH220948   4.104   1.115   6.301
 7002TIP3    H120949   4.095   1.199   6.347
 7002TIP3    H220950   4.155   1.137   6.222
 7003TIP3   OH220951   7.401   1.995   0.136
 7003TIP3    H120952   7.404   2.081   0.179
 7003TIP3    H220953   7.321   1.997   0.084
 7004TIP3   OH220954   6.623   0.451   5.869
 7004TIP3    H120955   6.681   0.435   5.943
 7004TIP3    H220956   6.654   0.391   5.801
 7005TIP3   OH220957   0.126   5.991   5.968
 7005TIP3    H120958   0.164   5.967   5.884
 7005TIP3    H220959   0.194   5.971   6.032
 7006TIP3   OH220960   3.906   3.073   5.526
 7006TIP3    H120961   3.846   3.147   5.514
 7006TIP3    H220962   3.849   2.996   5.524
 7007TIP3   OH220963   5.734   4.881   3.717
 7007TIP3    H120964   5.781   4.945   3.664
 7007TIP3    H220965   5.748   4.798   3.672
 7008TIP3   OH220966   3.796   1.902   6.052
 7008TIP3    H120967   3.839   1.955   6.120
 7008TIP3    H220968   3.705   1.932   6.053
 7009TIP3   OH220969   6.227   7.323   5.833
 7009TIP3    H120970   6.231   7.417   5.847
 7009TIP3    H220971   6.183   7.313   5.748
 7010TIP3   OH220972   3.230   0.597   5.051
 7010TIP3    H120973   3.184   0.610   5.134
 7010TIP3    H220974   3.161   0.569   4.990
 7011TIP3   OH220975   7.263   0.633   2.423
 7011TIP3    H120976   7.307   0.715   2.400
 7011TIP3    H220977   7.332   0.566   2.413
 7012TIP3   OH220978   8.024   0.850   1.783
 7012TIP3    H120979   7.995   0.836   1.693
 7012TIP3    H220980   7.963   0.916   1.817
 7013TIP3   OH220981   0.714   4.893   2.198
 7013TIP3    H120982   0.650   4.910   2.267
 7013TIP3    H220983   0.700   4.801   2.175
 7014TIP3   OH220984   7.501   0.318   4.585
 7014TIP3    H120985   7.482   0.402   4.627
 7014TIP3    H220986   7.418   0.270   4.590
 7015TIP3   OH220987   2.831   4.559   0.609
 7015TIP3    H120988   2.773   4.600   0.674
 7015TIP3    H220989   2.893   4.509   0.661
 7016TIP3   OH220990   5.124   7.260   5.720
 7016TIP3    H120991   5.147   7.332   5.663
 7016TIP3    H220992   5.028   7.256   5.716
 7017TIP3   OH220993   7.728   6.130   3.199
 7017TIP3    H120994   7.725   6.100   3.290
 7017TIP3    H220995   7.748   6.052   3.148
 7018TIP3   OH220996   7.085   0.926   4.890
 7018TIP3    H120997   7.147   0.951   4.821
 7018TIP3    H220998   7.002   0.965   4.862
 7019TIP3   OH220999   1.332   7.417   1.481
 7019TIP3    H121000   1.400   7.351   1.467
 7019TIP3    H221001   1.264   7.394   1.418
 7020TIP3   OH221002   0.398   2.015   6.550
 7020TIP3    H121003   0.452   1.992   6.626
 7020TIP3    H221004   0.359   2.100   6.572
 7021TIP3   OH221005   1.915   0.977   5.856
 7021TIP3    H121006   1.955   0.949   5.773
 7021TIP3    H221007   1.945   1.068   5.866
 7022TIP3   OH221008   5.265   4.717   4.490
 7022TIP3    H121009   5.330   4.726   4.560
 7022TIP3    H221010   5.270   4.800   4.442
 7023TIP3   OH221011   3.364   7.042   0.661
 7023TIP3    H121012   3.375   6.950   0.686
 7023TIP3    H221013   3.270   7.058   0.668
 7024TIP3   OH221014   2.253   0.945   6.802
 7024TIP3    H121015   2.317   1.005   6.840
 7024TIP3    H221016   2.213   0.995   6.730
 7025TIP3   OH221017   4.702   0.536   2.840
 7025TIP3    H121018   4.778   0.546   2.782
 7025TIP3    H221019   4.741   0.518   2.926
 7026TIP3   OH221020   5.225   4.939   4.349
 7026TIP3    H121021   5.133   4.916   4.339
 7026TIP3    H221022   5.236   5.019   4.297
 7027TIP3   OH221023   6.192   4.298   1.443
 7027TIP3    H121024   6.134   4.369   1.414
 7027TIP3    H221025   6.260   4.342   1.494
 7028TIP3   OH221026   5.295   4.881   2.566
 7028TIP3    H121027   5.204   4.851   2.563
 7028TIP3    H221028   5.347   4.801   2.552
 7029TIP3   OH221029   0.692   4.373   6.184
 7029TIP3    H121030   0.625   4.431   6.221
 7029TIP3    H221031   0.685   4.293   6.236
 7030TIP3   OH221032   3.026   2.867   2.321
 7030TIP3    H121033   3.019   2.783   2.277
 7030TIP3    H221034   2.940   2.882   2.359
 7031TIP3   OH221035   3.111   5.003   4.889
 7031TIP3    H121036   3.064   5.076   4.848
 7031TIP3    H221037   3.196   5.001   4.846
 7032TIP3   OH221038   3.388   5.129   4.849
 7032TIP3    H121039   3.392   5.119   4.944
 7032TIP3    H221040   3.346   5.214   4.835
 7033TIP3   OH221041   6.902   0.889   6.499
 7033TIP3    H121042   6.961   0.963   6.483
 7033TIP3    H221043   6.839   0.921   6.563
 7034TIP3   OH221044   1.056   5.926   6.721
 7034TIP3    H121045   1.042   5.970   6.637
 7034TIP3    H221046   1.148   5.945   6.743
 7035TIP3   OH221047   3.360   0.732   0.662
 7035TIP3    H121048   3.282   0.676   0.657
 7035TIP3    H221049   3.381   0.736   0.756
 7036TIP3   OH221050   5.040   6.471   1.794
 7036TIP3    H121051   5.049   6.377   1.781
 7036TIP3    H221052   4.955   6.481   1.838
 7037TIP3   OH221053   3.683   6.514   2.599
 7037TIP3    H121054   3.607   6.573   2.600
 7037TIP3    H221055   3.669   6.456   2.675
 7038TIP3   OH221056   6.206   2.204   4.726
 7038TIP3    H121057   6.270   2.192   4.796
 7038TIP3    H221058   6.129   2.155   4.756
 7039TIP3   OH221059   4.801   2.898   0.293
 7039TIP3    H121060   4.786   2.831   0.359
 7039TIP3    H221061   4.774   2.858   0.210
 7040TIP3   OH221062   8.281   3.110   1.567
 7040TIP3    H121063   8.236   3.111   1.482
 7040TIP3    H221064   8.241   3.037   1.614
 7041TIP3   OH221065   0.688   0.409   1.069
 7041TIP3    H121066   0.666   0.498   1.097
 7041TIP3    H221067   0.689   0.413   0.974
 7042TIP3   OH221068   0.662   4.611   1.165
 7042TIP3    H121069   0.700   4.687   1.121
 7042TIP3    H221070   0.604   4.572   1.099
 7043TIP3   OH221071   1.090   3.442   5.220
 7043TIP3    H121072   1.081   3.491   5.138
 7043TIP3    H221073   1.162   3.381   5.205
 7044TIP3   OH221074   4.958   2.883   3.280
 7044TIP3    H121075   4.951   2.789   3.299
 7044TIP3    H221076   5.045   2.907   3.314
 7045TIP3   OH221077   2.828   4.681   1.376
 7045TIP3    H121078   2.888   4.611   1.349
 7045TIP3    H221079   2.758   4.679   1.310
 7046TIP3   OH221080   3.615   3.246   3.841
 7046TIP3    H121081   3.683   3.207   3.787
 7046TIP3    H221082   3.599   3.332   3.803
 7047TIP3   OH221083   2.496   7.186   2.595
 7047TIP3    H121084   2.409   7.147   2.587
 7047TIP3    H221085   2.550   7.135   2.535
 7048TIP3   OH221086   3.978   1.048   5.412
 7048TIP3    H121087   3.931   1.024   5.332
 7048TIP3    H221088   4.065   1.009   5.400
 7049TIP3   OH221089   0.264   1.628   2.938
 7049TIP3    H121090   0.323   1.700   2.915
 7049TIP3    H221091   0.223   1.656   3.020
 7050TIP3   OH221092   8.164   2.895   6.326
 7050TIP3    H121093   8.169   2.799   6.326
 7050TIP3    H221094   8.168   2.919   6.418
 7051TIP3   OH221095   5.888   1.822   5.066
 7051TIP3    H121096   5.846   1.736   5.067
 7051TIP3    H221097   5.959   1.813   5.002
 7052TIP3   OH221098   2.325   6.262   3.877
 7052TIP3    H121099   2.327   6.168   3.896
 7052TIP3    H221100   2.232   6.285   3.877
 7053TIP3   OH221101   5.832   0.644   3.556
 7053TIP3    H121102   5.883   0.575   3.513
 7053TIP3    H221103   5.743   0.611   3.558
 7054TIP3   OH221104   8.161   1.874   2.521
 7054TIP3    H121105   8.090   1.926   2.484
 7054TIP3    H221106   8.208   1.840   2.445
 7055TIP3   OH221107   5.172   6.747   6.085
 7055TIP3    H121108   5.136   6.696   6.013
 7055TIP3    H221109   5.219   6.683   6.139
 7056TIP3   OH221110   6.872   2.433   4.308
 7056TIP3    H121111   6.827   2.496   4.365
 7056TIP3    H221112   6.879   2.354   4.362
 7057TIP3   OH221113   2.777   2.090   4.791
 7057TIP3    H121114   2.814   2.178   4.797
 7057TIP3    H221115   2.739   2.074   4.878
 7058TIP3   OH221116   7.469  -0.083   4.064
 7058TIP3    H121117   7.540  -0.039   4.017
 7058TIP3    H221118   7.421  -0.012   4.107
 7059TIP3   OH221119   7.090   0.108   5.476
 7059TIP3    H121120   7.099   0.059   5.558
 7059TIP3    H221121   7.139   0.189   5.491
 7060TIP3   OH221122   3.708   7.452   0.425
 7060TIP3    H121123   3.766   7.385   0.463
 7060TIP3    H221124   3.732   7.455   0.333
 7061TIP3   OH221125   2.197   2.735   5.598
 7061TIP3    H121126   2.232   2.797   5.534
 7061TIP3    H221127   2.102   2.740   5.587
 7062TIP3   OH221128   3.428   1.978   6.103
 7062TIP3    H121129   3.339   2.003   6.078
 7062TIP3    H221130   3.437   1.887   6.074
 7063TIP3   OH221131   2.687   5.908   2.363
 7063TIP3    H121132   2.709   5.860   2.443
 7063TIP3    H221133   2.708   5.999   2.383
 7064TIP3   OH221134   2.652   0.572   3.951
 7064TIP3    H121135   2.659   0.666   3.969
 7064TIP3    H221136   2.743   0.543   3.941
 7065TIP3   OH221137   2.809   7.210   0.072
 7065TIP3    H121138   2.718   7.184   0.063
 7065TIP3    H221139   2.806   7.299   0.105
 7066TIP3   OH221140   1.281   4.241   5.100
 7066TIP3    H121141   1.187   4.242   5.118
 7066TIP3    H221142   1.322   4.228   5.185
 7067TIP3   OH221143   6.088   0.533   4.917
 7067TIP3    H121144   6.138   0.508   4.840
 7067TIP3    H221145   5.997   0.536   4.887
 7068TIP3   OH221146   6.485   2.286   5.476
 7068TIP3    H121147   6.533   2.297   5.558
 7068TIP3    H221148   6.397   2.259   5.502
 7069TIP3   OH221149   1.118   5.498   5.354
 7069TIP3    H121150   1.111   5.430   5.421
 7069TIP3    H221151   1.129   5.450   5.272
 7070TIP3   OH221152   3.246   4.706   3.710
 7070TIP3    H121153   3.338   4.689   3.690
 7070TIP3    H221154   3.198   4.673   3.634
 7071TIP3   OH221155   1.152   0.281   0.392
 7071TIP3    H121156   1.209   0.238   0.328
 7071TIP3    H221157   1.139   0.369   0.356
 7072TIP3   OH221158   3.606   7.654   2.328
 7072TIP3    H121159   3.644   7.632   2.243
 7072TIP3    H221160   3.613   7.749   2.334
 7073TIP3   OH221161   1.359   4.191   5.586
 7073TIP3    H121162   1.397   4.183   5.499
 7073TIP3    H221163   1.422   4.148   5.644
 7074TIP3   OH221164   4.125   5.484   0.028
 7074TIP3    H121165   4.146   5.409  -0.028
 7074TIP3    H221166   4.047   5.456   0.076
 7075TIP3   OH221167   2.198   4.440   6.489
 7075TIP3    H121168   2.253   4.505   6.533
 7075TIP3    H221169   2.228   4.356   6.523
 7076TIP3   OH221170   3.611   0.459   5.924
 7076TIP3    H121171   3.520   0.451   5.952
 7076TIP3    H221172   3.611   0.433   5.832
 7077TIP3   OH221173   5.049   0.082   3.639
 7077TIP3    H121174   5.016   0.058   3.726
 7077TIP3    H221175   4.979   0.136   3.601
 7078TIP3   OH221176   0.585   0.254   4.780
 7078TIP3    H121177   0.539   0.244   4.696
 7078TIP3    H221178   0.677   0.261   4.755
 7079TIP3   OH221179   5.568   1.489   3.212
 7079TIP3    H121180   5.594   1.540   3.289
 7079TIP3    H221181   5.576   1.398   3.239
 7080TIP3   OH221182   7.444   0.525   1.683
 7080TIP3    H121183   7.450   0.465   1.609
 7080TIP3    H221184   7.355   0.561   1.676
 7081TIP3   OH221185   3.613   5.006   2.325
 7081TIP3    H121186   3.634   5.035   2.414
 7081TIP3    H221187   3.645   5.077   2.269
 7082TIP3   OH221188   6.227   7.157   3.130
 7082TIP3    H121189   6.286   7.084   3.111
 7082TIP3    H221190   6.196   7.186   3.044
 7083TIP3   OH221191   4.608   6.450   1.904
 7083TIP3    H121192   4.571   6.362   1.908
 7083TIP3    H221193   4.675   6.451   1.972
 7084TIP3   OH221194   3.750   0.887   3.576
 7084TIP3    H121195   3.834   0.904   3.534
 7084TIP3    H221196   3.760   0.800   3.616
 7085TIP3   OH221197   0.562   4.466   5.436
 7085TIP3    H121198   0.625   4.411   5.391
 7085TIP3    H221199   0.515   4.511   5.366
 7086TIP3   OH221200   7.733   2.501   4.195
 7086TIP3    H121201   7.699   2.589   4.178
 7086TIP3    H221202   7.720   2.489   4.289
 7087TIP3   OH221203   3.355   6.808   6.741
 7087TIP3    H121204   3.362   6.733   6.681
 7087TIP3    H221205   3.406   6.782   6.818
 7088TIP3   OH221206   7.677   1.080   5.164
 7088TIP3    H121207   7.747   1.076   5.098
 7088TIP3    H221208   7.631   0.996   5.155
 7089TIP3   OH221209   6.453   7.503   2.968
 7089TIP3    H121210   6.459   7.431   2.906
 7089TIP3    H221211   6.537   7.502   3.014
 7090TIP3   OH221212   0.177   2.917   1.503
 7090TIP3    H121213   0.117   2.845   1.520
 7090TIP3    H221214   0.121   2.995   1.497
 7091TIP3   OH221215   2.304   7.604   0.055
 7091TIP3    H121216   2.295   7.684   0.003
 7091TIP3    H221217   2.246   7.617   0.130
 7092TIP3   OH221218   7.582   0.493   6.662
 7092TIP3    H121219   7.603   0.408   6.701
 7092TIP3    H221220   7.591   0.556   6.733
 7093TIP3   OH221221   7.906   5.179  -0.019
 7093TIP3    H121222   7.909   5.189   0.076
 7093TIP3    H221223   7.824   5.221  -0.045
 7094TIP3   OH221224   5.573   1.697   0.800
 7094TIP3    H121225   5.520   1.628   0.761
 7094TIP3    H221226   5.511   1.750   0.849
 7095TIP3   OH221227   7.354   7.196   3.422
 7095TIP3    H121228   7.285   7.240   3.372
 7095TIP3    H221229   7.431   7.201   3.365
 7096TIP3   OH221230   1.016   3.987   6.059
 7096TIP3    H121231   1.065   4.012   5.981
 7096TIP3    H221232   0.969   3.908   6.034
 7097TIP3   OH221233   0.614   5.311   6.385
 7097TIP3    H121234   0.654   5.260   6.456
 7097TIP3    H221235   0.573   5.245   6.329
 7098TIP3   OH221236   6.959   0.482   0.958
 7098TIP3    H121237   6.963   0.427   1.036
 7098TIP3    H221238   6.866   0.498   0.945
 7099TIP3   OH221239   5.784   6.476   2.329
 7099TIP3    H121240   5.767   6.557   2.280
 7099TIP3    H221241   5.837   6.504   2.404
 7100TIP3   OH221242   6.983   0.581   4.125
 7100TIP3    H121243   6.912   0.543   4.177
 7100TIP3    H221244   6.992   0.671   4.157
 7101TIP3   OH221245   6.592   0.346   3.341
 7101TIP3    H121246   6.664   0.368   3.401
 7101TIP3    H221247   6.556   0.265   3.376
 7102TIP3   OH221248   3.879   4.087   0.806
 7102TIP3    H121249   3.923   4.019   0.756
 7102TIP3    H221250   3.794   4.099   0.762
 7103TIP3   OH221251   2.474   2.265   2.090
 7103TIP3    H121252   2.441   2.287   2.003
 7103TIP3    H221253   2.396   2.249   2.142
 7104TIP3   OH221254   5.768   2.766   6.611
 7104TIP3    H121255   5.834   2.696   6.610
 7104TIP3    H221256   5.813   2.841   6.649
 7105TIP3   OH221257   3.024   0.808   5.646
 7105TIP3    H121258   2.957   0.846   5.702
 7105TIP3    H221259   2.977   0.776   5.569
 7106TIP3   OH221260   1.381   7.092   5.035
 7106TIP3    H121261   1.397   7.153   4.963
 7106TIP3    H221262   1.286   7.095   5.048
 7107TIP3   OH221263   7.507   0.694   2.663
 7107TIP3    H121264   7.500   0.789   2.652
 7107TIP3    H221265   7.601   0.676   2.655
 7108TIP3   OH221266   1.864   5.711   6.463
 7108TIP3    H121267   1.812   5.635   6.492
 7108TIP3    H221268   1.931   5.720   6.530
 7109TIP3   OH221269   1.970   4.484   4.520
 7109TIP3    H121270   2.064   4.498   4.534
 7109TIP3    H221271   1.932   4.571   4.524
 7110TIP3   OH221272   4.436   4.840   0.599
 7110TIP3    H121273   4.473   4.873   0.517
 7110TIP3    H221274   4.447   4.745   0.594
 7111TIP3   OH221275   3.334   2.390   3.595
 7111TIP3    H121276   3.295   2.303   3.587
 7111TIP3    H221277   3.308   2.435   3.514
 7112TIP3   OH221278   7.991   0.376   0.568
 7112TIP3    H121279   7.903   0.352   0.598
 7112TIP3    H221280   8.027   0.428   0.640
 7113TIP3   OH221281   1.494   1.277   4.866
 7113TIP3    H121282   1.580   1.316   4.878
 7113TIP3    H221283   1.445   1.341   4.815
 7114TIP3   OH221284   1.625   3.630   0.443
 7114TIP3    H121285   1.604   3.537   0.442
 7114TIP3    H221286   1.572   3.668   0.373
 7115TIP3   OH221287   4.708   0.561   4.093
 7115TIP3    H121288   4.626   0.607   4.076
 7115TIP3    H221289   4.746   0.607   4.168
 7116TIP3   OH221290   3.002   7.795   6.625
 7116TIP3    H121291   2.932   7.732   6.612
 7116TIP3    H221292   3.080   7.752   6.590
 7117TIP3   OH221293   0.615   4.843   6.139
 7117TIP3    H121294   0.632   4.753   6.109
 7117TIP3    H221295   0.522   4.857   6.122
 7118TIP3   OH221296   0.946   5.758   1.277
 7118TIP3    H121297   1.004   5.733   1.205
 7118TIP3    H221298   0.979   5.708   1.352
 7119TIP3   OH221299   1.979   3.920   1.225
 7119TIP3    H121300   1.981   3.885   1.136
 7119TIP3    H221301   1.890   3.954   1.236
 7120TIP3   OH221302   5.415   5.904   0.236
 7120TIP3    H121303   5.373   5.866   0.313
 7120TIP3    H221304   5.509   5.890   0.251
 7121TIP3   OH221305   6.624   4.482   1.452
 7121TIP3    H121306   6.702   4.478   1.508
 7121TIP3    H221307   6.631   4.404   1.397
 7122TIP3   OH221308   4.598   5.200   4.415
 7122TIP3    H121309   4.507   5.204   4.444
 7122TIP3    H221310   4.620   5.107   4.420
 7123TIP3   OH221311   8.174   0.580   1.375
 7123TIP3    H121312   8.219   0.659   1.406
 7123TIP3    H221313   8.182   0.584   1.280
 7124TIP3   OH221314   5.169   2.410   6.425
 7124TIP3    H121315   5.137   2.336   6.372
 7124TIP3    H221316   5.091   2.460   6.446
 7125TIP3   OH221317   1.794   2.545   6.591
 7125TIP3    H121318   1.738   2.611   6.633
 7125TIP3    H221319   1.857   2.520   6.659
 7126TIP3   OH221320   6.683   3.240   2.620
 7126TIP3    H121321   6.713   3.237   2.711
 7126TIP3    H221322   6.593   3.209   2.624
 7127TIP3   OH221323   3.049   5.301   3.929
 7127TIP3    H121324   2.985   5.288   3.860
 7127TIP3    H221325   3.131   5.320   3.883
 7128TIP3   OH221326   3.312   1.706   3.041
 7128TIP3    H121327   3.402   1.674   3.051
 7128TIP3    H221328   3.307   1.780   3.101
 7129TIP3   OH221329   6.093   6.337   2.808
 7129TIP3    H121330   6.002   6.332   2.778
 7129TIP3    H221331   6.117   6.246   2.828
 7130TIP3   OH221332   2.400   0.694   2.396
 7130TIP3    H121333   2.466   0.697   2.465
 7130TIP3    H221334   2.395   0.784   2.363
 7131TIP3   OH221335   4.388   1.244   3.688
 7131TIP3    H121336   4.311   1.237   3.744
 7131TIP3    H221337   4.374   1.323   3.636
 7132TIP3   OH221338   6.504   0.233   2.113
 7132TIP3    H121339   6.419   0.203   2.147
 7132TIP3    H221340   6.507   0.201   2.023
 7133TIP3   OH221341   2.521   2.147   2.468
 7133TIP3    H121342   2.608   2.120   2.437
 7133TIP3    H221343   2.462   2.126   2.396
 7134TIP3   OH221344   3.996   2.717   3.985
 7134TIP3    H121345   4.088   2.713   4.009
 7134TIP3    H221346   3.948   2.696   4.065
 7135TIP3   OH221347   2.248   3.365   2.257
 7135TIP3    H121348   2.336   3.340   2.229
 7135TIP3    H221349   2.237   3.324   2.343
 7136TIP3   OH221350   8.253   4.400   0.599
 7136TIP3    H121351   8.322   4.417   0.662
 7136TIP3    H221352   8.256   4.475   0.540
 7137TIP3   OH221353   2.934   4.060   0.781
 7137TIP3    H121354   3.029   4.050   0.788
 7137TIP3    H221355   2.911   4.012   0.702
 7138TIP3   OH221356   7.234   4.637   2.884
 7138TIP3    H121357   7.260   4.633   2.976
 7138TIP3    H221358   7.238   4.547   2.854
 7139TIP3   OH221359   2.615   5.807   1.815
 7139TIP3    H121360   2.703   5.781   1.786
 7139TIP3    H221361   2.604   5.762   1.899
 7140TIP3   OH221362   6.476   0.042   5.292
 7140TIP3    H121363   6.522   0.106   5.237
 7140TIP3    H221364   6.395   0.024   5.244
 7141TIP3   OH221365   0.763   5.940   1.347
 7141TIP3    H121366   0.832   5.874   1.338
 7141TIP3    H221367   0.702   5.921   1.276
 7142TIP3   OH221368   0.075   6.737   4.588
 7142TIP3    H121369   0.028   6.658   4.616
 7142TIP3    H221370   0.165   6.708   4.577
 7143TIP3   OH221371   7.692   7.502   6.783
 7143TIP3    H121372   7.770   7.494   6.838
 7143TIP3    H221373   7.670   7.411   6.760
 7144TIP3   OH221374   1.211   6.461   2.733
 7144TIP3    H121375   1.202   6.502   2.819
 7144TIP3    H221376   1.206   6.533   2.671
 7145TIP3   OH221377   3.459   3.842   4.808
 7145TIP3    H121378   3.479   3.750   4.794
 7145TIP3    H221379   3.539   3.888   4.782
 7146TIP3   OH221380   4.185   6.828   4.830
 7146TIP3    H121381   4.153   6.918   4.835
 7146TIP3    H221382   4.237   6.825   4.750
 7147TIP3   OH221383   2.232   1.558   0.519
 7147TIP3    H121384   2.234   1.502   0.442
 7147TIP3    H221385   2.324   1.576   0.538
 7148TIP3   OH221386   5.754   1.423   4.647
 7148TIP3    H121387   5.665   1.391   4.639
 7148TIP3    H221388   5.804   1.372   4.584
 7149TIP3   OH221389   6.996   1.293   0.981
 7149TIP3    H121390   6.915   1.249   1.007
 7149TIP3    H221391   6.980   1.320   0.890
 7150TIP3   OH221392   0.190   5.948   3.024
 7150TIP3    H121393   0.163   5.931   2.934
 7150TIP3    H221394   0.135   5.891   3.077
 7151TIP3   OH221395   0.084   1.103   1.817
 7151TIP3    H121396  -0.006   1.129   1.797
 7151TIP3    H221397   0.076   1.039   1.888
 7152TIP3   OH221398   3.019   1.360   6.492
 7152TIP3    H121399   3.111   1.374   6.469
 7152TIP3    H221400   2.977   1.335   6.409
 7153TIP3   OH221401   2.654   2.667   1.023
 7153TIP3    H121402   2.666   2.683   0.929
 7153TIP3    H221403   2.733   2.703   1.063
 7154TIP3   OH221404   6.101   5.241   4.961
 7154TIP3    H121405   6.074   5.160   4.918
 7154TIP3    H221406   6.019   5.290   4.974
 7155TIP3   OH221407   4.958   1.072   4.628
 7155TIP3    H121408   4.878   1.125   4.633
 7155TIP3    H221409   4.991   1.070   4.718
 7156TIP3   OH221410   6.881   4.005   2.779
 7156TIP3    H121411   6.964   3.966   2.808
 7156TIP3    H221412   6.906   4.090   2.743
 7157TIP3   OH221413   0.924   7.090   0.418
 7157TIP3    H121414   0.929   7.109   0.512
 7157TIP3    H221415   0.863   7.017   0.412
 7158TIP3   OH221416   0.827   7.766   2.612
 7158TIP3    H121417   0.889   7.839   2.602
 7158TIP3    H221418   0.882   7.688   2.620
 7159TIP3   OH221419   6.632   2.324   6.690
 7159TIP3    H121420   6.669   2.326   6.778
 7159TIP3    H221421   6.589   2.409   6.681
 7160TIP3   OH221422   3.847   7.224   4.660
 7160TIP3    H121423   3.799   7.299   4.695
 7160TIP3    H221424   3.818   7.215   4.570
 7161TIP3   OH221425   6.269   0.609   3.669
 7161TIP3    H121426   6.334   0.549   3.705
 7161TIP3    H221427   6.296   0.622   3.578
 7162TIP3   OH221428   5.516   0.233   1.413
 7162TIP3    H121429   5.479   0.177   1.481
 7162TIP3    H221430   5.603   0.196   1.396
 7163TIP3   OH221431   4.232   5.118   1.071
 7163TIP3    H121432   4.234   5.037   1.123
 7163TIP3    H221433   4.302   5.171   1.108
 7164TIP3   OH221434   4.640   1.290   5.510
 7164TIP3    H121435   4.715   1.231   5.498
 7164TIP3    H221436   4.670   1.374   5.476
 7165TIP3   OH221437   5.453   0.346   0.337
 7165TIP3    H121438   5.503   0.297   0.403
 7165TIP3    H221439   5.390   0.283   0.303
 7166TIP3   OH221440   4.085   6.806   1.819
 7166TIP3    H121441   4.164   6.773   1.775
 7166TIP3    H221442   4.074   6.894   1.783
 7167TIP3   OH221443   6.117   5.913   3.203
 7167TIP3    H121444   6.185   5.871   3.152
 7167TIP3    H221445   6.044   5.924   3.142
 7168TIP3   OH221446   4.788   6.421   1.548
 7168TIP3    H121447   4.878   6.443   1.523
 7168TIP3    H221448   4.738   6.430   1.467
 7169TIP3   OH221449   2.166   0.183   0.476
 7169TIP3    H121450   2.115   0.162   0.555
 7169TIP3    H221451   2.242   0.230   0.509
 7170TIP3   OH221452   3.897   1.032   1.843
 7170TIP3    H121453   3.990   1.015   1.825
 7170TIP3    H221454   3.872   1.096   1.776
 7171TIP3   OH221455   1.267   0.873   1.851
 7171TIP3    H121456   1.356   0.892   1.823
 7171TIP3    H221457   1.211   0.924   1.791
 7172TIP3   OH221458   7.050   2.175   3.102
 7172TIP3    H121459   7.027   2.083   3.091
 7172TIP3    H221460   7.034   2.214   3.016
 7173TIP3   OH221461   3.215   5.467   0.660
 7173TIP3    H121462   3.250   5.546   0.617
 7173TIP3    H221463   3.145   5.500   0.716
 7174TIP3   OH221464   3.566   4.504   1.533
 7174TIP3    H121465   3.658   4.514   1.506
 7174TIP3    H221466   3.518   4.566   1.479
 7175TIP3   OH221467   7.254   5.032   1.492
 7175TIP3    H121468   7.224   4.950   1.530
 7175TIP3    H221469   7.265   5.013   1.398
 7176TIP3   OH221470   1.354   7.279   2.478
 7176TIP3    H121471   1.356   7.332   2.398
 7176TIP3    H221472   1.314   7.337   2.543
 7177TIP3   OH221473   2.400   0.925   5.495
 7177TIP3    H121474   2.349   0.849   5.522
 7177TIP3    H221475   2.443   0.898   5.414
 7178TIP3   OH221476   4.737   2.085   1.679
 7178TIP3    H121477   4.767   2.049   1.596
 7178TIP3    H221478   4.816   2.123   1.718
 7179TIP3   OH221479   4.716   0.654   1.568
 7179TIP3    H121480   4.769   0.717   1.519
 7179TIP3    H221481   4.665   0.707   1.629
 7180TIP3   OH221482   7.634   7.331   1.425
 7180TIP3    H121483   7.720   7.343   1.464
 7180TIP3    H221484   7.572   7.351   1.495
 7181TIP3   OH221485   1.777   5.993   2.115
 7181TIP3    H121486   1.696   6.043   2.123
 7181TIP3    H221487   1.835   6.030   2.183
 7182TIP3   OH221488   2.516   3.279   0.936
 7182TIP3    H121489   2.602   3.316   0.957
 7182TIP3    H221490   2.530   3.184   0.934
 7183TIP3   OH221491   7.542   0.450   1.407
 7183TIP3    H121492   7.522   0.357   1.396
 7183TIP3    H221493   7.578   0.477   1.323
 7184TIP3   OH221494   6.016   3.781   2.865
 7184TIP3    H121495   6.030   3.689   2.843
 7184TIP3    H221496   6.098   3.824   2.841
 7185TIP3   OH221497   0.191   7.549   1.761
 7185TIP3    H121498   0.159   7.589   1.681
 7185TIP3    H221499   0.115   7.501   1.796
 7186TIP3   OH221500   2.865   6.440   3.268
 7186TIP3    H121501   2.798   6.508   3.259
 7186TIP3    H221502   2.948   6.485   3.254
 7187TIP3   OH221503   3.173   7.731   3.930
 7187TIP3    H121504   3.199   7.823   3.936
 7187TIP3    H221505   3.100   7.731   3.868
 7188TIP3   OH221506   6.868   3.972   5.655
 7188TIP3    H121507   6.963   3.966   5.645
 7188TIP3    H221508   6.855   3.986   5.749
 7189TIP3   OH221509   5.733   1.717   3.057
 7189TIP3    H121510   5.678   1.666   2.998
 7189TIP3    H221511   5.671   1.764   3.113
 7190TIP3   OH221512   2.168   0.786   1.549
 7190TIP3    H121513   2.247   0.775   1.601
 7190TIP3    H221514   2.110   0.715   1.576
 7191TIP3   OH221515   4.340   1.032   4.994
 7191TIP3    H121516   4.352   0.937   4.991
 7191TIP3    H221517   4.251   1.046   4.962
 7192TIP3   OH221518   4.660   0.814   5.935
 7192TIP3    H121519   4.647   0.907   5.915
 7192TIP3    H221520   4.601   0.768   5.876
 7193TIP3   OH221521   4.920   3.126   3.137
 7193TIP3    H121522   4.899   3.092   3.050
 7193TIP3    H221523   4.895   3.055   3.197
 7194TIP3   OH221524   0.074   0.890   4.710
 7194TIP3    H121525   0.134   0.964   4.706
 7194TIP3    H221526   0.124   0.820   4.752
 7195TIP3   OH221527   6.758   7.311   3.499
 7195TIP3    H121528   6.699   7.241   3.524
 7195TIP3    H221529   6.809   7.328   3.578
 7196TIP3   OH221530   7.763   3.505   1.406
 7196TIP3    H121531   7.780   3.526   1.314
 7196TIP3    H221532   7.808   3.573   1.455
 7197TIP3   OH221533   7.782   3.622   1.124
 7197TIP3    H121534   7.838   3.589   1.054
 7197TIP3    H221535   7.702   3.648   1.080
 7198TIP3   OH221536   8.212   7.560   0.616
 7198TIP3    H121537   8.147   7.490   0.620
 7198TIP3    H221538   8.162   7.636   0.584
 7199TIP3   OH221539   5.390   5.510   6.617
 7199TIP3    H121540   5.423   5.524   6.528
 7199TIP3    H221541   5.305   5.556   6.618
 7200TIP3   OH221542   1.520   5.682   1.950
 7200TIP3    H121543   1.439   5.632   1.959
 7200TIP3    H221544   1.535   5.687   1.856
 7201TIP3   OH221545   3.925   7.282   5.145
 7201TIP3    H121546   3.876   7.325   5.215
 7201TIP3    H221547   3.879   7.200   5.129
 7202TIP3   OH221548   2.918   4.482   3.287
 7202TIP3    H121549   2.836   4.512   3.249
 7202TIP3    H221550   2.894   4.445   3.372
 7203TIP3   OH221551   8.056   2.432   1.083
 7203TIP3    H121552   8.060   2.404   1.174
 7203TIP3    H221553   8.059   2.527   1.086
 7204TIP3   OH221554   7.030   4.499   4.446
 7204TIP3    H121555   7.107   4.448   4.418
 7204TIP3    H221556   6.956   4.455   4.403
 7205TIP3   OH221557   7.398   4.703   4.477
 7205TIP3    H121558   7.338   4.729   4.407
 7205TIP3    H221559   7.396   4.608   4.477
 7206TIP3   OH221560   6.987   6.720   6.602
 7206TIP3    H121561   6.956   6.749   6.516
 7206TIP3    H221562   6.971   6.625   6.602
 7207TIP3   OH221563   0.216   5.435   6.543
 7207TIP3    H121564   0.223   5.527   6.515
 7207TIP3    H221565   0.247   5.436   6.634
 7208TIP3   OH221566   5.746   4.586   0.436
 7208TIP3    H121567   5.746   4.616   0.345
 7208TIP3    H221568   5.799   4.506   0.434
 7209TIP3   OH221569   0.840   1.585   1.927
 7209TIP3    H121570   0.878   1.541   1.851
 7209TIP3    H221571   0.902   1.656   1.946
 7210TIP3   OH221572   1.912   3.028   4.749
 7210TIP3    H121573   2.004   3.025   4.722
 7210TIP3    H221574   1.882   2.938   4.739
 7211TIP3   OH221575   8.216   2.762   5.324
 7211TIP3    H121576   8.131   2.798   5.349
 7211TIP3    H221577   8.257   2.739   5.407
 7212TIP3   OH221578   2.964   0.802   0.755
 7212TIP3    H121579   2.897   0.743   0.719
 7212TIP3    H221580   3.021   0.822   0.680
 7213TIP3   OH221581   5.499   4.931   5.604
 7213TIP3    H121582   5.567   4.991   5.573
 7213TIP3    H221583   5.513   4.926   5.699
 7214TIP3   OH221584   3.138   6.015   4.248
 7214TIP3    H121585   3.126   5.921   4.234
 7214TIP3    H221586   3.166   6.048   4.163
 7215TIP3   OH221587   2.107   7.423   3.173
 7215TIP3    H121588   2.111   7.503   3.226
 7215TIP3    H221589   2.096   7.454   3.084
 7216TIP3   OH221590   5.111   0.667   0.438
 7216TIP3    H121591   5.075   0.600   0.380
 7216TIP3    H221592   5.179   0.622   0.489
 7217TIP3   OH221593   1.365   6.144   1.115
 7217TIP3    H121594   1.432   6.203   1.149
 7217TIP3    H221595   1.411   6.062   1.100
 7218TIP3   OH221596   1.288   5.568   2.951
 7218TIP3    H121597   1.361   5.590   3.009
 7218TIP3    H221598   1.321   5.585   2.863
 7219TIP3   OH221599   7.041   3.803   5.915
 7219TIP3    H121600   7.064   3.799   6.008
 7219TIP3    H221601   7.033   3.897   5.897
 7220TIP3   OH221602   6.268   1.326   3.764
 7220TIP3    H121603   6.325   1.252   3.745
 7220TIP3    H221604   6.181   1.287   3.773
 7221TIP3   OH221605   8.241   1.581   5.497
 7221TIP3    H121606   8.190   1.642   5.443
 7221TIP3    H221607   8.219   1.495   5.463
 7222TIP3   OH221608   4.037   5.356   6.422
 7222TIP3    H121609   4.061   5.445   6.446
 7222TIP3    H221610   3.972   5.365   6.353
 7223TIP3   OH221611   4.358   4.974   0.044
 7223TIP3    H121612   4.369   4.912  -0.028
 7223TIP3    H221613   4.312   4.925   0.112
 7224TIP3   OH221614   5.976   6.481   3.825
 7224TIP3    H121615   6.034   6.519   3.758
 7224TIP3    H221616   6.015   6.396   3.846
 7225TIP3   OH221617   8.073   4.785   1.841
 7225TIP3    H121618   8.152   4.749   1.800
 7225TIP3    H221619   8.006   4.781   1.773
 7226TIP3   OH221620   8.174   4.791   5.611
 7226TIP3    H121621   8.253   4.750   5.646
 7226TIP3    H221622   8.118   4.804   5.688
 7227TIP3   OH221623   3.329   0.422   5.354
 7227TIP3    H121624   3.405   0.479   5.371
 7227TIP3    H221625   3.254   0.482   5.355
 7228TIP3   OH221626   2.774   3.154   3.262
 7228TIP3    H121627   2.766   3.070   3.218
 7228TIP3    H221628   2.827   3.208   3.202
 7229TIP3   OH221629   3.835   1.772   0.907
 7229TIP3    H121630   3.867   1.706   0.969
 7229TIP3    H221631   3.831   1.853   0.958
 7230TIP3   OH221632   0.671   3.217   3.232
 7230TIP3    H121633   0.594   3.257   3.271
 7230TIP3    H221634   0.665   3.241   3.139
 7231TIP3   OH221635   5.370   1.473   5.871
 7231TIP3    H121636   5.463   1.494   5.881
 7231TIP3    H221637   5.325   1.555   5.891
 7232TIP3   OH221638   6.515   0.625   2.931
 7232TIP3    H121639   6.437   0.681   2.925
 7232TIP3    H221640   6.525   0.589   2.844
 7233TIP3   OH221641   3.338   0.240   2.398
 7233TIP3    H121642   3.302   0.312   2.346
 7233TIP3    H221643   3.340   0.165   2.337
 7234TIP3   OH221644   2.043   1.591   1.402
 7234TIP3    H121645   2.036   1.659   1.335
 7234TIP3    H221646   1.952   1.568   1.423
 7235TIP3   OH221647   6.548   4.790   1.365
 7235TIP3    H121648   6.583   4.702   1.355
 7235TIP3    H221649   6.514   4.793   1.454
 7236TIP3   OH221650   6.424   0.344   3.708
 7236TIP3    H121651   6.510   0.367   3.673
 7236TIP3    H221652   6.443   0.284   3.781
 7237TIP3   OH221653   6.172   6.650   1.118
 7237TIP3    H121654   6.188   6.655   1.024
 7237TIP3    H221655   6.213   6.569   1.145
 7238TIP3   OH221656   5.505   2.340   5.554
 7238TIP3    H121657   5.531   2.302   5.470
 7238TIP3    H221658   5.523   2.433   5.544
 7239TIP3   OH221659   5.874   2.968   4.247
 7239TIP3    H121660   5.897   2.916   4.324
 7239TIP3    H221661   5.857   3.056   4.283
 7240TIP3   OH221662   2.965   5.446   3.263
 7240TIP3    H121663   3.054   5.480   3.271
 7240TIP3    H221664   2.963   5.371   3.322
 7241TIP3   OH221665   1.060   0.763   6.424
 7241TIP3    H121666   1.073   0.843   6.476
 7241TIP3    H221667   0.985   0.783   6.368
 7242TIP3   OH221668   7.744   4.900   0.254
 7242TIP3    H121669   7.691   4.975   0.226
 7242TIP3    H221670   7.829   4.914   0.213
 7243TIP3   OH221671   1.545   5.270   0.953
 7243TIP3    H121672   1.612   5.333   0.978
 7243TIP3    H221673   1.494   5.255   1.033
 7244TIP3   OH221674   7.992   7.477   1.394
 7244TIP3    H121675   8.087   7.475   1.385
 7244TIP3    H221676   7.964   7.386   1.383
 7245TIP3   OH221677   4.068   4.741   2.616
 7245TIP3    H121678   4.091   4.654   2.648
 7245TIP3    H221679   4.099   4.800   2.685
 7246TIP3   OH221680   8.125   6.122   1.951
 7246TIP3    H121681   8.164   6.035   1.945
 7246TIP3    H221682   8.052   6.120   1.890
 7247TIP3   OH221683   7.030   6.861   0.897
 7247TIP3    H121684   7.067   6.797   0.836
 7247TIP3    H221685   6.941   6.875   0.865
 7248TIP3   OH221686   0.814   4.305   3.971
 7248TIP3    H121687   0.811   4.322   3.877
 7248TIP3    H221688   0.774   4.219   3.981
 7249TIP3   OH221689   0.769   4.471   1.921
 7249TIP3    H121690   0.720   4.542   1.879
 7249TIP3    H221691   0.705   4.428   1.977
 7250TIP3   OH221692   8.067   7.124   2.300
 7250TIP3    H121693   8.102   7.091   2.218
 7250TIP3    H221694   7.973   7.136   2.284
 7251TIP3   OH221695   2.442   1.131   5.656
 7251TIP3    H121696   2.426   1.068   5.587
 7251TIP3    H221697   2.385   1.205   5.636
 7252TIP3   OH221698   5.779   0.119   1.332
 7252TIP3    H121699   5.817   0.031   1.331
 7252TIP3    H221700   5.823   0.165   1.261
 7253TIP3   OH221701   6.430   1.791   4.095
 7253TIP3    H121702   6.430   1.782   4.190
 7253TIP3    H221703   6.346   1.832   4.075
 7254TIP3   OH221704   3.804   1.051   5.655
 7254TIP3    H121705   3.746   0.990   5.610
 7254TIP3    H221706   3.864   1.081   5.586
 7255TIP3   OH221707   8.001   3.812   0.201
 7255TIP3    H121708   8.074   3.874   0.205
 7255TIP3    H221709   8.035   3.739   0.148
 7256TIP3   OH221710   7.350   3.514   3.419
 7256TIP3    H121711   7.255   3.520   3.409
 7256TIP3    H221712   7.383   3.595   3.379
 7257TIP3   OH221713   0.152   7.163   6.152
 7257TIP3    H121714   0.228   7.133   6.202
 7257TIP3    H221715   0.144   7.100   6.080
 7258TIP3   OH221716   5.989   4.231   0.724
 7258TIP3    H121717   5.934   4.230   0.803
 7258TIP3    H221718   6.035   4.315   0.729
 7259TIP3   OH221719   7.799   7.448   5.447
 7259TIP3    H121720   7.792   7.380   5.381
 7259TIP3    H221721   7.893   7.462   5.459
 7260TIP3   OH221722   1.897   1.163   4.912
 7260TIP3    H121723   1.879   1.235   4.852
 7260TIP3    H221724   1.985   1.180   4.945
 7261TIP3   OH221725   4.290   5.574   0.568
 7261TIP3    H121726   4.315   5.580   0.475
 7261TIP3    H221727   4.331   5.493   0.598
 7262TIP3   OH221728   7.986   0.237   1.117
 7262TIP3    H121729   8.052   0.296   1.081
 7262TIP3    H221730   7.953   0.283   1.194
 7263TIP3   OH221731   7.333   6.463   4.190
 7263TIP3    H121732   7.313   6.369   4.194
 7263TIP3    H221733   7.397   6.476   4.260
 7264TIP3   OH221734   5.904   0.781   5.765
 7264TIP3    H121735   5.850   0.860   5.770
 7264TIP3    H221736   5.856   0.717   5.818
 7265TIP3   OH221737   2.772   6.852   3.047
 7265TIP3    H121738   2.797   6.943   3.064
 7265TIP3    H221739   2.763   6.847   2.952
 7266TIP3   OH221740   4.422   0.287   1.595
 7266TIP3    H121741   4.511   0.286   1.630
 7266TIP3    H221742   4.373   0.228   1.652
 7267TIP3   OH221743   3.234   1.278   4.819
 7267TIP3    H121744   3.322   1.270   4.855
 7267TIP3    H221745   3.243   1.250   4.728
 7268TIP3   OH221746   2.110   0.857   3.296
 7268TIP3    H121747   2.180   0.850   3.360
 7268TIP3    H221748   2.029   0.847   3.346
 7269TIP3   OH221749   6.499   5.380   4.426
 7269TIP3    H121750   6.588   5.379   4.462
 7269TIP3    H221751   6.511   5.407   4.335
 7270TIP3   OH221752   1.399   7.224   1.202
 7270TIP3    H121753   1.342   7.149   1.217
 7270TIP3    H221754   1.438   7.242   1.288
 7271TIP3   OH221755   3.446   0.125   0.000
 7271TIP3    H121756   3.463   0.078  -0.082
 7271TIP3    H221757   3.464   0.061   0.069
 7272TIP3   OH221758   0.834   2.838   4.728
 7272TIP3    H121759   0.786   2.764   4.766
 7272TIP3    H221760   0.856   2.809   4.640
 7273TIP3   OH221761   0.853   5.317   0.817
 7273TIP3    H121762   0.847   5.330   0.723
 7273TIP3    H221763   0.787   5.376   0.854
 7274TIP3   OH221764   1.870   1.913   4.497
 7274TIP3    H121765   1.831   1.999   4.483
 7274TIP3    H221766   1.958   1.920   4.459
 7275TIP3   OH221767   5.284   5.669   1.949
 7275TIP3    H121768   5.219   5.648   2.016
 7275TIP3    H221769   5.331   5.744   1.983
 7276TIP3   OH221770   7.352   6.380   2.637
 7276TIP3    H121771   7.370   6.409   2.727
 7276TIP3    H221772   7.365   6.285   2.640
 7277TIP3   OH221773   4.986   1.623   4.099
 7277TIP3    H121774   5.024   1.606   4.185
 7277TIP3    H221775   4.996   1.718   4.087
 7278TIP3   OH221776   4.307   3.193   0.136
 7278TIP3    H121777   4.230   3.189   0.194
 7278TIP3    H221778   4.360   3.117   0.162
 7279TIP3   OH221779   1.871   2.233   1.359
 7279TIP3    H121780   1.839   2.165   1.417
 7279TIP3    H221781   1.819   2.310   1.380
 7280TIP3   OH221782   3.150   1.502   4.140
 7280TIP3    H121783   3.198   1.493   4.222
 7280TIP3    H221784   3.150   1.596   4.122
 7281TIP3   OH221785   0.397   2.543   4.898
 7281TIP3    H121786   0.448   2.465   4.876
 7281TIP3    H221787   0.332   2.550   4.827
 7282TIP3   OH221788   5.293   1.996   3.021
 7282TIP3    H121789   5.314   2.020   2.931
 7282TIP3    H221790   5.363   2.035   3.073
 7283TIP3   OH221791   0.895   5.159   6.364
 7283TIP3    H121792   0.813   5.208   6.371
 7283TIP3    H221793   0.963   5.224   6.384
 7284TIP3   OH221794   3.238   4.964   6.330
 7284TIP3    H121795   3.307   4.914   6.373
 7284TIP3    H221796   3.241   5.050   6.371
 7285TIP3   OH221797   5.448   0.309   1.119
 7285TIP3    H121798   5.528   0.297   1.067
 7285TIP3    H221799   5.469   0.270   1.204
 7286TIP3   OH221800   4.961   5.037   1.100
 7286TIP3    H121801   5.027   5.101   1.074
 7286TIP3    H221802   4.899   5.035   1.027
 7287TIP3   OH221803   1.264   5.927   4.397
 7287TIP3    H121804   1.268   5.888   4.484
 7287TIP3    H221805   1.197   5.875   4.351
 7288TIP3   OH221806   1.782   1.521   2.131
 7288TIP3    H121807   1.785   1.601   2.184
 7288TIP3    H221808   1.750   1.453   2.191
 7289TIP3   OH221809   4.406   3.627   1.500
 7289TIP3    H121810   4.347   3.603   1.572
 7289TIP3    H221811   4.494   3.619   1.538
 7290TIP3   OH221812   4.066   2.229   5.108
 7290TIP3    H121813   4.128   2.301   5.123
 7290TIP3    H221814   4.091   2.194   5.023
 7291TIP3   OH221815   6.645   4.776   4.332
 7291TIP3    H121816   6.624   4.723   4.409
 7291TIP3    H221817   6.711   4.726   4.285
 7292TIP3   OH221818   2.645   4.989   4.987
 7292TIP3    H121819   2.559   5.007   5.024
 7292TIP3    H221820   2.656   5.055   4.918
 7293TIP3   OH221821   6.357   1.768   1.932
 7293TIP3    H121822   6.422   1.802   1.871
 7293TIP3    H221823   6.316   1.696   1.885
 7294TIP3   OH221824   4.428   6.339   1.683
 7294TIP3    H121825   4.475   6.325   1.601
 7294TIP3    H221826   4.466   6.418   1.720
 7295TIP3   OH221827   4.427   7.624   3.463
 7295TIP3    H121828   4.443   7.578   3.545
 7295TIP3    H221829   4.466   7.569   3.396
 7296TIP3   OH221830   0.797   1.911   2.601
 7296TIP3    H121831   0.883   1.922   2.562
 7296TIP3    H221832   0.774   1.820   2.584
 7297TIP3   OH221833   4.310   3.390   5.758
 7297TIP3    H121834   4.327   3.471   5.807
 7297TIP3    H221835   4.375   3.390   5.688
 7298TIP3   OH221836   4.950   0.408   5.987
 7298TIP3    H121837   4.861   0.377   6.004
 7298TIP3    H221838   4.943   0.504   5.993
 7299TIP3   OH221839   5.022   7.375   2.288
 7299TIP3    H121840   4.968   7.435   2.236
 7299TIP3    H221841   4.969   7.295   2.294
 7300TIP3   OH221842  -0.075   0.266   2.618
 7300TIP3    H121843  -0.044   0.279   2.708
 7300TIP3    H221844  -0.004   0.300   2.563
 7301TIP3   OH221845   1.807   2.255   4.844
 7301TIP3    H121846   1.881   2.253   4.783
 7301TIP3    H221847   1.843   2.228   4.928
 7302TIP3   OH221848   7.973   5.812   1.691
 7302TIP3    H121849   8.041   5.870   1.657
 7302TIP3    H221850   8.021   5.751   1.748
 7303TIP3   OH221851   6.246   6.532   2.926
 7303TIP3    H121852   6.181   6.467   2.901
 7303TIP3    H221853   6.219   6.612   2.881
 7304TIP3   OH221854   6.060   5.361   2.908
 7304TIP3    H121855   6.066   5.324   2.996
 7304TIP3    H221856   6.151   5.374   2.881
 7305TIP3   OH221857   2.229   1.050   4.539
 7305TIP3    H121858   2.264   0.983   4.598
 7305TIP3    H221859   2.226   1.130   4.593
 7306TIP3   OH221860   5.820   5.464   6.464
 7306TIP3    H121861   5.840   5.378   6.427
 7306TIP3    H221862   5.857   5.461   6.553
 7307TIP3   OH221863   2.384   6.842   0.416
 7307TIP3    H121864   2.417   6.925   0.381
 7307TIP3    H221865   2.318   6.814   0.353
 7308TIP3   OH221866   4.339   2.302   0.100
 7308TIP3    H121867   4.339   2.206   0.100
 7308TIP3    H221868   4.256   2.325   0.143
 7309TIP3   OH221869   4.965   1.937   0.939
 7309TIP3    H121870   5.049   1.968   0.905
 7309TIP3    H221871   4.926   2.013   0.981
 7310TIP3   OH221872   4.806   1.422   2.268
 7310TIP3    H121873   4.839   1.436   2.356
 7310TIP3    H221874   4.734   1.485   2.259
 7311TIP3   OH221875   0.875   7.347   5.788
 7311TIP3    H121876   0.816   7.411   5.828
 7311TIP3    H221877   0.861   7.267   5.838
 7312TIP3   OH221878   4.188   4.992   0.596
 7312TIP3    H121879   4.206   5.030   0.682
 7312TIP3    H221880   4.265   4.938   0.577
 7313TIP3   OH221881   5.004   0.582   4.472
 7313TIP3    H121882   4.988   0.670   4.438
 7313TIP3    H221883   5.048   0.536   4.400
 7314TIP3   OH221884   6.220   7.548   3.063
 7314TIP3    H121885   6.305   7.540   3.020
 7314TIP3    H221886   6.164   7.591   2.998
 7315TIP3   OH221887   4.368   5.333   4.373
 7315TIP3    H121888   4.319   5.252   4.359
 7315TIP3    H221889   4.330   5.369   4.454
 7316TIP3   OH221890   6.304   6.664   0.146
 7316TIP3    H121891   6.245   6.700   0.213
 7316TIP3    H221892   6.331   6.741   0.095
 7317TIP3   OH221893   3.325   6.650   4.749
 7317TIP3    H121894   3.359   6.561   4.741
 7317TIP3    H221895   3.234   6.638   4.776
 7318TIP3   OH221896   4.749   2.754   6.314
 7318TIP3    H121897   4.736   2.849   6.319
 7318TIP3    H221898   4.824   2.744   6.256
 7319TIP3   OH221899   7.154   6.954   5.169
 7319TIP3    H121900   7.220   6.885   5.172
 7319TIP3    H221901   7.205   7.035   5.169
 7320TIP3   OH221902   7.603   5.638   1.375
 7320TIP3    H121903   7.582   5.689   1.453
 7320TIP3    H221904   7.698   5.642   1.367
 7321TIP3   OH221905   1.898   2.313   2.228
 7321TIP3    H121906   1.976   2.338   2.177
 7321TIP3    H221907   1.903   2.366   2.307
 7322TIP3   OH221908   2.342   4.492   3.753
 7322TIP3    H121909   2.390   4.562   3.798
 7322TIP3    H221910   2.270   4.538   3.709
 7323TIP3   OH221911   2.345   0.190   2.704
 7323TIP3    H121912   2.288   0.249   2.654
 7323TIP3    H221913   2.350   0.229   2.791
 7324TIP3   OH221914   7.289   1.838   2.072
 7324TIP3    H121915   7.320   1.860   2.160
 7324TIP3    H221916   7.215   1.780   2.088
 7325TIP3   OH221917   1.728   1.460   1.226
 7325TIP3    H121918   1.782   1.414   1.163
 7325TIP3    H221919   1.638   1.436   1.202
 7326TIP3   OH221920   4.068   4.578   0.619
 7326TIP3    H121921   4.110   4.523   0.553
 7326TIP3    H221922   4.049   4.519   0.692
 7327TIP3   OH221923   1.950   6.473   1.061
 7327TIP3    H121924   1.886   6.402   1.051
 7327TIP3    H221925   2.023   6.446   1.006
 7328TIP3   OH221926   4.215   3.085   3.122
 7328TIP3    H121927   4.232   3.031   3.199
 7328TIP3    H221928   4.225   3.175   3.152
 7329TIP3   OH221929   7.761   2.981   3.737
 7329TIP3    H121930   7.783   2.916   3.670
 7329TIP3    H221931   7.835   3.042   3.735
 7330TIP3   OH221932   3.780   1.415   4.969
 7330TIP3    H121933   3.861   1.435   5.016
 7330TIP3    H221934   3.751   1.331   5.006
 7331TIP3   OH221935   2.392   0.761   3.804
 7331TIP3    H121936   2.451   0.689   3.784
 7331TIP3    H221937   2.450   0.837   3.812
 7332TIP3   OH221938   3.037   0.185   2.089
 7332TIP3    H121939   3.035   0.120   2.019
 7332TIP3    H221940   3.049   0.268   2.043
 7333TIP3   OH221941   4.474   2.862   5.709
 7333TIP3    H121942   4.503   2.787   5.657
 7333TIP3    H221943   4.396   2.831   5.755
 7334TIP3   OH221944   6.177   2.593   2.537
 7334TIP3    H121945   6.223   2.570   2.456
 7334TIP3    H221946   6.238   2.569   2.607
 7335TIP3   OH221947   3.171   4.991   5.814
 7335TIP3    H121948   3.155   5.084   5.798
 7335TIP3    H221949   3.266   4.985   5.827
 7336TIP3   OH221950   6.119   5.297   0.925
 7336TIP3    H121951   6.128   5.283   0.830
 7336TIP3    H221952   6.076   5.217   0.956
 7337TIP3   OH221953   5.543   0.742   5.795
 7337TIP3    H121954   5.552   0.646   5.791
 7337TIP3    H221955   5.562   0.764   5.886
 7338TIP3   OH221956   2.012   4.903   2.890
 7338TIP3    H121957   1.936   4.907   2.948
 7338TIP3    H221958   2.010   4.815   2.854
 7339TIP3   OH221959   6.732   4.468   1.859
 7339TIP3    H121960   6.705   4.528   1.929
 7339TIP3    H221961   6.808   4.422   1.895
 7340TIP3   OH221962   7.306   4.170   1.073
 7340TIP3    H121963   7.233   4.108   1.081
 7340TIP3    H221964   7.310   4.212   1.159
 7341TIP3   OH221965   2.151   2.436   5.661
 7341TIP3    H121966   2.178   2.527   5.663
 7341TIP3    H221967   2.057   2.438   5.680
 7342TIP3   OH221968   6.552   2.640   6.498
 7342TIP3    H121969   6.472   2.643   6.444
 7342TIP3    H221970   6.523   2.601   6.581
 7343TIP3   OH221971   6.205   4.949   0.579
 7343TIP3    H121972   6.175   4.866   0.542
 7343TIP3    H221973   6.218   4.930   0.672
 7344TIP3   OH221974   1.573   7.099   6.081
 7344TIP3    H121975   1.532   7.180   6.112
 7344TIP3    H221976   1.501   7.037   6.073
 7345TIP3   OH221977   4.043   2.922   6.640
 7345TIP3    H121978   4.103   2.865   6.592
 7345TIP3    H221979   4.075   2.919   6.730
 7346TIP3   OH221980   5.271   6.836   1.032
 7346TIP3    H121981   5.292   6.925   1.003
 7346TIP3    H221982   5.199   6.809   0.975
 7347TIP3   OH221983   2.745   1.876   3.100
 7347TIP3    H121984   2.696   1.850   3.178
 7347TIP3    H221985   2.682   1.868   3.028
 7348TIP3   OH221986   6.141   1.230   5.890
 7348TIP3    H121987   6.114   1.222   5.798
 7348TIP3    H221988   6.100   1.156   5.934
 7349TIP3   OH221989   2.335   0.912   3.464
 7349TIP3    H121990   2.429   0.930   3.470
 7349TIP3    H221991   2.300   0.932   3.551
 7350TIP3   OH221992   6.866   7.424   6.368
 7350TIP3    H121993   6.878   7.416   6.462
 7350TIP3    H221994   6.952   7.408   6.331
 7351TIP3   OH221995   0.104   3.624   0.382
 7351TIP3    H121996   0.160   3.701   0.394
 7351TIP3    H221997   0.065   3.609   0.468
 7352TIP3   OH221998   6.963   1.472   2.837
 7352TIP3    H121999   6.958   1.548   2.896
 7352TIP3    H222000   6.998   1.508   2.756
 7353TIP3   OH222001   7.252   4.997   5.077
 7353TIP3    H122002   7.299   4.936   5.133
 7353TIP3    H222003   7.219   4.943   5.005
 7354TIP3   OH222004   2.508   5.099   6.231
 7354TIP3    H122005   2.551   5.064   6.309
 7354TIP3    H222006   2.491   5.191   6.252
 7355TIP3   OH222007   2.648   1.543   6.588
 7355TIP3    H122008   2.634   1.634   6.617
 7355TIP3    H222009   2.728   1.516   6.634
 7356TIP3   OH222010   3.567   1.919   4.898
 7356TIP3    H122011   3.607   1.850   4.951
 7356TIP3    H222012   3.522   1.872   4.827
 7357TIP3   OH222013   4.581   4.870   3.078
 7357TIP3    H122014   4.620   4.855   2.992
 7357TIP3    H222015   4.499   4.916   3.060
 7358TIP3   OH222016   6.030   0.473   0.544
 7358TIP3    H122017   6.120   0.493   0.519
 7358TIP3    H222018   6.021   0.511   0.631
 7359TIP3   OH222019   5.909   5.816   4.042
 7359TIP3    H122020   5.822   5.780   4.057
 7359TIP3    H222021   5.966   5.768   4.101
 7360TIP3   OH222022   8.170   6.854   5.870
 7360TIP3    H122023   8.139   6.813   5.951
 7360TIP3    H222024   8.092   6.892   5.831
 7361TIP3   OH222025   0.111   3.638   5.713
 7361TIP3    H122026   0.182   3.595   5.760
 7361TIP3    H222027   0.066   3.567   5.667
 7362TIP3   OH222028   0.409   4.899   0.420
 7362TIP3    H122029   0.491   4.931   0.381
 7362TIP3    H222030   0.349   4.974   0.413
 7363TIP3   OH222031   0.198   5.124   4.952
 7363TIP3    H122032   0.175   5.189   5.018
 7363TIP3    H222033   0.190   5.040   4.997
 7364TIP3   OH222034   2.973   4.758   3.166
 7364TIP3    H122035   2.917   4.782   3.240
 7364TIP3    H222036   2.980   4.663   3.171
 7365TIP3   OH222037   4.571   7.671   6.328
 7365TIP3    H122038   4.515   7.628   6.392
 7365TIP3    H222039   4.660   7.652   6.358
 7366TIP3   OH222040   6.572   3.255   0.725
 7366TIP3    H122041   6.579   3.337   0.676
 7366TIP3    H222042   6.515   3.200   0.671
 7367TIP3   OH222043   3.704   4.221   1.993
 7367TIP3    H122044   3.690   4.256   2.081
 7367TIP3    H222045   3.796   4.194   1.992
 7368TIP3   OH222046   3.180   3.267   4.093
 7368TIP3    H122047   3.265   3.240   4.060
 7368TIP3    H222048   3.121   3.196   4.069
 7369TIP3   OH222049   0.821   0.526   4.135
 7369TIP3    H122050   0.751   0.537   4.071
 7369TIP3    H222051   0.897   0.500   4.083
 7370TIP3   OH222052   2.918   7.019   5.616
 7370TIP3    H122053   2.870   7.071   5.681
 7370TIP3    H222054   2.957   7.084   5.558
 7371TIP3   OH222055   3.558   0.211   5.392
 7371TIP3    H122056   3.633   0.217   5.452
 7371TIP3    H222057   3.517   0.128   5.414
 7372TIP3   OH222058   3.111   3.136   1.747
 7372TIP3    H122059   3.051   3.103   1.680
 7372TIP3    H222060   3.171   3.193   1.698
 7373TIP3   OH222061   4.621   0.190   1.144
 7373TIP3    H122062   4.607   0.218   1.053
 7373TIP3    H222063   4.593   0.264   1.197
 7374TIP3   OH222064   1.031   4.872   1.438
 7374TIP3    H122065   1.029   4.852   1.345
 7374TIP3    H222066   1.108   4.826   1.471
 7375TIP3   OH222067   7.853   0.263   2.080
 7375TIP3    H122068   7.915   0.195   2.105
 7375TIP3    H222069   7.772   0.241   2.126
 7376TIP3   OH222070   2.826   3.071   0.751
 7376TIP3    H122071   2.896   3.084   0.815
 7376TIP3    H222072   2.870   3.038   0.673
 7377TIP3   OH222073   3.751   3.370   0.663
 7377TIP3    H122074   3.677   3.424   0.688
 7377TIP3    H222075   3.785   3.335   0.745
 7378TIP3   OH222076   6.513   5.692   5.093
 7378TIP3    H122077   6.440   5.731   5.045
 7378TIP3    H222078   6.518   5.744   5.173
 7379TIP3   OH222079   1.311   4.999   6.507
 7379TIP3    H122080   1.311   4.974   6.599
 7379TIP3    H222081   1.304   4.917   6.459
 7380TIP3   OH222082   6.471   0.976   5.115
 7380TIP3    H122083   6.412   1.043   5.150
 7380TIP3    H222084   6.431   0.893   5.140
 7381TIP3   OH222085   5.680   2.285   6.221
 7381TIP3    H122086   5.758   2.234   6.243
 7381TIP3    H222087   5.664   2.338   6.300
 7382TIP3   OH222088   1.264   4.017   2.549
 7382TIP3    H122089   1.174   4.048   2.563
 7382TIP3    H222090   1.271   4.009   2.454
 7383TIP3   OH222091   6.486  -0.009   5.585
 7383TIP3    H122092   6.470   0.079   5.620
 7383TIP3    H222093   6.481   0.001   5.490
 7384TIP3   OH222094   4.939   6.214   2.570
 7384TIP3    H122095   5.023   6.258   2.561
 7384TIP3    H222096   4.923   6.175   2.484
 7385TIP3   OH222097   0.371   0.768   2.821
 7385TIP3    H122098   0.424   0.700   2.780
 7385TIP3    H222099   0.285   0.729   2.832
 7386TIP3   OH222100   1.175   5.635   1.499
 7386TIP3    H122101   1.172   5.708   1.438
 7386TIP3    H222102   1.106   5.653   1.563
 7387TIP3   OH222103   2.450   2.874   0.089
 7387TIP3    H122104   2.502   2.871   0.169
 7387TIP3    H222105   2.374   2.927   0.111
 7388TIP3   OH222106   0.453   5.976   0.804
 7388TIP3    H122107   0.533   5.944   0.846
 7388TIP3    H222108   0.404   5.896   0.782
 7389TIP3   OH222109   6.201   0.422   4.470
 7389TIP3    H122110   6.233   0.340   4.430
 7389TIP3    H222111   6.116   0.437   4.429
 7390TIP3   OH222112   2.098   7.665   0.254
 7390TIP3    H122113   2.098   7.619   0.338
 7390TIP3    H222114   2.017   7.638   0.212
 7391TIP3   OH222115   3.649   4.123   5.191
 7391TIP3    H122116   3.614   4.171   5.115
 7391TIP3    H222117   3.643   4.031   5.166
 7392TIP3   OH222118   5.305   4.415   4.204
 7392TIP3    H122119   5.321   4.352   4.275
 7392TIP3    H222120   5.212   4.435   4.211
 7393TIP3   OH222121   5.449   1.851   5.502
 7393TIP3    H122122   5.498   1.816   5.577
 7393TIP3    H222123   5.415   1.773   5.458
 7394TIP3   OH222124   0.956   1.058   5.541
 7394TIP3    H122125   1.018   1.108   5.594
 7394TIP3    H222126   1.005   0.981   5.511
 7395TIP3   OH222127   8.006   2.685   1.053
 7395TIP3    H122128   8.069   2.694   0.981
 7395TIP3    H222129   7.943   2.755   1.039
 7396TIP3   OH222130   5.343   6.504   0.078
 7396TIP3    H122131   5.304   6.420   0.104
 7396TIP3    H222132   5.424   6.480   0.034
 7397TIP3   OH222133   5.847   1.487   2.752
 7397TIP3    H122134   5.823   1.435   2.828
 7397TIP3    H222135   5.902   1.558   2.788
 7398TIP3   OH222136   2.877   5.238   4.125
 7398TIP3    H122137   2.799   5.249   4.071
 7398TIP3    H222138   2.949   5.273   4.072
 7399TIP3   OH222139   5.361   7.097   5.711
 7399TIP3    H122140   5.281   7.150   5.708
 7399TIP3    H222141   5.330   7.007   5.713
 7400TIP3   OH222142   2.806   7.802   4.616
 7400TIP3    H122143   2.837   7.758   4.537
 7400TIP3    H222144   2.885   7.823   4.665
 7401TIP3   OH222145   1.542   0.100   0.834
 7401TIP3    H122146   1.597   0.179   0.834
 7401TIP3    H222147   1.486   0.110   0.757
 7402TIP3   OH222148   6.773   5.656   6.548
 7402TIP3    H122149   6.686   5.616   6.549
 7402TIP3    H222150   6.827   5.594   6.498
 7403TIP3   OH222151   6.265   1.583   4.851
 7403TIP3    H122152   6.306   1.534   4.922
 7403TIP3    H222153   6.250   1.518   4.783
 7404TIP3   OH222154   5.441   6.449   0.556
 7404TIP3    H122155   5.396   6.491   0.630
 7404TIP3    H222156   5.530   6.433   0.589
 7405TIP3   OH222157   5.324   0.577   5.063
 7405TIP3    H122158   5.327   0.670   5.042
 7405TIP3    H222159   5.344   0.534   4.979
 7406TIP3   OH222160   0.907   2.840   2.907
 7406TIP3    H122161   0.918   2.874   2.819
 7406TIP3    H222162   0.831   2.888   2.941
 7407TIP3   OH222163   7.924   3.890   6.426
 7407TIP3    H122164   7.869   3.968   6.416
 7407TIP3    H222165   7.996   3.904   6.364
 7408TIP3   OH222166   4.631   0.680   0.780
 7408TIP3    H122167   4.564   0.708   0.716
 7408TIP3    H222168   4.711   0.675   0.729
 7409TIP3   OH222169   5.296   5.118   1.329
 7409TIP3    H122170   5.376   5.169   1.319
 7409TIP3    H222171   5.323   5.028   1.313
 7410TIP3   OH222172   7.698   6.831   5.850
 7410TIP3    H122173   7.676   6.825   5.943
 7410TIP3    H222174   7.766   6.898   5.845
 7411TIP3   OH222175   0.090   3.364   0.311
 7411TIP3    H122176   0.138   3.356   0.229
 7411TIP3    H222177   0.123   3.446   0.350
 7412TIP3   OH222178   5.531   5.497   3.344
 7412TIP3    H122179   5.534   5.589   3.371
 7412TIP3    H222180   5.570   5.450   3.418
 7413TIP3   OH222181   4.070   6.900   6.352
 7413TIP3    H122182   4.051   6.933   6.440
 7413TIP3    H222183   4.057   6.805   6.359
 7414TIP3   OH222184   6.545   4.913   3.477
 7414TIP3    H122185   6.480   4.887   3.412
 7414TIP3    H222186   6.627   4.875   3.447
 7415TIP3   OH222187   0.488   6.234   0.994
 7415TIP3    H122188   0.539   6.175   1.049
 7415TIP3    H222189   0.437   6.176   0.937
 7416TIP3   OH222190   2.150   5.483   5.049
 7416TIP3    H122191   2.183   5.396   5.028
 7416TIP3    H222192   2.103   5.471   5.132
 7417TIP3   OH222193   4.406   3.873   2.000
 7417TIP3    H122194   4.456   3.887   1.920
 7417TIP3    H222195   4.439   3.939   2.061
 7418TIP3   OH222196   6.520   1.092   0.049
 7418TIP3    H122197   6.477   1.029  -0.009
 7418TIP3    H222198   6.474   1.083   0.132
 7419TIP3   OH222199   1.648   5.426   6.342
 7419TIP3    H122200   1.574   5.368   6.360
 7419TIP3    H222201   1.696   5.429   6.425
 7420TIP3   OH222202   0.775   1.753   4.984
 7420TIP3    H122203   0.695   1.736   4.934
 7420TIP3    H222204   0.769   1.694   5.059
 7421TIP3   OH222205   8.209   4.870   4.602
 7421TIP3    H122206   8.295   4.911   4.596
 7421TIP3    H222207   8.185   4.851   4.511
 7422TIP3   OH222208   6.192   2.483   2.927
 7422TIP3    H122209   6.186   2.526   3.012
 7422TIP3    H222210   6.240   2.545   2.872
 7423TIP3   OH222211   8.120   0.133   1.958
 7423TIP3    H122212   8.100   0.104   2.047
 7423TIP3    H222213   8.073   0.071   1.902
 7424TIP3   OH222214   5.540   2.257   5.990
 7424TIP3    H122215   5.445   2.249   5.979
 7424TIP3    H222216   5.551   2.283   6.081
 7425TIP3   OH222217   4.851   0.162   1.617
 7425TIP3    H122218   4.849   0.207   1.533
 7425TIP3    H222219   4.793   0.213   1.673
 7426TIP3   OH222220   6.267   6.785   6.039
 7426TIP3    H122221   6.287   6.692   6.029
 7426TIP3    H222222   6.224   6.810   5.957
 7427TIP3   OH222223   3.183   3.613   1.938
 7427TIP3    H122224   3.207   3.668   2.013
 7427TIP3    H222225   3.109   3.560   1.970
 7428TIP3   OH222226   7.952   6.167   3.761
 7428TIP3    H122227   7.930   6.104   3.830
 7428TIP3    H222228   8.032   6.210   3.793
 7429TIP3   OH222229   3.368   7.700   6.491
 7429TIP3    H122230   3.296   7.721   6.432
 7429TIP3    H222231   3.420   7.780   6.495
 7430TIP3   OH222232   8.261   4.185   3.344
 7430TIP3    H122233   8.182   4.132   3.348
 7430TIP3    H222234   8.290   4.192   3.435
 7431TIP3   OH222235   5.494   0.587   2.729
 7431TIP3    H122236   5.573   0.535   2.716
 7431TIP3    H222237   5.522   0.661   2.782
 7432TIP3   OH222238   7.734   0.436   2.761
 7432TIP3    H122239   7.689   0.453   2.844
 7432TIP3    H222240   7.715   0.513   2.708
 7433TIP3   OH222241   6.022   6.959   4.954
 7433TIP3    H122242   6.107   6.954   4.996
 7433TIP3    H222243   6.041   6.953   4.860
 7434TIP3   OH222244   0.080   6.746   1.624
 7434TIP3    H122245   0.117   6.754   1.712
 7434TIP3    H222246   0.148   6.779   1.566
 7435TIP3   OH222247   6.123   3.226   4.132
 7435TIP3    H122248   6.078   3.187   4.058
 7435TIP3    H222249   6.090   3.179   4.209
 7436TIP3   OH222250   6.986   1.767   3.418
 7436TIP3    H122251   6.958   1.679   3.392
 7436TIP3    H222252   7.081   1.762   3.421
 7437TIP3   OH222253   4.749   0.000   4.113
 7437TIP3    H122254   4.686   0.046   4.058
 7437TIP3    H222255   4.781   0.067   4.174
 7438TIP3   OH222256   4.704   6.760   3.843
 7438TIP3    H122257   4.712   6.781   3.937
 7438TIP3    H222258   4.792   6.775   3.808
 7439TIP3   OH222259   4.998   5.855   4.789
 7439TIP3    H122260   5.055   5.806   4.729
 7439TIP3    H222261   5.011   5.814   4.874
 7440TIP3   OH222262   7.423   3.954   4.364
 7440TIP3    H122263   7.465   3.873   4.393
 7440TIP3    H222264   7.495   4.009   4.333
 7441TIP3   OH222265   1.179   0.396   1.830
 7441TIP3    H122266   1.089   0.425   1.818
 7441TIP3    H222267   1.232   0.475   1.821
 7442TIP3   OH222268   6.504   1.077   3.073
 7442TIP3    H122269   6.449   1.065   3.150
 7442TIP3    H222270   6.573   1.136   3.103
 7443TIP3   OH222271   6.353   7.471   1.766
 7443TIP3    H122272   6.310   7.533   1.707
 7443TIP3    H222273   6.331   7.385   1.729
 7444TIP3   OH222274   2.990   2.477   6.313
 7444TIP3    H122275   3.002   2.397   6.365
 7444TIP3    H222276   2.903   2.509   6.340
 7445TIP3   OH222277   4.848   3.214   1.150
 7445TIP3    H122278   4.875   3.295   1.193
 7445TIP3    H222279   4.917   3.196   1.086
 7446TIP3   OH222280   8.202   7.266   6.181
 7446TIP3    H122281   8.222   7.346   6.133
 7446TIP3    H222282   8.287   7.233   6.210
 7447TIP3   OH222283   0.750   4.449   6.759
 7447TIP3    H122284   0.704   4.445   6.842
 7447TIP3    H222285   0.760   4.358   6.732
 7448TIP3   OH222286   5.051   7.134   1.608
 7448TIP3    H122287   5.134   7.087   1.616
 7448TIP3    H222288   5.040   7.149   1.514
 7449TIP3   OH222289   1.566   5.957   1.035
 7449TIP3    H122290   1.618   6.010   0.975
 7449TIP3    H222291   1.507   5.907   0.978
 7450TIP3   OH222292   8.211   7.817   6.051
 7450TIP3    H122293   8.246   7.900   6.017
 7450TIP3    H222294   8.289   7.767   6.075
 7451TIP3   OH222295   5.141   3.494   0.852
 7451TIP3    H122296   5.165   3.509   0.944
 7451TIP3    H222297   5.201   3.426   0.822
 7452TIP3   OH222298   1.513   3.995   1.995
 7452TIP3    H122299   1.588   3.975   1.939
 7452TIP3    H222300   1.544   4.067   2.051
 7453TIP3   OH222301   1.173   6.261   0.629
 7453TIP3    H122302   1.096   6.214   0.599
 7453TIP3    H222303   1.177   6.243   0.723
 7454TIP3   OH222304   4.688   2.849   2.128
 7454TIP3    H122305   4.643   2.931   2.108
 7454TIP3    H222306   4.695   2.848   2.224
 7455TIP3   OH222307   6.527   7.184   5.123
 7455TIP3    H122308   6.448   7.218   5.166
 7455TIP3    H222309   6.511   7.196   5.030
 7456TIP3   OH222310   7.493   7.584   5.902
 7456TIP3    H122311   7.408   7.579   5.858
 7456TIP3    H222312   7.549   7.629   5.838
 7457TIP3   OH222313   3.573   2.563   6.432
 7457TIP3    H122314   3.573   2.607   6.517
 7457TIP3    H222315   3.570   2.470   6.452
 7458TIP3   OH222316   4.344   3.477   6.453
 7458TIP3    H122317   4.273   3.511   6.398
 7458TIP3    H222318   4.371   3.551   6.507
 7459TIP3   OH222319   2.099   3.732   6.428
 7459TIP3    H122320   2.147   3.695   6.502
 7459TIP3    H222321   2.007   3.713   6.447
 7460TIP3   OH222322   3.850   0.434   4.147
 7460TIP3    H122323   3.836   0.422   4.241
 7460TIP3    H222324   3.942   0.459   4.140
 7461TIP3   OH222325   3.454   6.360   1.404
 7461TIP3    H122326   3.542   6.328   1.383
 7461TIP3    H222327   3.409   6.283   1.440
 7462TIP3   OH222328   2.146   4.401   4.866
 7462TIP3    H122329   2.063   4.405   4.912
 7462TIP3    H222330   2.183   4.489   4.874
 7463TIP3   OH222331   1.701   3.979   1.294
 7463TIP3    H122332   1.689   4.019   1.380
 7463TIP3    H222333   1.659   4.040   1.233
 7464TIP3   OH222334   5.117   7.789   1.097
 7464TIP3    H122335   5.184   7.721   1.094
 7464TIP3    H222336   5.166   7.870   1.109
 7465TIP3   OH222337   7.098   2.538   4.173
 7465TIP3    H122338   7.039   2.474   4.213
 7465TIP3    H222339   7.120   2.500   4.088
 7466TIP3   OH222340   5.205   1.116   1.017
 7466TIP3    H122341   5.277   1.108   0.955
 7466TIP3    H222342   5.192   1.211   1.027
 7467TIP3   OH222343   6.932   3.425   2.015
 7467TIP3    H122344   6.951   3.516   1.990
 7467TIP3    H222345   6.960   3.373   1.939
 7468TIP3   OH222346   7.036   2.057   2.343
 7468TIP3    H122347   6.969   2.116   2.378
 7468TIP3    H222348   7.005   1.969   2.365
 7469TIP3   OH222349   2.709   0.981   2.675
 7469TIP3    H122350   2.788   1.024   2.642
 7469TIP3    H222351   2.726   0.971   2.769
 7470TIP3   OH222352   3.871   5.994   5.942
 7470TIP3    H122353   3.858   6.007   5.849
 7470TIP3    H222354   3.875   5.898   5.953
 7471TIP3   OH222355   3.323   5.060   1.078
 7471TIP3    H122356   3.396   5.077   1.137
 7471TIP3    H222357   3.307   5.143   1.034
 7472TIP3   OH222358   3.891   4.892   0.607
 7472TIP3    H122359   3.866   4.925   0.694
 7472TIP3    H222360   3.986   4.903   0.604
 7473TIP3   OH222361   0.491   7.115   3.515
 7473TIP3    H122362   0.544   7.090   3.592
 7473TIP3    H222363   0.482   7.210   3.522
 7474TIP3   OH222364   3.017   0.335   0.290
 7474TIP3    H122365   3.076   0.357   0.218
 7474TIP3    H222366   2.944   0.289   0.248
 7475TIP3   OH222367   6.746   7.497   3.034
 7475TIP3    H122368   6.708   7.427   2.980
 7475TIP3    H222369   6.780   7.452   3.111
 7476TIP3   OH222370   2.781   3.584   1.020
 7476TIP3    H122371   2.845   3.654   1.005
 7476TIP3    H222372   2.697   3.622   0.993
 7477TIP3   OH222373   6.168   3.558   3.319
 7477TIP3    H122374   6.128   3.537   3.403
 7477TIP3    H222375   6.239   3.619   3.341
 7478TIP3   OH222376   6.265   6.739   6.364
 7478TIP3    H122377   6.289   6.768   6.276
 7478TIP3    H222378   6.190   6.794   6.388
 7479TIP3   OH222379   5.911   3.012   6.728
 7479TIP3    H122380   5.851   3.083   6.746
 7479TIP3    H222381   5.989   3.054   6.693
 7480TIP3   OH222382   5.227   2.869   5.847
 7480TIP3    H122383   5.214   2.842   5.938
 7480TIP3    H222384   5.237   2.787   5.799
 7481TIP3   OH222385   6.305   6.159   1.741
 7481TIP3    H122386   6.358   6.086   1.709
 7481TIP3    H222387   6.281   6.208   1.662
 7482TIP3   OH222388   5.460   5.200   5.060
 7482TIP3    H122389   5.425   5.122   5.103
 7482TIP3    H222390   5.548   5.175   5.033
 7483TIP3   OH222391   4.007   7.676   6.601
 7483TIP3    H122392   4.063   7.744   6.639
 7483TIP3    H222393   4.061   7.597   6.604
 7484TIP3   OH222394   4.550   4.943   0.380
 7484TIP3    H122395   4.523   5.034   0.374
 7484TIP3    H222396   4.637   4.941   0.341
 7485TIP3   OH222397  -0.043   3.301   2.435
 7485TIP3    H122398  -0.057   3.360   2.361
 7485TIP3    H222399   0.040   3.258   2.416
 7486TIP3   OH222400   7.280   1.289   1.056
 7486TIP3    H122401   7.324   1.261   0.976
 7486TIP3    H222402   7.215   1.353   1.027
 7487TIP3   OH222403   8.000   1.703   0.075
 7487TIP3    H122404   7.966   1.743   0.155
 7487TIP3    H222405   8.090   1.678   0.098
 7488TIP3   OH222406   6.199   4.907   5.796
 7488TIP3    H122407   6.232   4.991   5.764
 7488TIP3    H222408   6.107   4.923   5.816
 7489TIP3   OH222409   0.286   6.706   0.116
 7489TIP3    H122410   0.322   6.794   0.125
 7489TIP3    H222411   0.242   6.706   0.032
 7490TIP3   OH222412   0.097   5.174   2.700
 7490TIP3    H122413   0.079   5.178   2.606
 7490TIP3    H222414   0.076   5.084   2.725
 7491TIP3   OH222415   7.777   5.327   3.768
 7491TIP3    H122416   7.777   5.308   3.862
 7491TIP3    H222417   7.868   5.347   3.748
 7492TIP3   OH222418   0.258   7.039   1.090
 7492TIP3    H122419   0.337   7.092   1.098
 7492TIP3    H222420   0.193   7.084   1.144
 7493TIP3   OH222421   3.907   2.880   2.253
 7493TIP3    H122422   3.846   2.939   2.209
 7493TIP3    H222423   3.863   2.795   2.250
 7494TIP3   OH222424   7.614   4.830   0.939
 7494TIP3    H122425   7.688   4.774   0.912
 7494TIP3    H222426   7.623   4.837   1.034
 7495TIP3   OH222427   7.600   7.761   1.908
 7495TIP3    H122428   7.674   7.820   1.922
 7495TIP3    H222429   7.524   7.818   1.897
 7496TIP3   OH222430   0.887   5.893   4.520
 7496TIP3    H122431   0.871   5.827   4.453
 7496TIP3    H222432   0.948   5.852   4.581
 7497TIP3   OH222433   6.199   6.072   2.619
 7497TIP3    H122434   6.197   6.019   2.699
 7497TIP3    H222435   6.120   6.047   2.572
 7498TIP3   OH222436   1.525   6.799   4.384
 7498TIP3    H122437   1.522   6.863   4.313
 7498TIP3    H222438   1.600   6.827   4.438
 7499TIP3   OH222439   5.864   0.712   2.098
 7499TIP3    H122440   5.933   0.692   2.161
 7499TIP3    H222441   5.845   0.805   2.112
 7500TIP3   OH222442   8.234   7.374   0.133
 7500TIP3    H122443   8.297   7.445   0.133
 7500TIP3    H222444   8.288   7.294   0.139
 7501TIP3   OH222445   7.669   7.761   5.766
 7501TIP3    H122446   7.710   7.782   5.850
 7501TIP3    H222447   7.736   7.782   5.701
 7502TIP3   OH222448   0.676   1.007   5.536
 7502TIP3    H122449   0.655   1.068   5.465
 7502TIP3    H222450   0.770   1.020   5.552
 7503TIP3   OH222451   0.990   0.489   5.624
 7503TIP3    H122452   1.062   0.539   5.664
 7503TIP3    H222453   0.960   0.544   5.552
 7504TIP3   OH222454   7.331   1.441   2.266
 7504TIP3    H122455   7.421   1.411   2.277
 7504TIP3    H222456   7.306   1.412   2.179
 7505TIP3   OH222457   7.573   3.842   3.158
 7505TIP3    H122458   7.526   3.854   3.240
 7505TIP3    H222459   7.510   3.801   3.099
 7506TIP3   OH222460   3.429   6.382   3.223
 7506TIP3    H122461   3.398   6.294   3.245
 7506TIP3    H222462   3.379   6.407   3.146
 7507TIP3   OH222463   7.672   1.254   3.722
 7507TIP3    H122464   7.716   1.297   3.648
 7507TIP3    H222465   7.588   1.298   3.729
 7508TIP3   OH222466   4.586   2.633   6.121
 7508TIP3    H122467   4.535   2.563   6.163
 7508TIP3    H222468   4.654   2.655   6.185
 7509TIP3   OH222469   2.735   7.022   5.296
 7509TIP3    H122470   2.727   7.110   5.332
 7509TIP3    H222471   2.674   6.969   5.348
 7510TIP3   OH222472   6.992   5.477   6.466
 7510TIP3    H122473   7.029   5.414   6.405
 7510TIP3    H222474   7.039   5.559   6.448
 7511TIP3   OH222475   3.586   7.752   4.014
 7511TIP3    H122476   3.509   7.719   4.062
 7511TIP3    H222477   3.616   7.678   3.963
 7512TIP3   OH222478   1.132   5.717   4.297
 7512TIP3    H122479   1.040   5.735   4.316
 7512TIP3    H222480   1.151   5.638   4.347
 7513TIP3   OH222481   1.728   1.143   0.949
 7513TIP3    H122482   1.747   1.225   0.995
 7513TIP3    H222483   1.810   1.120   0.907
 7514TIP3   OH222484   2.450   3.895   1.449
 7514TIP3    H122485   2.537   3.892   1.409
 7514TIP3    H222486   2.467   3.892   1.544
 7515TIP3   OH222487   5.256   1.448   4.519
 7515TIP3    H122488   5.208   1.368   4.539
 7515TIP3    H222489   5.264   1.449   4.424
 7516TIP3   OH222490   7.546   2.072   4.527
 7516TIP3    H122491   7.477   2.049   4.465
 7516TIP3    H222492   7.628   2.048   4.482
 7517TIP3   OH222493   3.345   5.091   3.499
 7517TIP3    H122494   3.429   5.046   3.496
 7517TIP3    H222495   3.368   5.183   3.513
 7518TIP3   OH222496   6.586   6.043   1.313
 7518TIP3    H122497   6.650   6.009   1.250
 7518TIP3    H222498   6.503   6.005   1.285
 7519TIP3   OH222499   1.813   5.705   3.948
 7519TIP3    H122500   1.849   5.687   3.861
 7519TIP3    H222501   1.890   5.726   4.002
 7520TIP3   OH222502   6.638   2.263   4.886
 7520TIP3    H122503   6.579   2.198   4.922
 7520TIP3    H222504   6.594   2.296   4.808
 7521TIP3   OH222505   6.135   5.530   5.979
 7521TIP3    H122506   6.195   5.481   5.922
 7521TIP3    H222507   6.096   5.463   6.035
 7522TIP3   OH222508   1.537   2.405   1.704
 7522TIP3    H122509   1.458   2.414   1.757
 7522TIP3    H222510   1.578   2.492   1.708
 7523TIP3   OH222511   8.084   4.401   1.751
 7523TIP3    H122512   8.010   4.439   1.799
 7523TIP3    H222513   8.142   4.475   1.734
 7524TIP3   OH222514   3.677   1.813   3.506
 7524TIP3    H122515   3.625   1.862   3.443
 7524TIP3    H222516   3.628   1.731   3.518
 7525TIP3   OH222517   8.073   1.845   0.611
 7525TIP3    H122518   8.140   1.846   0.543
 7525TIP3    H222519   8.111   1.792   0.682
 7526TIP3   OH222520   2.624   1.931   2.036
 7526TIP3    H122521   2.718   1.916   2.033
 7526TIP3    H222522   2.591   1.896   1.953
 7527TIP3   OH222523   0.583   7.239   2.097
 7527TIP3    H122524   0.534   7.162   2.071
 7527TIP3    H222525   0.600   7.226   2.191
 7528TIP3   OH222526   0.017   4.867   4.892
 7528TIP3    H122527   0.072   4.833   4.963
 7528TIP3    H222528  -0.021   4.789   4.852
 7529TIP3   OH222529   3.416   7.663   4.938
 7529TIP3    H122530   3.408   7.651   4.843
 7529TIP3    H222531   3.491   7.609   4.962
 7530TIP3   OH222532   1.487   0.461   4.328
 7530TIP3    H122533   1.438   0.543   4.322
 7530TIP3    H222534   1.448   0.405   4.260
 7531TIP3   OH222535   0.338   0.447   6.322
 7531TIP3    H122536   0.246   0.468   6.337
 7531TIP3    H222537   0.383   0.478   6.400
 7532TIP3   OH222538   6.073   3.984   6.215
 7532TIP3    H122539   6.139   3.962   6.149
 7532TIP3    H222540   6.020   3.905   6.224
 7533TIP3   OH222541   6.160   7.598   4.268
 7533TIP3    H122542   6.167   7.693   4.262
 7533TIP3    H222543   6.097   7.583   4.339
 7534TIP3   OH222544   7.919   3.608   3.308
 7534TIP3    H122545   7.880   3.599   3.221
 7534TIP3    H222546   7.844   3.622   3.366
 7535TIP3   OH222547   0.276   5.125   0.338
 7535TIP3    H122548   0.213   5.191   0.366
 7535TIP3    H222549   0.314   5.161   0.258
 7536TIP3   OH222550   5.124   3.349   4.398
 7536TIP3    H122551   5.073   3.274   4.429
 7536TIP3    H222552   5.086   3.369   4.312
 7537TIP3   OH222553   6.448   1.951   1.104
 7537TIP3    H122554   6.462   1.889   1.032
 7537TIP3    H222555   6.491   2.031   1.076
 7538TIP3   OH222556   7.496   4.199   6.406
 7538TIP3    H122557   7.523   4.118   6.449
 7538TIP3    H222558   7.500   4.266   6.475
 7539TIP3   OH222559   7.236   0.824   0.346
 7539TIP3    H122560   7.142   0.806   0.349
 7539TIP3    H222561   7.277   0.738   0.345
 7540TIP3   OH222562   5.010   4.247   4.406
 7540TIP3    H122563   4.945   4.255   4.475
 7540TIP3    H222564   4.966   4.277   4.327
 7541TIP3   OH222565   6.291   5.170   5.654
 7541TIP3    H122566   6.292   5.138   5.564
 7541TIP3    H222567   6.366   5.230   5.659
 7542TIP3   OH222568   1.048   5.505   3.094
 7542TIP3    H122569   1.133   5.498   3.050
 7542TIP3    H222570   1.067   5.551   3.175
 7543TIP3   OH222571   3.116   7.577   0.632
 7543TIP3    H122572   3.130   7.482   0.632
 7543TIP3    H222573   3.129   7.603   0.723
 7544TIP3   OH222574   7.490   6.607   5.854
 7544TIP3    H122575   7.579   6.621   5.821
 7544TIP3    H222576   7.491   6.647   5.941
 7545TIP3   OH222577   3.789   7.627   5.184
 7545TIP3    H122578   3.745   7.586   5.258
 7545TIP3    H222579   3.797   7.719   5.209
 7546TIP3   OH222580   7.216   6.989   1.677
 7546TIP3    H122581   7.211   6.988   1.772
 7546TIP3    H222582   7.208   7.082   1.653
 7547TIP3   OH222583   0.712   5.130   6.585
 7547TIP3    H122584   0.785   5.070   6.588
 7547TIP3    H222585   0.643   5.088   6.637
 7548TIP3   OH222586   1.701   7.440   3.643
 7548TIP3    H122587   1.636   7.439   3.713
 7548TIP3    H222588   1.784   7.454   3.688
 7549TIP3   OH222589   2.949   4.778   4.783
 7549TIP3    H122590   2.979   4.823   4.863
 7549TIP3    H222591   3.029   4.767   4.731
 7550TIP3   OH222592   6.961   7.586   4.683
 7550TIP3    H122593   6.977   7.492   4.692
 7550TIP3    H222594   7.028   7.617   4.622
 7551TIP3   OH222595   6.663   1.208   5.633
 7551TIP3    H122596   6.620   1.252   5.706
 7551TIP3    H222597   6.676   1.277   5.567
 7552TIP3   OH222598   1.422   6.642   0.205
 7552TIP3    H122599   1.366   6.707   0.248
 7552TIP3    H222600   1.510   6.662   0.237
 7553TIP3   OH222601   4.046   6.572   5.036
 7553TIP3    H122602   4.079   6.550   4.949
 7553TIP3    H222603   4.111   6.535   5.096
 7554TIP3   OH222604   3.833   1.181   4.205
 7554TIP3    H122605   3.895   1.111   4.187
 7554TIP3    H222606   3.847   1.244   4.135
 7555TIP3   OH222607   4.521   5.953   6.349
 7555TIP3    H122608   4.519   5.955   6.444
 7555TIP3    H222609   4.609   5.922   6.327
 7556TIP3   OH222610   0.296   0.218   5.639
 7556TIP3    H122611   0.227   0.153   5.626
 7556TIP3    H222612   0.253   0.302   5.619
 7557TIP3   OH222613   7.857   5.898   0.945
 7557TIP3    H122614   7.891   5.887   0.856
 7557TIP3    H222615   7.900   5.829   0.995
 7558TIP3   OH222616   2.388   0.749   6.029
 7558TIP3    H122617   2.294   0.760   6.016
 7558TIP3    H222618   2.397   0.720   6.120
 7559TIP3   OH222619   4.351   6.137   3.503
 7559TIP3    H122620   4.402   6.096   3.573
 7559TIP3    H222621   4.283   6.186   3.549
 7560TIP3   OH222622   0.196   0.814   0.799
 7560TIP3    H122623   0.274   0.765   0.773
 7560TIP3    H222624   0.216   0.846   0.887
 7561TIP3   OH222625   3.485   4.706   1.763
 7561TIP3    H122626   3.503   4.786   1.811
 7561TIP3    H222627   3.516   4.724   1.674
 7562TIP3   OH222628   7.070   5.501   4.016
 7562TIP3    H122629   6.980   5.502   3.982
 7562TIP3    H222630   7.124   5.492   3.937
 7563TIP3   OH222631   3.227   7.417   4.240
 7563TIP3    H122632   3.136   7.412   4.268
 7563TIP3    H222633   3.276   7.381   4.314
 7564TIP3   OH222634   2.466   6.110   4.867
 7564TIP3    H122635   2.463   6.194   4.912
 7564TIP3    H222636   2.376   6.095   4.839
 7565TIP3   OH222637   6.312   2.817   3.845
 7565TIP3    H122638   6.342   2.908   3.838
 7565TIP3    H222639   6.242   2.820   3.910
 7566TIP3   OH222640   7.435   5.960   6.732
 7566TIP3    H122641   7.420   6.004   6.815
 7566TIP3    H222642   7.486   5.883   6.755
 7567TIP3   OH222643   7.656   7.761   6.749
 7567TIP3    H122644   7.653   7.666   6.738
 7567TIP3    H222645   7.731   7.776   6.806
 7568TIP3   OH222646   1.275   6.087   6.171
 7568TIP3    H122647   1.193   6.047   6.143
 7568TIP3    H222648   1.300   6.037   6.249
 7569TIP3   OH222649   0.981   7.651   6.021
 7569TIP3    H122650   1.022   7.719   6.075
 7569TIP3    H222651   1.033   7.573   6.037
 7570TIP3   OH222652   4.510   6.389   5.154
 7570TIP3    H122653   4.552   6.340   5.083
 7570TIP3    H222654   4.579   6.397   5.221
 7571TIP3   OH222655   3.833   0.205   3.959
 7571TIP3    H122656   3.807   0.297   3.967
 7571TIP3    H222657   3.866   0.182   4.046
 7572TIP3   OH222658   4.073   2.265   4.692
 7572TIP3    H122659   4.043   2.349   4.725
 7572TIP3    H222660   4.143   2.286   4.631
 7573TIP3   OH222661   7.634   2.574   5.973
 7573TIP3    H122662   7.695   2.513   5.930
 7573TIP3    H222663   7.671   2.586   6.061
 7574TIP3   OH222664   5.300   6.874   5.864
 7574TIP3    H122665   5.328   6.883   5.956
 7574TIP3    H222666   5.206   6.887   5.867
 7575TIP3   OH222667   5.822   1.616   0.880
 7575TIP3    H122668   5.744   1.672   0.873
 7575TIP3    H222669   5.896   1.676   0.873
 7576TIP3   OH222670   0.331   5.893   0.168
 7576TIP3    H122671   0.345   5.968   0.111
 7576TIP3    H222672   0.236   5.883   0.172
 7577TIP3   OH222673   5.306   0.672   3.063
 7577TIP3    H122674   5.247   0.747   3.066
 7577TIP3    H222675   5.340   0.672   2.973
 7578TIP3   OH222676   3.924   3.719   2.282
 7578TIP3    H122677   3.976   3.784   2.234
 7578TIP3    H222678   3.865   3.683   2.216
 7579TIP3   OH222679   6.207   1.546   6.244
 7579TIP3    H122680   6.189   1.488   6.318
 7579TIP3    H222681   6.131   1.537   6.187
 7580TIP3   OH222682   6.452   5.928   6.474
 7580TIP3    H122683   6.465   5.986   6.398
 7580TIP3    H222684   6.376   5.965   6.518
 7581TIP3   OH222685   1.722   2.686   1.275
 7581TIP3    H122686   1.727   2.614   1.337
 7581TIP3    H222687   1.643   2.669   1.224
 7582TIP3   OH222688   1.085   5.736   6.381
 7582TIP3    H122689   1.125   5.672   6.440
 7582TIP3    H222690   1.133   5.817   6.397
 7583TIP3   OH222691   1.184   1.367   2.921
 7583TIP3    H122692   1.254   1.397   2.979
 7583TIP3    H222693   1.177   1.436   2.855
 7584TIP3   OH222694   6.708   5.832   1.510
 7584TIP3    H122695   6.689   5.887   1.434
 7584TIP3    H222696   6.674   5.882   1.584
 7585TIP3   OH222697   0.002   4.086   1.135
 7585TIP3    H122698  -0.053   4.014   1.164
 7585TIP3    H222699   0.069   4.095   1.203
 7586TIP3   OH222700   3.950   7.349   0.538
 7586TIP3    H122701   3.980   7.433   0.502
 7586TIP3    H222702   4.018   7.323   0.599
 7587TIP3   OH222703   1.906   4.945   4.861
 7587TIP3    H122704   1.892   4.918   4.952
 7587TIP3    H222705   1.899   4.864   4.810
 7588TIP3   OH222706   3.475   0.754   1.606
 7588TIP3    H122707   3.531   0.832   1.605
 7588TIP3    H222708   3.504   0.703   1.530
 7589TIP3   OH222709   5.324   0.850   1.295
 7589TIP3    H122710   5.261   0.778   1.309
 7589TIP3    H222711   5.354   0.838   1.205
 7590TIP3   OH222712   6.728   1.150   2.304
 7590TIP3    H122713   6.703   1.078   2.246
 7590TIP3    H222714   6.661   1.217   2.288
 7591TIP3   OH222715   1.130   1.375   6.486
 7591TIP3    H122716   1.091   1.332   6.410
 7591TIP3    H222717   1.094   1.327   6.561
 7592TIP3   OH222718   4.670   3.566   0.745
 7592TIP3    H122719   4.655   3.530   0.833
 7592TIP3    H222720   4.714   3.650   0.760
 7593TIP3   OH222721   3.209   6.264   5.385
 7593TIP3    H122722   3.186   6.331   5.450
 7593TIP3    H222723   3.301   6.246   5.401
 7594TIP3   OH222724   1.614   0.178   5.370
 7594TIP3    H122725   1.550   0.159   5.439
 7594TIP3    H222726   1.574   0.247   5.318
 7595TIP3   OH222727   5.105   7.300   3.043
 7595TIP3    H122728   5.155   7.244   2.985
 7595TIP3    H222729   5.122   7.389   3.012
 7596TIP3   OH222730   0.376   0.946   6.081
 7596TIP3    H122731   0.338   0.982   6.160
 7596TIP3    H222732   0.340   0.857   6.076
 7597TIP3   OH222733   0.721   3.490   2.650
 7597TIP3    H122734   0.715   3.576   2.608
 7597TIP3    H222735   0.670   3.498   2.730
 7598TIP3   OH222736   2.752   7.645   0.780
 7598TIP3    H122737   2.816   7.696   0.829
 7598TIP3    H222738   2.668   7.666   0.821
 7599TIP3   OH222739   1.465   0.795   6.549
 7599TIP3    H122740   1.402   0.748   6.605
 7599TIP3    H222741   1.550   0.774   6.586
 7600TIP3   OH222742   5.042   7.537   0.571
 7600TIP3    H122743   5.061   7.481   0.646
 7600TIP3    H222744   5.024   7.623   0.609
 7601TIP3   OH222745   2.313   1.174   1.410
 7601TIP3    H122746   2.359   1.091   1.414
 7601TIP3    H222747   2.301   1.200   1.502
 7602TIP3   OH222748   5.938   3.274   1.743
 7602TIP3    H122749   5.944   3.211   1.672
 7602TIP3    H222750   5.859   3.324   1.724
 7603TIP3   OH222751   3.332   3.700   1.510
 7603TIP3    H122752   3.352   3.768   1.446
 7603TIP3    H222753   3.360   3.619   1.467
 7604TIP3   OH222754   6.025   0.967   0.683
 7604TIP3    H122755   5.967   1.041   0.701
 7604TIP3    H222756   6.086   0.966   0.757
 7605TIP3   OH222757   7.946   1.774   2.757
 7605TIP3    H122758   8.034   1.764   2.794
 7605TIP3    H222759   7.960   1.790   2.664
 7606TIP3   OH222760   0.474   0.931   3.036
 7606TIP3    H122761   0.429   0.865   2.983
 7606TIP3    H222762   0.446   1.015   2.999
 7607TIP3   OH222763   2.852   2.340   4.793
 7607TIP3    H122764   2.948   2.345   4.794
 7607TIP3    H222765   2.826   2.365   4.881
 7608TIP3   OH222766   3.143   3.553   2.878
 7608TIP3    H122767   3.164   3.538   2.786
 7608TIP3    H222768   3.217   3.515   2.926
 7609TIP3   OH222769   6.395   1.221   0.982
 7609TIP3    H122770   6.428   1.157   1.045
 7609TIP3    H222771   6.391   1.303   1.031
 7610TIP3   OH222772   2.770   7.677   6.613
 7610TIP3    H122773   2.702   7.683   6.680
 7610TIP3    H222774   2.723   7.647   6.535
 7611TIP3   OH222775   4.899   3.740   0.799
 7611TIP3    H122776   4.931   3.704   0.716
 7611TIP3    H222777   4.974   3.790   0.833
 7612TIP3   OH222778   6.949   6.896   2.488
 7612TIP3    H122779   6.900   6.979   2.492
 7612TIP3    H222780   6.989   6.897   2.401
 7613TIP3   OH222781   4.736  -0.009   4.957
 7613TIP3    H122782   4.703  -0.097   4.978
 7613TIP3    H222783   4.668   0.028   4.900
 7614TIP3   OH222784   5.393   5.929   3.764
 7614TIP3    H122785   5.427   6.004   3.716
 7614TIP3    H222786   5.306   5.913   3.727
 7615TIP3   OH222787   7.569   5.340   5.894
 7615TIP3    H122788   7.662   5.319   5.884
 7615TIP3    H222789   7.569   5.429   5.929
 7616TIP3   OH222790   6.165   0.514   0.218
 7616TIP3    H122791   6.190   0.503   0.310
 7616TIP3    H222792   6.132   0.603   0.213
 7617TIP3   OH222793   4.578   4.007   5.023
 7617TIP3    H122794   4.614   3.955   4.951
 7617TIP3    H222795   4.650   4.064   5.050
 7618TIP3   OH222796   6.411   4.534   4.796
 7618TIP3    H122797   6.372   4.448   4.782
 7618TIP3    H222798   6.338   4.587   4.830
 7619TIP3   OH222799   7.316   1.547   6.147
 7619TIP3    H122800   7.323   1.581   6.237
 7619TIP3    H222801   7.405   1.552   6.113
 7620TIP3   OH222802   1.836   0.380   6.616
 7620TIP3    H122803   1.811   0.300   6.664
 7620TIP3    H222804   1.757   0.434   6.618
 7621TIP3   OH222805   5.893   6.251   3.566
 7621TIP3    H122806   5.922   6.183   3.504
 7621TIP3    H222807   5.899   6.209   3.652
 7622TIP3   OH222808   6.998   5.351   5.290
 7622TIP3    H122809   6.938   5.294   5.241
 7622TIP3    H222810   7.078   5.299   5.299
 7623TIP3   OH222811   2.947   1.187   4.395
 7623TIP3    H122812   2.894   1.250   4.444
 7623TIP3    H222813   2.921   1.199   4.304
 7624TIP3   OH222814   0.316   1.990   0.834
 7624TIP3    H122815   0.371   1.918   0.866
 7624TIP3    H222816   0.231   1.975   0.875
 7625TIP3   OH222817   0.887   4.863   2.770
 7625TIP3    H122818   0.814   4.924   2.758
 7625TIP3    H222819   0.947   4.884   2.698
 7626TIP3   OH222820   5.012   4.012   4.605
 7626TIP3    H122821   5.026   3.918   4.592
 7626TIP3    H222822   5.026   4.050   4.518
 7627TIP3   OH222823   0.096   1.564   2.004
 7627TIP3    H122824   0.166   1.620   1.970
 7627TIP3    H222825   0.029   1.566   1.936
 7628TIP3   OH222826   6.712   7.318   4.178
 7628TIP3    H122827   6.779   7.296   4.114
 7628TIP3    H222828   6.629   7.305   4.131
 7629TIP3   OH222829   2.783   2.013   6.100
 7629TIP3    H122830   2.784   2.106   6.074
 7629TIP3    H222831   2.775   1.965   6.018
 7630TIP3   OH222832   1.408   0.622   5.186
 7630TIP3    H122833   1.376   0.654   5.102
 7630TIP3    H222834   1.488   0.672   5.202
 7631TIP3   OH222835   1.217   7.084   6.513
 7631TIP3    H122836   1.304   7.050   6.489
 7631TIP3    H222837   1.194   7.143   6.442
 7632TIP3   OH222838   3.404   6.095   1.478
 7632TIP3    H122839   3.451   6.067   1.400
 7632TIP3    H222840   3.349   6.020   1.501
 7633TIP3   OH222841   2.972   3.253   3.087
 7633TIP3    H122842   2.955   3.279   2.996
 7633TIP3    H222843   3.056   3.208   3.083
 7634TIP3   OH222844   1.833   6.598   0.817
 7634TIP3    H122845   1.798   6.517   0.854
 7634TIP3    H222846   1.763   6.662   0.828
 7635TIP3   OH222847   0.459   2.408   5.862
 7635TIP3    H122848   0.550   2.394   5.837
 7635TIP3    H222849   0.447   2.355   5.941
 7636TIP3   OH222850   7.592   4.130   3.625
 7636TIP3    H122851   7.528   4.124   3.554
 7636TIP3    H222852   7.656   4.062   3.605
 7637TIP3   OH222853   2.702   6.677   4.169
 7637TIP3    H122854   2.667   6.607   4.114
 7637TIP3    H222855   2.777   6.638   4.212
 7638TIP3   OH222856   0.960   1.665   0.198
 7638TIP3    H122857   1.014   1.714   0.261
 7638TIP3    H222858   1.010   1.669   0.116
 7639TIP3   OH222859   5.667   2.703   4.909
 7639TIP3    H122860   5.727   2.629   4.913
 7639TIP3    H222861   5.674   2.744   4.995
 7640TIP3   OH222862   5.096   2.556   4.427
 7640TIP3    H122863   5.133   2.598   4.349
 7640TIP3    H222864   5.099   2.463   4.406
 7641TIP3   OH222865   7.582   7.014   5.465
 7641TIP3    H122866   7.565   7.004   5.372
 7641TIP3    H222867   7.594   7.108   5.478
 7642TIP3   OH222868   7.854   7.087   1.699
 7642TIP3    H122869   7.828   7.177   1.680
 7642TIP3    H222870   7.928   7.096   1.759
 7643TIP3   OH222871   0.599   6.455   0.830
 7643TIP3    H122872   0.573   6.375   0.875
 7643TIP3    H222873   0.690   6.468   0.854
 7644TIP3   OH222874   0.320   2.193   6.288
 7644TIP3    H122875   0.377   2.237   6.224
 7644TIP3    H222876   0.288   2.116   6.242
 7645TIP3   OH222877   0.477   3.383   1.321
 7645TIP3    H122878   0.423   3.362   1.397
 7645TIP3    H222879   0.565   3.397   1.357
 7646TIP3   OH222880   2.443   5.643   2.987
 7646TIP3    H122881   2.356   5.663   2.950
 7646TIP3    H222882   2.461   5.554   2.958
 7647TIP3   OH222883   5.488   1.549   1.105
 7647TIP3    H122884   5.444   1.610   1.047
 7647TIP3    H222885   5.530   1.604   1.171
 7648TIP3   OH222886   7.891   6.042   1.823
 7648TIP3    H122887   7.934   5.957   1.828
 7648TIP3    H222888   7.799   6.021   1.805
 7649TIP3   OH222889   5.511   0.205   4.481
 7649TIP3    H122890   5.421   0.229   4.460
 7649TIP3    H222891   5.502   0.138   4.550
 7650TIP3   OH222892   5.258   0.848   3.730
 7650TIP3    H122893   5.223   0.905   3.662
 7650TIP3    H222894   5.298   0.775   3.682
 7651TIP3   OH222895   0.366   7.090   6.313
 7651TIP3    H122896   0.406   7.143   6.382
 7651TIP3    H222897   0.412   7.006   6.318
 7652TIP3   OH222898   3.458   5.317   2.625
 7652TIP3    H122899   3.535   5.356   2.584
 7652TIP3    H222900   3.435   5.378   2.696
 7653TIP3   OH222901   8.081   4.815   3.156
 7653TIP3    H122902   8.054   4.749   3.092
 7653TIP3    H222903   8.174   4.798   3.171
 7654TIP3   OH222904   7.438   2.121   0.594
 7654TIP3    H122905   7.524   2.156   0.617
 7654TIP3    H222906   7.435   2.035   0.637
 7655TIP3   OH222907   1.949   0.640   1.719
 7655TIP3    H122908   1.980   0.670   1.805
 7655TIP3    H222909   1.882   0.703   1.694
 7656TIP3   OH222910   6.904   2.939   6.070
 7656TIP3    H122911   6.992   2.922   6.105
 7656TIP3    H222912   6.919   2.966   5.979
 7657TIP3   OH222913   1.131   1.709   5.422
 7657TIP3    H122914   1.119   1.712   5.517
 7657TIP3    H222915   1.161   1.619   5.405
 7658TIP3   OH222916   7.465   1.989   4.159
 7658TIP3    H122917   7.518   2.068   4.155
 7658TIP3    H222918   7.468   1.952   4.071
 7659TIP3   OH222919   5.152   6.077   0.276
 7659TIP3    H122920   5.243   6.106   0.275
 7659TIP3    H222921   5.133   6.060   0.368
 7660TIP3   OH222922   4.851   4.899   6.263
 7660TIP3    H122923   4.885   4.985   6.286
 7660TIP3    H222924   4.900   4.839   6.321
 7661TIP3   OH222925   1.859   4.009   0.876
 7661TIP3    H122926   1.897   3.927   0.844
 7661TIP3    H222927   1.771   3.984   0.906
 7662TIP3   OH222928   1.706   5.277   4.071
 7662TIP3    H122929   1.784   5.241   4.112
 7662TIP3    H222930   1.637   5.267   4.137
 7663TIP3   OH222931   2.521   5.797   0.685
 7663TIP3    H122932   2.603   5.769   0.644
 7663TIP3    H222933   2.549   5.851   0.759
 7664TIP3   OH222934   4.071   1.524   5.022
 7664TIP3    H122935   4.062   1.613   5.055
 7664TIP3    H222936   4.091   1.536   4.929
 7665TIP3   OH222937   8.127   1.830   5.984
 7665TIP3    H122938   8.214   1.866   5.968
 7665TIP3    H222939   8.133   1.787   6.069
 7666TIP3   OH222940   6.633   4.304   5.730
 7666TIP3    H122941   6.639   4.250   5.809
 7666TIP3    H222942   6.591   4.385   5.760
 7667TIP3   OH222943   5.058   0.489   0.719
 7667TIP3    H122944   5.048   0.396   0.737
 7667TIP3    H222945   5.136   0.495   0.665
 7668TIP3   OH222946   1.729   1.380   1.893
 7668TIP3    H122947   1.768   1.370   1.980
 7668TIP3    H222948   1.737   1.473   1.874
 7669TIP3   OH222949   5.854   0.599   1.030
 7669TIP3    H122950   5.881   0.664   1.094
 7669TIP3    H222951   5.759   0.598   1.034
 7670TIP3   OH222952   5.621   6.841   4.381
 7670TIP3    H122953   5.527   6.825   4.375
 7670TIP3    H222954   5.628   6.930   4.415
 7671TIP3   OH222955   0.846   7.826   2.945
 7671TIP3    H122956   0.886   7.913   2.955
 7671TIP3    H222957   0.918   7.765   2.953
 7672TIP3   OH222958   2.946   6.334   2.656
 7672TIP3    H122959   2.981   6.359   2.742
 7672TIP3    H222960   2.953   6.239   2.654
 7673TIP3   OH222961   4.489   1.247   6.178
 7673TIP3    H122962   4.469   1.271   6.088
 7673TIP3    H222963   4.584   1.256   6.185
 7674TIP3   OH222964   7.959   4.289   0.700
 7674TIP3    H122965   7.931   4.350   0.768
 7674TIP3    H222966   8.021   4.231   0.745
 7675TIP3   OH222967   6.650   3.336   6.425
 7675TIP3    H122968   6.640   3.293   6.341
 7675TIP3    H222969   6.737   3.309   6.456
 7676TIP3   OH222970   1.661   0.179   1.692
 7676TIP3    H122971   1.604   0.255   1.706
 7676TIP3    H222972   1.725   0.183   1.762
 7677TIP3   OH222973   3.666   5.389   1.582
 7677TIP3    H122974   3.694   5.422   1.496
 7677TIP3    H222975   3.595   5.448   1.608
 7678TIP3   OH222976   0.869   5.094   3.909
 7678TIP3    H122977   0.813   5.171   3.920
 7678TIP3    H222978   0.843   5.058   3.824
 7679TIP3   OH222979   2.156   2.157   6.634
 7679TIP3    H122980   2.228   2.186   6.691
 7679TIP3    H222981   2.167   2.207   6.554
 7680TIP3   OH222982   1.200   6.230   3.108
 7680TIP3    H122983   1.161   6.242   3.021
 7680TIP3    H222984   1.267   6.163   3.095
 7681TIP3   OH222985   7.805   4.165   5.381
 7681TIP3    H122986   7.817   4.117   5.299
 7681TIP3    H222987   7.862   4.242   5.373
 7682TIP3   OH222988   8.081   5.740   3.922
 7682TIP3    H122989   8.167   5.783   3.915
 7682TIP3    H222990   8.032   5.774   3.847
 7683TIP3   OH222991   2.951   2.559   3.743
 7683TIP3    H122992   2.960   2.470   3.708
 7683TIP3    H222993   2.949   2.615   3.665
 7684TIP3   OH222994   3.506   6.114   5.920
 7684TIP3    H122995   3.511   6.044   5.855
 7684TIP3    H222996   3.456   6.184   5.877
 7685TIP3   OH222997   4.700   3.674   2.710
 7685TIP3    H122998   4.769   3.615   2.679
 7685TIP3    H222999   4.626   3.656   2.652
 7686TIP3   OH223000   4.653   3.409   1.976
 7686TIP3    H123001   4.611   3.447   2.052
 7686TIP3    H223002   4.739   3.451   1.973
 7687TIP3   OH223003   4.372   6.643   5.865
 7687TIP3    H123004   4.403   6.728   5.896
 7687TIP3    H223005   4.360   6.591   5.945
 7688TIP3   OH223006   3.284   6.130   2.945
 7688TIP3    H123007   3.309   6.145   3.036
 7688TIP3    H223008   3.281   6.035   2.936
 7689TIP3   OH223009   0.009   2.771   1.244
 7689TIP3    H123010   0.025   2.803   1.155
 7689TIP3    H223011   0.003   2.850   1.297
 7690TIP3   OH223012   4.945   6.016   3.213
 7690TIP3    H123013   4.875   5.974   3.264
 7690TIP3    H223014   4.940   5.974   3.127
 7691TIP3   OH223015   6.509   4.108   3.240
 7691TIP3    H123016   6.459   4.186   3.216
 7691TIP3    H223017   6.483   4.089   3.330
 7692TIP3   OH223018   2.362   7.249   6.136
 7692TIP3    H123019   2.292   7.281   6.193
 7692TIP3    H223020   2.443   7.270   6.182
 7693TIP3   OH223021   4.854   2.824   2.347
 7693TIP3    H123022   4.937   2.873   2.345
 7693TIP3    H223023   4.789   2.888   2.376
 7694TIP3   OH223024   3.462   3.928   1.395
 7694TIP3    H123025   3.428   4.009   1.433
 7694TIP3    H223026   3.535   3.957   1.341
 7695TIP3   OH223027   5.306   7.080   4.955
 7695TIP3    H123028   5.341   6.991   4.954
 7695TIP3    H223029   5.337   7.117   5.038
 7696TIP3   OH223030   7.349   6.278   2.199
 7696TIP3    H123031   7.383   6.233   2.122
 7696TIP3    H223032   7.278   6.332   2.166
 7697TIP3   OH223033   4.110   0.071   0.543
 7697TIP3    H123034   4.056   0.092   0.619
 7697TIP3    H223035   4.186   0.128   0.551
 7698TIP3   OH223036   2.509   7.828   4.024
 7698TIP3    H123037   2.456   7.907   4.026
 7698TIP3    H223038   2.586   7.849   4.077
 7699TIP3   OH223039   7.071   6.597   5.967
 7699TIP3    H123040   7.027   6.547   6.036
 7699TIP3    H223041   7.005   6.658   5.935
 7700TIP3   OH223042   1.103   2.869   4.110
 7700TIP3    H123043   1.088   2.817   4.031
 7700TIP3    H223044   1.018   2.906   4.132
 7701TIP3   OH223045   4.032   3.159   0.685
 7701TIP3    H123046   4.087   3.170   0.763
 7701TIP3    H223047   4.035   3.244   0.642
 7702TIP3   OH223048   0.644   5.801   3.962
 7702TIP3    H123049   0.616   5.892   3.968
 7702TIP3    H223050   0.672   5.791   3.871
 7703TIP3   OH223051   0.005   2.180   0.556
 7703TIP3    H123052   0.000   2.169   0.651
 7703TIP3    H223053   0.089   2.141   0.532
 7704TIP3   OH223054   5.250   3.028   1.345
 7704TIP3    H123055   5.207   3.113   1.351
 7704TIP3    H223056   5.334   3.046   1.304
 7705TIP3   OH223057   8.160   2.482   3.617
 7705TIP3    H123058   8.065   2.485   3.627
 7705TIP3    H223059   8.190   2.570   3.639
 7706TIP3   OH223060   0.513   5.547   3.889
 7706TIP3    H123061   0.584   5.610   3.887
 7706TIP3    H223062   0.458   5.575   3.962
 7707TIP3   OH223063   2.592   5.052   1.971
 7707TIP3    H123064   2.540   4.995   1.914
 7707TIP3    H223065   2.528   5.106   2.017
 7708TIP3   OH223066   0.716   3.952   1.705
 7708TIP3    H123067   0.684   4.042   1.714
 7708TIP3    H223068   0.785   3.958   1.639
 7709TIP3   OH223069   4.141   6.727   4.141
 7709TIP3    H123070   4.126   6.724   4.046
 7709TIP3    H223071   4.179   6.642   4.162
 7710TIP3   OH223072   3.429   1.092   5.993
 7710TIP3    H123073   3.464   1.096   5.904
 7710TIP3    H223074   3.506   1.097   6.050
 7711TIP3   OH223075   7.878   6.304   2.675
 7711TIP3    H123076   7.784   6.287   2.666
 7711TIP3    H223077   7.889   6.394   2.644
 7712TIP3   OH223078   2.738   6.121   1.856
 7712TIP3    H123079   2.672   6.093   1.792
 7712TIP3    H223080   2.788   6.188   1.810
 7713TIP3   OH223081   3.351   6.944   3.852
 7713TIP3    H123082   3.322   6.854   3.835
 7713TIP3    H223083   3.273   6.997   3.837
 7714TIP3   OH223084   3.880   6.736   0.435
 7714TIP3    H123085   3.905   6.794   0.363
 7714TIP3    H223086   3.932   6.767   0.509
 7715TIP3   OH223087   7.317   7.131   3.993
 7715TIP3    H123088   7.330   7.045   4.033
 7715TIP3    H223089   7.326   7.192   4.066
 7716TIP3   OH223090   3.093   6.219   5.710
 7716TIP3    H123091   3.157   6.154   5.738
 7716TIP3    H223092   3.120   6.300   5.753
 7717TIP3   OH223093   6.806   0.043   3.507
 7717TIP3    H123094   6.721   0.051   3.464
 7717TIP3    H223095   6.813   0.123   3.560
 7718TIP3   OH223096   2.688   7.389   6.048
 7718TIP3    H123097   2.640   7.327   6.103
 7718TIP3    H223098   2.638   7.470   6.054
 7719TIP3   OH223099   5.737   0.107   1.972
 7719TIP3    H123100   5.770   0.186   2.015
 7719TIP3    H223101   5.729   0.042   2.041
 7720TIP3   OH223102   2.009   7.209   6.182
 7720TIP3    H123103   1.969   7.264   6.114
 7720TIP3    H223104   1.952   7.132   6.186
 7721TIP3   OH223105   2.681   6.231   0.563
 7721TIP3    H123106   2.644   6.313   0.597
 7721TIP3    H223107   2.683   6.172   0.638
 7722TIP3   OH223108   8.057   0.007   1.295
 7722TIP3    H123109   8.099   0.015   1.380
 7722TIP3    H223110   8.062   0.094   1.257
 7723TIP3   OH223111   2.277   2.685   3.088
 7723TIP3    H123112   2.360   2.642   3.111
 7723TIP3    H223113   2.237   2.626   3.024
 7724TIP3   OH223114   3.418   3.185   4.563
 7724TIP3    H123115   3.400   3.273   4.533
 7724TIP3    H223116   3.347   3.132   4.528
 7725TIP3   OH223117   1.155   5.956   0.209
 7725TIP3    H123118   1.194   5.933   0.124
 7725TIP3    H223119   1.081   5.896   0.218
 7726TIP3   OH223120   1.807   3.847   2.764
 7726TIP3    H123121   1.855   3.775   2.723
 7726TIP3    H223122   1.822   3.922   2.707
 7727TIP3   OH223123   4.284   1.373   4.033
 7727TIP3    H123124   4.286   1.278   4.043
 7727TIP3    H223125   4.348   1.404   4.098
 7728TIP3   OH223126   6.563   7.343   1.406
 7728TIP3    H123127   6.473   7.370   1.419
 7728TIP3    H223128   6.601   7.343   1.495
 7729TIP3   OH223129   7.423   7.478   1.538
 7729TIP3    H123130   7.438   7.550   1.599
 7729TIP3    H223131   7.429   7.518   1.451
 7730TIP3   OH223132   8.123   1.052   3.247
 7730TIP3    H123133   8.207   1.098   3.249
 7730TIP3    H223134   8.059   1.120   3.223
 7731TIP3   OH223135   0.772   6.261   2.673
 7731TIP3    H123136   0.858   6.226   2.650
 7731TIP3    H223137   0.735   6.196   2.733
 7732TIP3   OH223138   1.375   4.480   2.644
 7732TIP3    H123139   1.463   4.463   2.612
 7732TIP3    H223140   1.325   4.402   2.620
 7733TIP3   OH223141   3.889   2.466   3.853
 7733TIP3    H123142   3.794   2.477   3.864
 7733TIP3    H223143   3.926   2.494   3.937
 7734TIP3   OH223144   7.053   3.459   3.458
 7734TIP3    H123145   7.059   3.409   3.540
 7734TIP3    H223146   7.001   3.403   3.400
 7735TIP3   OH223147   0.028   5.176   6.619
 7735TIP3    H123148   0.115   5.144   6.644
 7735TIP3    H223149   0.046   5.244   6.554
 7736TIP3   OH223150   7.872   0.595   2.325
 7736TIP3    H123151   7.862   0.581   2.231
 7736TIP3    H223152   7.864   0.508   2.364
 7737TIP3   OH223153   5.127   1.885   5.529
 7737TIP3    H123154   5.200   1.836   5.489
 7737TIP3    H223155   5.156   1.902   5.618
 7738TIP3   OH223156   7.036   7.090   4.919
 7738TIP3    H123157   7.055   7.044   5.001
 7738TIP3    H223158   7.091   7.047   4.853
 7739TIP3   OH223159   7.365   0.451   5.842
 7739TIP3    H123160   7.286   0.410   5.806
 7739TIP3    H223161   7.345   0.464   5.935
 7740TIP3   OH223162   2.240   4.558   0.404
 7740TIP3    H123163   2.201   4.644   0.419
 7740TIP3    H223164   2.255   4.555   0.309
 7741TIP3   OH223165   6.333   3.010   1.823
 7741TIP3    H123166   6.283   2.953   1.882
 7741TIP3    H223167   6.277   3.087   1.812
 7742TIP3   OH223168   0.846   2.173   2.265
 7742TIP3    H123169   0.776   2.234   2.286
 7742TIP3    H223170   0.807   2.086   2.277
 7743TIP3   OH223171   4.973   0.414   3.301
 7743TIP3    H123172   5.027   0.368   3.236
 7743TIP3    H223173   4.912   0.465   3.248
 7744TIP3   OH223174   1.380   5.457   0.161
 7744TIP3    H123175   1.289   5.478   0.183
 7744TIP3    H223176   1.381   5.453   0.065
 7745TIP3   OH223177   4.827   1.765   2.130
 7745TIP3    H123178   4.871   1.817   2.063
 7745TIP3    H223179   4.796   1.829   2.193
 7746TIP3   OH223180   0.858   6.469   2.929
 7746TIP3    H123181   0.764   6.454   2.941
 7746TIP3    H223182   0.892   6.387   2.893
 7747TIP3   OH223183   0.091   6.535   3.086
 7747TIP3    H123184   0.128   6.498   3.166
 7747TIP3    H223185   0.158   6.594   3.053
 7748TIP3   OH223186   5.478   4.669   0.152
 7748TIP3    H123187   5.409   4.603   0.154
 7748TIP3    H223188   5.478   4.706   0.241
 7749TIP3   OH223189   2.755   6.170   4.770
 7749TIP3    H123190   2.664   6.173   4.743
 7749TIP3    H223191   2.763   6.239   4.835
 7750TIP3   OH223192   7.072   3.846   0.885
 7750TIP3    H123193   7.135   3.890   0.826
 7750TIP3    H223194   6.990   3.893   0.871
 7751TIP3   OH223195   7.837   0.258   1.526
 7751TIP3    H123196   7.869   0.252   1.616
 7751TIP3    H223197   7.742   0.259   1.535
 7752TIP3   OH223198   0.877   0.313   6.394
 7752TIP3    H123199   0.793   0.329   6.351
 7752TIP3    H223200   0.886   0.218   6.394
 7753TIP3   OH223201   5.979   3.496   3.121
 7753TIP3    H123202   6.054   3.527   3.171
 7753TIP3    H223203   5.923   3.573   3.112
 7754TIP3   OH223204   4.157   3.049   5.941
 7754TIP3    H123205   4.158   2.954   5.946
 7754TIP3    H223206   4.064   3.073   5.935
 7755TIP3   OH223207   4.799   4.681   3.998
 7755TIP3    H123208   4.869   4.617   4.005
 7755TIP3    H223209   4.815   4.743   4.069
 7756TIP3   OH223210   3.127   6.287   1.512
 7756TIP3    H123211   3.131   6.381   1.490
 7756TIP3    H223212   3.123   6.243   1.427
 7757TIP3   OH223213   4.990   1.719   4.695
 7757TIP3    H123214   4.968   1.750   4.783
 7757TIP3    H223215   4.918   1.749   4.640
 7758TIP3   OH223216   4.765   1.683   2.683
 7758TIP3    H123217   4.753   1.746   2.612
 7758TIP3    H223218   4.834   1.624   2.652
 7759TIP3   OH223219   0.254   1.832   6.371
 7759TIP3    H123220   0.263   1.885   6.450
 7759TIP3    H223221   0.207   1.888   6.309
 7760TIP3   OH223222   3.859   7.055   2.270
 7760TIP3    H123223   3.836   7.141   2.235
 7760TIP3    H223224   3.781   7.027   2.317
 7761TIP3   OH223225   5.524   6.305   6.648
 7761TIP3    H123226   5.524   6.396   6.620
 7761TIP3    H223227   5.612   6.273   6.627
 7762TIP3   OH223228   3.245   6.723   3.702
 7762TIP3    H123229   3.244   6.780   3.625
 7762TIP3    H223230   3.209   6.640   3.671
 7763TIP3   OH223231   4.133   0.778   3.771
 7763TIP3    H123232   4.092   0.714   3.714
 7763TIP3    H223233   4.142   0.857   3.717
 7764TIP3   OH223234   0.818   0.981   4.646
 7764TIP3    H123235   0.728   0.982   4.678
 7764TIP3    H223236   0.870   1.019   4.716
 7765TIP3   OH223237   4.341   7.582   4.963
 7765TIP3    H123238   4.296   7.608   5.044
 7765TIP3    H223239   4.363   7.490   4.977
 7766TIP3   OH223240   6.385   2.766   0.091
 7766TIP3    H123241   6.345   2.803   0.013
 7766TIP3    H223242   6.335   2.686   0.108
 7767TIP3   OH223243   3.975   5.288   3.003
 7767TIP3    H123244   3.991   5.332   2.920
 7767TIP3    H223245   4.051   5.232   3.016
 7768TIP3   OH223246   5.532   2.535   0.881
 7768TIP3    H123247   5.563   2.541   0.791
 7768TIP3    H223248   5.499   2.623   0.901
 7769TIP3   OH223249   1.777   2.066   3.863
 7769TIP3    H123250   1.836   2.041   3.791
 7769TIP3    H223251   1.705   2.004   3.857
 7770TIP3   OH223252   5.399   0.647   0.521
 7770TIP3    H123253   5.461   0.617   0.588
 7770TIP3    H223254   5.353   0.568   0.495
 7771TIP3   OH223255   5.061   1.171   4.098
 7771TIP3    H123256   5.063   1.236   4.028
 7771TIP3    H223257   5.131   1.110   4.077
 7772TIP3   OH223258   2.048   4.731   1.847
 7772TIP3    H123259   2.089   4.809   1.809
 7772TIP3    H223260   1.956   4.756   1.857
 7773TIP3   OH223261   6.374   2.144   4.262
 7773TIP3    H123262   6.391   2.057   4.298
 7773TIP3    H223263   6.279   2.150   4.257
 7774TIP3   OH223264   4.385   6.431   4.084
 7774TIP3    H123265   4.323   6.387   4.026
 7774TIP3    H223266   4.416   6.506   4.034
 7775TIP3   OH223267   6.095   2.919   4.009
 7775TIP3    H123268   6.065   2.983   3.944
 7775TIP3    H223269   6.017   2.899   4.061
 7776TIP3   OH223270   2.121   7.375   6.614
 7776TIP3    H123271   2.045   7.361   6.670
 7776TIP3    H223272   2.091   7.437   6.547
 7777TIP3   OH223273   5.802   3.760   4.353
 7777TIP3    H123274   5.894   3.768   4.377
 7777TIP3    H223275   5.764   3.705   4.422
 7778TIP3   OH223276   1.068   6.975   5.234
 7778TIP3    H123277   0.974   6.993   5.236
 7778TIP3    H223278   1.106   7.040   5.293
 7779TIP3   OH223279   5.676   1.354   1.944
 7779TIP3    H123280   5.696   1.345   2.037
 7779TIP3    H223281   5.758   1.332   1.899
 7780TIP3   OH223282   2.003   2.260   1.919
 7780TIP3    H123283   2.063   2.311   1.973
 7780TIP3    H223284   2.036   2.270   1.830
 7781TIP3   OH223285   0.546   5.050   3.991
 7781TIP3    H123286   0.461   5.092   3.975
 7781TIP3    H223287   0.610   5.113   3.957
 7782TIP3   OH223288   0.483   6.338   1.573
 7782TIP3    H123289   0.516   6.268   1.517
 7782TIP3    H223290   0.388   6.331   1.566
 7783TIP3   OH223291   7.634   1.570   1.786
 7783TIP3    H123292   7.576   1.632   1.830
 7783TIP3    H223293   7.596   1.484   1.806
 7784TIP3   OH223294   2.152   5.205   0.767
 7784TIP3    H123295   2.214   5.202   0.840
 7784TIP3    H223296   2.128   5.297   0.759
 7785TIP3   OH223297   7.786   2.784   2.278
 7785TIP3    H123298   7.815   2.832   2.356
 7785TIP3    H223299   7.858   2.723   2.260
 7786TIP3   OH223300   5.449   2.600   3.528
 7786TIP3    H123301   5.541   2.574   3.528
 7786TIP3    H223302   5.402   2.520   3.552
 7787TIP3   OH223303   0.473   2.247   1.717
 7787TIP3    H123304   0.515   2.330   1.693
 7787TIP3    H223305   0.536   2.180   1.693
 7788TIP3   OH223306   4.760   2.004   3.427
 7788TIP3    H123307   4.747   1.956   3.508
 7788TIP3    H223308   4.782   1.937   3.362
 7789TIP3   OH223309   3.156   4.043   5.263
 7789TIP3    H123310   3.213   3.988   5.316
 7789TIP3    H223311   3.171   4.015   5.173
 7790TIP3   OH223312   0.132   5.450   3.758
 7790TIP3    H123313   0.185   5.530   3.757
 7790TIP3    H223314   0.147   5.411   3.671
 7791TIP3   OH223315   2.771   5.416   2.414
 7791TIP3    H123316   2.708   5.482   2.443
 7791TIP3    H223317   2.742   5.335   2.456
 7792TIP3   OH223318   3.003   3.833   2.389
 7792TIP3    H123319   2.934   3.855   2.451
 7792TIP3    H223320   3.003   3.904   2.326
 7793TIP3   OH223321   2.867   6.944   0.442
 7793TIP3    H123322   2.844   6.873   0.383
 7793TIP3    H223323   2.957   6.966   0.420
 7794TIP3   OH223324   6.850   6.028   0.146
 7794TIP3    H123325   6.897   6.093   0.093
 7794TIP3    H223326   6.851   6.064   0.234
 7795TIP3   OH223327   0.926   3.197   6.696
 7795TIP3    H123328   0.990   3.162   6.634
 7795TIP3    H223329   0.956   3.286   6.714
 7796TIP3   OH223330   5.936   2.630   0.557
 7796TIP3    H123331   5.893   2.626   0.643
 7796TIP3    H223332   5.919   2.719   0.526
 7797TIP3   OH223333   6.030   3.329   2.134
 7797TIP3    H123334   6.046   3.399   2.071
 7797TIP3    H223335   6.114   3.285   2.144
 7798TIP3   OH223336   6.627   6.437   0.902
 7798TIP3    H123337   6.661   6.393   0.980
 7798TIP3    H223338   6.555   6.382   0.873
 7799TIP3   OH223339   1.500   2.301   4.631
 7799TIP3    H123340   1.552   2.267   4.703
 7799TIP3    H223341   1.468   2.386   4.662
 7800TIP3   OH223342   2.907   1.684   6.545
 7800TIP3    H123343   2.934   1.621   6.612
 7800TIP3    H223344   2.919   1.638   6.462
 7801TIP3   OH223345   5.284   7.561   3.655
 7801TIP3    H123346   5.227   7.528   3.586
 7801TIP3    H223347   5.254   7.518   3.735
 7802TIP3   OH223348   2.451   5.096   3.745
 7802TIP3    H123349   2.395   5.042   3.801
 7802TIP3    H223350   2.540   5.078   3.775
 7803TIP3   OH223351   3.322   0.413   0.769
 7803TIP3    H123352   3.227   0.418   0.785
 7803TIP3    H223353   3.358   0.383   0.853
 7804TIP3   OH223354   0.798   4.307   4.976
 7804TIP3    H123355   0.749   4.285   4.897
 7804TIP3    H223356   0.823   4.399   4.964
 7805TIP3   OH223357   2.624   2.588   5.956
 7805TIP3    H123358   2.623   2.541   5.872
 7805TIP3    H223359   2.717   2.589   5.981
 7806TIP3   OH223360   2.160   7.106   6.612
 7806TIP3    H123361   2.118   7.075   6.531
 7806TIP3    H223362   2.173   7.200   6.598
 7807TIP3   OH223363   4.049   6.206   5.138
 7807TIP3    H123364   3.981   6.271   5.158
 7807TIP3    H223365   4.131   6.254   5.152
 7808TIP3   OH223366   3.918   4.482   0.971
 7808TIP3    H123367   3.941   4.466   1.063
 7808TIP3    H223368   3.938   4.575   0.958
 7809TIP3   OH223369   5.374   5.025   6.196
 7809TIP3    H123370   5.341   5.101   6.244
 7809TIP3    H223371   5.468   5.040   6.189
 7810TIP3   OH223372   0.906   2.958   0.431
 7810TIP3    H123373   0.823   2.957   0.384
 7810TIP3    H223374   0.968   2.916   0.372
 7811TIP3   OH223375   6.442   1.880   4.383
 7811TIP3    H123376   6.396   1.869   4.466
 7811TIP3    H223377   6.534   1.866   4.404
 7812TIP3   OH223378   4.491   5.839   2.927
 7812TIP3    H123379   4.557   5.889   2.974
 7812TIP3    H223380   4.516   5.747   2.939
 7813TIP3   OH223381   1.533   6.942   4.154
 7813TIP3    H123382   1.594   7.007   4.120
 7813TIP3    H223383   1.454   6.953   4.101
 7814TIP3   OH223384   0.698   2.074   1.656
 7814TIP3    H123385   0.648   2.027   1.590
 7814TIP3    H223386   0.730   2.005   1.715
 7815TIP3   OH223387   0.235   6.993   4.274
 7815TIP3    H123388   0.195   7.062   4.327
 7815TIP3    H223389   0.329   7.012   4.278
 7816TIP3   OH223390   1.737   6.115   1.780
 7816TIP3    H123391   1.705   6.134   1.692
 7816TIP3    H223392   1.666   6.066   1.821
 7817TIP3   OH223393   5.252   0.960   4.013
 7817TIP3    H123394   5.259   0.936   3.920
 7817TIP3    H223395   5.342   0.953   4.046
 7818TIP3   OH223396   8.338   5.101   1.445
 7818TIP3    H123397   8.282   5.122   1.520
 7818TIP3    H223398   8.280   5.056   1.384
 7819TIP3   OH223399   3.614   1.227   1.439
 7819TIP3    H123400   3.538   1.248   1.494
 7819TIP3    H223401   3.689   1.235   1.498
 7820TIP3   OH223402   0.988   1.171   4.766
 7820TIP3    H123403   1.058   1.234   4.748
 7820TIP3    H223404   0.943   1.206   4.843
 7821TIP3   OH223405   6.248   0.463   2.724
 7821TIP3    H123406   6.231   0.522   2.798
 7821TIP3    H223407   6.335   0.489   2.693
 7822TIP3   OH223408   6.370   3.758   3.583
 7822TIP3    H123409   6.456   3.733   3.551
 7822TIP3    H223410   6.312   3.688   3.553
 7823TIP3   OH223411   4.645   6.795   2.172
 7823TIP3    H123412   4.568   6.795   2.228
 7823TIP3    H223413   4.623   6.854   2.100
 7824TIP3   OH223414   0.147   4.132   5.558
 7824TIP3    H123415   0.120   4.223   5.544
 7824TIP3    H223416   0.065   4.083   5.563
 7825TIP3   OH223417   4.506   2.813   5.162
 7825TIP3    H123418   4.518   2.756   5.087
 7825TIP3    H223419   4.592   2.853   5.177
 7826TIP3   OH223420   6.360   3.012   6.065
 7826TIP3    H123421   6.444   2.988   6.026
 7826TIP3    H223422   6.295   2.968   6.012
 7827TIP3   OH223423   0.427   5.178   0.959
 7827TIP3    H123424   0.426   5.266   0.923
 7827TIP3    H223425   0.404   5.189   1.051
 7828TIP3   OH223426   6.184   6.708   4.163
 7828TIP3    H123427   6.224   6.629   4.198
 7828TIP3    H223428   6.222   6.717   4.075
 7829TIP3   OH223429   4.997   5.850   0.697
 7829TIP3    H123430   5.002   5.766   0.652
 7829TIP3    H223431   5.022   5.831   0.788
 7830TIP3   OH223432   5.455   4.291   1.249
 7830TIP3    H123433   5.378   4.343   1.271
 7830TIP3    H223434   5.524   4.325   1.306
 7831TIP3   OH223435   4.683   3.972   0.756
 7831TIP3    H123436   4.632   4.020   0.821
 7831TIP3    H223437   4.759   3.939   0.805
 7832TIP3   OH223438   4.865   5.447   4.177
 7832TIP3    H123439   4.849   5.477   4.267
 7832TIP3    H223440   4.922   5.515   4.139
 7833TIP3   OH223441   6.541   0.855   3.757
 7833TIP3    H123442   6.593   0.784   3.794
 7833TIP3    H223443   6.466   0.863   3.816
 7834TIP3   OH223444   3.774   7.291   1.197
 7834TIP3    H123445   3.823   7.211   1.215
 7834TIP3    H223446   3.823   7.360   1.242
 7835TIP3   OH223447   0.869   0.178   2.366
 7835TIP3    H123448   0.812   0.227   2.426
 7835TIP3    H223449   0.865   0.226   2.284
 7836TIP3   OH223450   3.509   2.993   0.824
 7836TIP3    H123451   3.592   2.987   0.872
 7836TIP3    H223452   3.481   3.083   0.836
 7837TIP3   OH223453   3.175   7.527   1.894
 7837TIP3    H123454   3.229   7.516   1.816
 7837TIP3    H223455   3.229   7.495   1.966
 7838TIP3   OH223456   2.050   2.967   6.206
 7838TIP3    H123457   2.074   2.916   6.283
 7838TIP3    H223458   1.987   2.913   6.159
 7839TIP3   OH223459   2.697   4.611   1.906
 7839TIP3    H123460   2.739   4.695   1.923
 7839TIP3    H223461   2.741   4.549   1.964
 7840TIP3   OH223462   5.934   0.029   4.319
 7840TIP3    H123463   5.881   0.106   4.297
 7840TIP3    H223464   5.886  -0.044   4.279
 7841TIP3   OH223465   1.900   2.260   5.993
 7841TIP3    H123466   1.953   2.212   6.057
 7841TIP3    H223467   1.846   2.319   6.046
 7842TIP3   OH223468   5.854   7.550   4.169
 7842TIP3    H123469   5.859   7.645   4.174
 7842TIP3    H223470   5.849   7.521   4.260
 7843TIP3   OH223471   6.922   3.735   3.672
 7843TIP3    H123472   6.928   3.818   3.719
 7843TIP3    H223473   6.997   3.684   3.703
 7844TIP3   OH223474   0.859   6.873   2.295
 7844TIP3    H123475   0.942   6.853   2.252
 7844TIP3    H223476   0.792   6.853   2.229
 7845TIP3   OH223477   5.018   6.371   5.284
 7845TIP3    H123478   5.026   6.443   5.221
 7845TIP3    H223479   5.087   6.387   5.348
 7846TIP3   OH223480   4.469   4.216   0.796
 7846TIP3    H123481   4.437   4.301   0.825
 7846TIP3    H223482   4.438   4.155   0.864
 7847TIP3   OH223483   8.118   0.203   5.987
 7847TIP3    H123484   8.200   0.204   6.037
 7847TIP3    H223485   8.094   0.111   5.981
 7848TIP3   OH223486   3.666   6.346   1.060
 7848TIP3    H123487   3.642   6.310   1.145
 7848TIP3    H223488   3.713   6.427   1.081
 7849TIP3   OH223489   0.399   5.449   4.392
 7849TIP3    H123490   0.317   5.496   4.409
 7849TIP3    H223491   0.395   5.373   4.449
 7850TIP3   OH223492   3.953   2.004   4.664
 7850TIP3    H123493   3.858   2.001   4.675
 7850TIP3    H223494   3.978   2.091   4.696
 7851TIP3   OH223495   6.256   2.899   4.209
 7851TIP3    H123496   6.217   2.922   4.125
 7851TIP3    H223497   6.188   2.917   4.273
 7852TIP3   OH223498   3.653   6.224   3.079
 7852TIP3    H123499   3.741   6.259   3.091
 7852TIP3    H223500   3.596   6.286   3.124
 7853TIP3   OH223501   8.214   0.980   0.754
 7853TIP3    H123502   8.173   1.000   0.670
 7853TIP3    H223503   8.250   0.892   0.742
 7854TIP3   OH223504   6.824   4.200   2.549
 7854TIP3    H123505   6.855   4.198   2.458
 7854TIP3    H223506   6.794   4.110   2.565
 7855TIP3   OH223507   2.272   6.942   5.820
 7855TIP3    H123508   2.283   7.015   5.759
 7855TIP3    H223509   2.310   6.973   5.902
 7856TIP3   OH223510   0.487   2.103   0.383
 7856TIP3    H123511   0.470   2.173   0.320
 7856TIP3    H223512   0.519   2.030   0.330
 7857TIP3   OH223513   3.264   4.430   4.139
 7857TIP3    H123514   3.306   4.479   4.208
 7857TIP3    H223515   3.253   4.342   4.175
 7858TIP3   OH223516   3.975   0.383   5.615
 7858TIP3    H123517   4.016   0.400   5.700
 7858TIP3    H223518   3.895   0.435   5.616
 7859TIP3   OH223519   2.982   4.258   1.161
 7859TIP3    H123520   2.918   4.271   1.231
 7859TIP3    H223521   2.930   4.236   1.084
 7860TIP3   OH223522   4.529   4.284   6.613
 7860TIP3    H123523   4.440   4.248   6.611
 7860TIP3    H223524   4.517   4.375   6.640
 7861TIP3   OH223525   3.616   0.308   2.823
 7861TIP3    H123526   3.674   0.335   2.894
 7861TIP3    H223527   3.528   0.325   2.855
 7862TIP3   OH223528   6.591   4.541   5.860
 7862TIP3    H123529   6.603   4.582   5.946
 7862TIP3    H223530   6.603   4.612   5.797
 7863TIP3   OH223531   7.446   1.067   5.949
 7863TIP3    H123532   7.417   1.095   5.863
 7863TIP3    H223533   7.387   1.109   6.011
 7864TIP3   OH223534   6.684   5.191   2.165
 7864TIP3    H123535   6.656   5.277   2.132
 7864TIP3    H223536   6.673   5.132   2.091
 7865TIP3   OH223537   6.172   3.369   1.069
 7865TIP3    H123538   6.216   3.388   1.152
 7865TIP3    H223539   6.243   3.360   1.006
 7866TIP3   OH223540   5.410   5.781   5.755
 7866TIP3    H123541   5.410   5.715   5.824
 7866TIP3    H223542   5.470   5.746   5.689
 7867TIP3   OH223543   3.599   2.190   1.128
 7867TIP3    H123544   3.533   2.230   1.184
 7867TIP3    H223545   3.588   2.234   1.043
 7868TIP3   OH223546   3.733   4.932   6.238
 7868TIP3    H123547   3.775   5.008   6.277
 7868TIP3    H223548   3.690   4.888   6.312
 7869TIP3   OH223549   0.673   1.957   2.286
 7869TIP3    H123550   0.629   1.946   2.370
 7869TIP3    H223551   0.698   1.868   2.261
 7870TIP3   OH223552   1.582   6.459   3.373
 7870TIP3    H123553   1.544   6.478   3.459
 7870TIP3    H223554   1.514   6.409   3.328
 7871TIP3   OH223555   7.226   2.554   6.248
 7871TIP3    H123556   7.283   2.521   6.179
 7871TIP3    H223557   7.214   2.480   6.307
 7872TIP3   OH223558   6.286   2.207   0.873
 7872TIP3    H123559   6.207   2.198   0.821
 7872TIP3    H223560   6.262   2.173   0.959
 7873TIP3   OH223561   7.302   4.939   3.502
 7873TIP3    H123562   7.352   4.858   3.497
 7873TIP3    H223563   7.281   4.960   3.411
 7874TIP3   OH223564   3.860   0.830   5.920
 7874TIP3    H123565   3.874   0.770   5.847
 7874TIP3    H223566   3.765   0.830   5.933
 7875TIP3   OH223567  -0.043   7.462   1.492
 7875TIP3    H123568  -0.022   7.549   1.527
 7875TIP3    H223569   0.035   7.435   1.445
 7876TIP3   OH223570   3.727   7.020   6.073
 7876TIP3    H123571   3.743   6.944   6.016
 7876TIP3    H223572   3.638   7.047   6.053
 7877TIP3   OH223573   4.563   6.071   1.383
 7877TIP3    H123574   4.618   6.115   1.317
 7877TIP3    H223575   4.625   6.028   1.441
 7878TIP3   OH223576   3.516   0.466   5.004
 7878TIP3    H123577   3.482   0.555   4.997
 7878TIP3    H223578   3.494   0.425   4.920
 7879TIP3   OH223579   2.486   4.431   0.905
 7879TIP3    H123580   2.412   4.381   0.940
 7879TIP3    H223581   2.522   4.376   0.836
 7880TIP3   OH223582   2.935   7.753   3.165
 7880TIP3    H123583   2.876   7.723   3.096
 7880TIP3    H223584   2.907   7.706   3.244
 7881TIP3   OH223585   4.179   3.071   4.700
 7881TIP3    H123586   4.243   3.005   4.675
 7881TIP3    H223587   4.135   3.035   4.777
 7882TIP3   OH223588   6.798   2.046   2.953
 7882TIP3    H123589   6.755   2.127   2.924
 7882TIP3    H223590   6.726   1.989   2.979
 7883TIP3   OH223591   5.038   4.530   4.241
 7883TIP3    H123592   5.080   4.589   4.179
 7883TIP3    H223593   4.963   4.580   4.274
 7884TIP3   OH223594   0.102   4.261   0.352
 7884TIP3    H123595   0.049   4.190   0.386
 7884TIP3    H223596   0.156   4.289   0.426
 7885TIP3   OH223597   5.933   4.901   3.234
 7885TIP3    H123598   5.945   4.816   3.275
 7885TIP3    H223599   5.922   4.883   3.141
 7886TIP3   OH223600   4.133   2.625   4.485
 7886TIP3    H123601   4.123   2.719   4.501
 7886TIP3    H223602   4.228   2.613   4.474
 7887TIP3   OH223603   5.631   7.683   2.742
 7887TIP3    H123604   5.664   7.594   2.727
 7887TIP3    H223605   5.675   7.711   2.823
 7888TIP3   OH223606   4.693   7.163   6.472
 7888TIP3    H123607   4.650   7.228   6.416
 7888TIP3    H223608   4.767   7.210   6.510
 7889TIP3   OH223609   2.777   6.387   5.860
 7889TIP3    H123610   2.724   6.315   5.824
 7889TIP3    H223611   2.824   6.421   5.784
 7890TIP3   OH223612   0.087   0.425   4.755
 7890TIP3    H123613   0.005   0.474   4.765
 7890TIP3    H223614   0.152   0.491   4.730
 7891TIP3   OH223615   3.738   4.473   4.265
 7891TIP3    H123616   3.766   4.549   4.317
 7891TIP3    H223617   3.709   4.410   4.331
 7892TIP3   OH223618   4.798   3.276   4.246
 7892TIP3    H123619   4.872   3.301   4.190
 7892TIP3    H223620   4.840   3.241   4.325
 7893TIP3   OH223621   2.956   4.439   4.223
 7893TIP3    H123622   2.911   4.400   4.148
 7893TIP3    H223623   3.049   4.426   4.204
 7894TIP3   OH223624   5.329   0.009   1.946
 7894TIP3    H123625   5.253   0.067   1.931
 7894TIP3    H223626   5.382   0.056   2.010
 7895TIP3   OH223627   6.502   0.633   1.376
 7895TIP3    H123628   6.539   0.672   1.297
 7895TIP3    H223629   6.415   0.672   1.384
 7896TIP3   OH223630   3.709   6.107   6.320
 7896TIP3    H123631   3.685   6.160   6.397
 7896TIP3    H223632   3.733   6.022   6.356
 7897TIP3   OH223633   5.264   1.925   1.157
 7897TIP3    H123634   5.199   1.971   1.104
 7897TIP3    H223635   5.213   1.866   1.212
 7898TIP3   OH223636   3.708   4.378   3.514
 7898TIP3    H123637   3.733   4.396   3.604
 7898TIP3    H223638   3.721   4.462   3.469
 7899TIP3   OH223639   2.119   4.469   1.135
 7899TIP3    H123640   2.185   4.538   1.138
 7899TIP3    H223641   2.165   4.394   1.097
 7900TIP3   OH223642   1.579   5.746   0.203
 7900TIP3    H123643   1.559   5.759   0.296
 7900TIP3    H223644   1.657   5.690   0.203
 7901TIP3   OH223645   2.091   6.889   4.496
 7901TIP3    H123646   2.078   6.850   4.409
 7901TIP3    H223647   2.156   6.958   4.481
 7902TIP3   OH223648   4.916   2.496   6.508
 7902TIP3    H123649   4.925   2.541   6.592
 7902TIP3    H223650   4.879   2.563   6.450
 7903TIP3   OH223651   0.759   1.648   4.648
 7903TIP3    H123652   0.715   1.732   4.636
 7903TIP3    H223653   0.844   1.660   4.605
 7904TIP3   OH223654   7.778   5.606   0.824
 7904TIP3    H123655   7.711   5.538   0.837
 7904TIP3    H223656   7.768   5.664   0.899
 7905TIP3   OH223657   2.737   2.394   6.526
 7905TIP3    H123658   2.744   2.486   6.502
 7905TIP3    H223659   2.741   2.395   6.622
 7906TIP3   OH223660   3.355   7.182   2.039
 7906TIP3    H123661   3.274   7.157   2.082
 7906TIP3    H223662   3.360   7.277   2.051
 7907TIP3   OH223663   3.981   0.666   1.404
 7907TIP3    H123664   3.933   0.642   1.325
 7907TIP3    H223665   4.073   0.655   1.381
 7908TIP3   OH223666   1.229   0.858   5.898
 7908TIP3    H123667   1.137   0.879   5.917
 7908TIP3    H223668   1.261   0.816   5.977
 7909TIP3   OH223669   0.378   1.405   6.064
 7909TIP3    H123670   0.437   1.481   6.062
 7909TIP3    H223671   0.407   1.351   5.991
 7910TIP3   OH223672   2.101   3.638   3.616
 7910TIP3    H123673   2.064   3.573   3.557
 7910TIP3    H223674   2.035   3.707   3.621
 7911TIP3   OH223675   1.365   2.821   3.956
 7911TIP3    H123676   1.330   2.819   3.867
 7911TIP3    H223677   1.289   2.842   4.011
 7912TIP3   OH223678   1.651   5.119   5.211
 7912TIP3    H123679   1.743   5.121   5.185
 7912TIP3    H223680   1.647   5.053   5.280
 7913TIP3   OH223681   4.876   0.428   1.101
 7913TIP3    H123682   4.920   0.507   1.069
 7913TIP3    H223683   4.807   0.411   1.037
 7914TIP3   OH223684   3.598   3.508   5.452
 7914TIP3    H123685   3.528   3.480   5.394
 7914TIP3    H223686   3.568   3.487   5.540
 7915TIP3   OH223687   6.112   5.696   3.653
 7915TIP3    H123688   6.165   5.774   3.640
 7915TIP3    H223689   6.065   5.684   3.570
 7916TIP3   OH223690   3.935   5.667   4.670
 7916TIP3    H123691   3.860   5.720   4.698
 7916TIP3    H223692   4.010   5.727   4.676
 7917TIP3   OH223693   7.134   1.721   1.513
 7917TIP3    H123694   7.097   1.654   1.571
 7917TIP3    H223695   7.058   1.768   1.479
 7918TIP3   OH223696   0.919   4.553   2.184
 7918TIP3    H123697   0.831   4.580   2.212
 7918TIP3    H223698   0.910   4.538   2.090
 7919TIP3   OH223699   5.998   1.870   0.701
 7919TIP3    H123700   6.093   1.873   0.697
 7919TIP3    H223701   5.974   1.790   0.654
 7920TIP3   OH223702   1.442   2.597   1.173
 7920TIP3    H123703   1.376   2.579   1.106
 7920TIP3    H223704   1.400   2.660   1.232
 7921TIP3   OH223705   0.677   5.524   0.887
 7921TIP3    H123706   0.697   5.603   0.937
 7921TIP3    H223707   0.592   5.495   0.920
 7922TIP3   OH223708   0.123   7.757   5.645
 7922TIP3    H123709   0.113   7.674   5.597
 7922TIP3    H223710   0.155   7.731   5.731
 7923TIP3   OH223711   8.005   4.591   0.482
 7923TIP3    H123712   7.926   4.645   0.488
 7923TIP3    H223713   8.069   4.647   0.439
 7924TIP3   OH223714   3.233   5.912   1.386
 7924TIP3    H123715   3.288   5.843   1.424
 7924TIP3    H223716   3.146   5.873   1.381
 7925TIP3   OH223717   4.467   2.334   0.829
 7925TIP3    H123718   4.406   2.404   0.850
 7925TIP3    H223719   4.459   2.324   0.734
 7926TIP3   OH223720   6.290   2.707   4.385
 7926TIP3    H123721   6.370   2.698   4.438
 7926TIP3    H223722   6.317   2.759   4.310
 7927TIP3   OH223723   0.208   1.992   0.537
 7927TIP3    H123724   0.171   1.938   0.607
 7927TIP3    H223725   0.293   2.020   0.572
 7928TIP3   OH223726   5.659   6.299   4.530
 7928TIP3    H123727   5.624   6.380   4.491
 7928TIP3    H223728   5.586   6.264   4.581
 7929TIP3   OH223729   5.905   7.398  -0.037
 7929TIP3    H123730   5.818   7.403   0.002
 7929TIP3    H223731   5.923   7.487  -0.068
 7930TIP3   OH223732   4.571   5.887   3.565
 7930TIP3    H123733   4.576   5.874   3.660
 7930TIP3    H223734   4.540   5.802   3.531
 7931TIP3   OH223735   1.473   1.800   3.124
 7931TIP3    H123736   1.532   1.784   3.198
 7931TIP3    H223737   1.520   1.862   3.069
 7932TIP3   OH223738   8.111   2.389   1.360
 7932TIP3    H123739   8.113   2.410   1.453
 7932TIP3    H223740   8.198   2.413   1.328
 7933TIP3   OH223741   7.070   1.754   5.976
 7933TIP3    H123742   7.138   1.783   6.037
 7933TIP3    H223743   6.988   1.771   6.022
 7934TIP3   OH223744   1.890   1.291   4.670
 7934TIP3    H123745   1.953   1.347   4.625
 7934TIP3    H223746   1.871   1.221   4.607
 7935TIP3   OH223747   4.543   0.651   2.373
 7935TIP3    H123748   4.506   0.674   2.458
 7935TIP3    H223749   4.543   0.556   2.372
 7936TIP3   OH223750   8.116   2.622   0.472
 7936TIP3    H123751   8.199   2.575   0.464
 7936TIP3    H223752   8.056   2.558   0.509
 7937TIP3   OH223753   6.468   2.818   1.047
 7937TIP3    H123754   6.533   2.831   1.115
 7937TIP3    H223755   6.428   2.904   1.034
 7938TIP3   OH223756   1.885   2.716   4.064
 7938TIP3    H123757   1.832   2.703   3.986
 7938TIP3    H223758   1.972   2.741   4.031
 7939TIP3   OH223759   1.840   4.135   5.329
 7939TIP3    H123760   1.866   4.081   5.255
 7939TIP3    H223761   1.906   4.205   5.332
 7940TIP3   OH223762   4.527   2.069   6.018
 7940TIP3    H123763   4.571   2.023   6.089
 7940TIP3    H223764   4.436   2.076   6.047
 7941TIP3   OH223765   5.639   4.400   5.177
 7941TIP3    H123766   5.639   4.374   5.269
 7941TIP3    H223767   5.633   4.495   5.179
 7942TIP3   OH223768   6.909   6.766   1.955
 7942TIP3    H123769   6.971   6.699   1.927
 7942TIP3    H223770   6.851   6.722   2.017
 7943TIP3   OH223771   0.097   4.474   5.881
 7943TIP3    H123772   0.157   4.415   5.926
 7943TIP3    H223773   0.037   4.417   5.834
 7944TIP3   OH223774   5.877   2.209   1.274
 7944TIP3    H123775   5.874   2.116   1.250
 7944TIP3    H223776   5.966   2.222   1.305
 7945TIP3   OH223777   5.046   1.602   0.524
 7945TIP3    H123778   5.114   1.535   0.520
 7945TIP3    H223779   5.055   1.650   0.441
 7946TIP3   OH223780   6.298   4.565   2.114
 7946TIP3    H123781   6.305   4.561   2.209
 7946TIP3    H223782   6.321   4.477   2.084
 7947TIP3   OH223783   3.200   0.712   5.861
 7947TIP3    H123784   3.146   0.721   5.782
 7947TIP3    H223785   3.137   0.707   5.932
 7948TIP3   OH223786   0.333   1.810   2.659
 7948TIP3    H123787   0.254   1.763   2.633
 7948TIP3    H223788   0.404   1.767   2.612
 7949TIP3   OH223789   6.524   3.843   6.110
 7949TIP3    H123790   6.566   3.928   6.123
 7949TIP3    H223791   6.597   3.783   6.094
 7950TIP3   OH223792   6.591   6.817   0.588
 7950TIP3    H123793   6.545   6.740   0.621
 7950TIP3    H223794   6.655   6.782   0.526
 7951TIP3   OH223795   2.213   5.177   0.453
 7951TIP3    H123796   2.191   5.177   0.546
 7951TIP3    H223797   2.306   5.201   0.450
 7952TIP3   OH223798   7.815   5.296   3.455
 7952TIP3    H123799   7.755   5.334   3.518
 7952TIP3    H223800   7.846   5.216   3.496
 7953TIP3   OH223801   7.100   4.461   4.934
 7953TIP3    H123802   7.088   4.404   4.857
 7953TIP3    H223803   7.033   4.431   4.996
 7954TIP3   OH223804   1.848   6.384   3.153
 7954TIP3    H123805   1.922   6.435   3.120
 7954TIP3    H223806   1.840   6.413   3.244
 7955TIP3   OH223807   1.865   7.794   1.824
 7955TIP3    H123808   1.849   7.754   1.738
 7955TIP3    H223809   1.959   7.784   1.838
 7956TIP3   OH223810   2.361   0.543   2.897
 7956TIP3    H123811   2.363   0.564   2.804
 7956TIP3    H223812   2.317   0.617   2.938
 7957TIP3   OH223813   3.943   2.477   4.161
 7957TIP3    H123814   3.849   2.458   4.159
 7957TIP3    H223815   3.978   2.418   4.228
 7958TIP3   OH223816   7.073   7.524   3.974
 7958TIP3    H123817   7.090   7.616   3.957
 7958TIP3    H223818   7.117   7.477   3.903
 7959TIP3   OH223819   1.977   4.782   3.934
 7959TIP3    H123820   1.997   4.755   4.023
 7959TIP3    H223821   1.895   4.737   3.914
 7960TIP3   OH223822   4.360   3.439   1.879
 7960TIP3    H123823   4.346   3.350   1.911
 7960TIP3    H223824   4.295   3.492   1.924
 7961TIP3   OH223825   8.102   5.037   6.121
 7961TIP3    H123826   8.156   4.964   6.151
 7961TIP3    H223827   8.131   5.053   6.031
 7962TIP3   OH223828   8.073   4.739   2.378
 7962TIP3    H123829   8.047   4.752   2.286
 7962TIP3    H223830   8.065   4.826   2.418
 7963TIP3   OH223831   7.444   2.053   3.869
 7963TIP3    H123832   7.539   2.066   3.862
 7963TIP3    H223833   7.407   2.141   3.863
 7964TIP3   OH223834   0.862   2.841   1.245
 7964TIP3    H123835   0.846   2.835   1.150
 7964TIP3    H223836   0.790   2.896   1.278
 7965TIP3   OH223837   2.328   1.984   5.661
 7965TIP3    H123838   2.235   1.987   5.638
 7965TIP3    H223839   2.345   1.892   5.680
 7966TIP3   OH223840   7.186   0.081   4.548
 7966TIP3    H123841   7.251   0.053   4.612
 7966TIP3    H223842   7.187   0.177   4.554
 7967TIP3   OH223843   1.154   7.386   2.181
 7967TIP3    H123844   1.118   7.299   2.195
 7967TIP3    H223845   1.078   7.442   2.167
 7968TIP3   OH223846   1.248   0.725   1.480
 7968TIP3    H123847   1.273   0.752   1.391
 7968TIP3    H223848   1.185   0.654   1.467
 7969TIP3   OH223849   3.307   1.985   1.246
 7969TIP3    H123850   3.268   2.031   1.171
 7969TIP3    H223851   3.368   1.923   1.206
 7970TIP3   OH223852   0.603   4.953   3.034
 7970TIP3    H123853   0.658   5.025   3.065
 7970TIP3    H223854   0.515   4.974   3.064
 7971TIP3   OH223855   4.665   5.509   1.436
 7971TIP3    H123856   4.573   5.516   1.413
 7971TIP3    H223857   4.711   5.519   1.353
 7972TIP3   OH223858   1.623   4.982   2.631
 7972TIP3    H123859   1.573   4.995   2.711
 7972TIP3    H223860   1.653   5.069   2.606
 7973TIP3   OH223861   5.519   3.739   3.752
 7973TIP3    H123862   5.603   3.742   3.707
 7973TIP3    H223863   5.534   3.784   3.835
 7974TIP3   OH223864   5.465   3.321   1.957
 7974TIP3    H123865   5.416   3.322   2.040
 7974TIP3    H223866   5.414   3.376   1.898
 7975TIP3   OH223867   4.501   2.068   4.274
 7975TIP3    H123868   4.534   2.120   4.201
 7975TIP3    H223869   4.578   2.051   4.328
 7976TIP3   OH223870   1.975   3.704   2.043
 7976TIP3    H123871   1.923   3.784   2.036
 7976TIP3    H223872   2.065   3.733   2.027
 7977TIP3   OH223873   2.994   4.256   6.376
 7977TIP3    H123874   2.919   4.240   6.319
 7977TIP3    H223875   3.030   4.169   6.393
 7978TIP3   OH223876   0.208   6.045   3.881
 7978TIP3    H123877   0.162   5.964   3.906
 7978TIP3    H223878   0.161   6.114   3.927
 7979TIP3   OH223879   2.403   6.048   0.041
 7979TIP3    H123880   2.356   5.982   0.091
 7979TIP3    H223881   2.348   6.127   0.047
 7980TIP3   OH223882   7.355   0.137   6.426
 7980TIP3    H123883   7.436   0.153   6.377
 7980TIP3    H223884   7.344   0.042   6.424
 7981TIP3   OH223885   2.406   4.117   6.299
 7981TIP3    H123886   2.374   4.032   6.269
 7981TIP3    H223887   2.366   4.180   6.238
 7982TIP3   OH223888   6.598   2.676   0.591
 7982TIP3    H123889   6.561   2.721   0.667
 7982TIP3    H223890   6.634   2.747   0.537
 7983TIP3   OH223891   1.842   1.837   4.925
 7983TIP3    H123892   1.803   1.789   4.999
 7983TIP3    H223893   1.926   1.868   4.958
 7984TIP3   OH223894   6.865   1.975   0.008
 7984TIP3    H123895   6.880   2.013   0.095
 7984TIP3    H223896   6.901   2.039  -0.053
 7985TIP3   OH223897   1.101   5.017   4.685
 7985TIP3    H123898   1.007   5.008   4.699
 7985TIP3    H223899   1.139   5.020   4.773
 7986TIP3   OH223900   7.660   4.992   2.343
 7986TIP3    H123901   7.580   4.995   2.290
 7986TIP3    H223902   7.651   5.066   2.403
 7987TIP3   OH223903   7.869   4.291   6.483
 7987TIP3    H123904   7.955   4.333   6.491
 7987TIP3    H223905   7.807   4.359   6.507
 7988TIP3   OH223906   1.053   3.593   1.994
 7988TIP3    H123907   1.061   3.586   1.899
 7988TIP3    H223908   1.120   3.656   2.019
 7989TIP3   OH223909   0.287   7.491   4.313
 7989TIP3    H123910   0.346   7.567   4.310
 7989TIP3    H223911   0.345   7.416   4.307
 7990TIP3   OH223912   5.623   0.493   3.479
 7990TIP3    H123913   5.591   0.415   3.525
 7990TIP3    H223914   5.579   0.491   3.394
 7991TIP3   OH223915   1.071   2.385   3.348
 7991TIP3    H123916   1.143   2.444   3.322
 7991TIP3    H223917   1.088   2.364   3.439
 7992TIP3   OH223918   1.214   3.083   4.298
 7992TIP3    H123919   1.177   3.031   4.369
 7992TIP3    H223920   1.216   3.023   4.223
 7993TIP3   OH223921   0.114   4.828   5.970
 7993TIP3    H123922   0.191   4.772   5.973
 7993TIP3    H223923   0.040   4.768   5.969
 7994TIP3   OH223924   7.648   3.710   5.322
 7994TIP3    H123925   7.646   3.734   5.414
 7994TIP3    H223926   7.739   3.686   5.304
 7995TIP3   OH223927   0.420   1.855   3.756
 7995TIP3    H123928   0.331   1.841   3.725
 7995TIP3    H223929   0.421   1.946   3.786
 7996TIP3   OH223930   6.420   2.628   2.119
 7996TIP3    H123931   6.426   2.557   2.055
 7996TIP3    H223932   6.394   2.584   2.201
 7997TIP3   OH223933   0.529   2.976   4.718
 7997TIP3    H123934   0.535   2.907   4.784
 7997TIP3    H223935   0.540   3.057   4.767
 7998TIP3   OH223936   5.986   1.413   0.959
 7998TIP3    H123937   5.941   1.492   0.930
 7998TIP3    H223938   5.978   1.415   1.055
 7999TIP3   OH223939   0.208   4.039   3.299
 7999TIP3    H123940   0.262   4.010   3.226
 7999TIP3    H223941   0.122   4.057   3.261
 8000TIP3   OH223942   1.722   1.416   4.860
 8000TIP3    H123943   1.755   1.369   4.783
 8000TIP3    H223944   1.800   1.450   4.903
 8001TIP3   OH223945   6.226   5.694   2.697
 8001TIP3    H123946   6.168   5.649   2.635
 8001TIP3    H223947   6.293   5.734   2.642
 8002TIP3   OH223948   8.249   7.112   0.550
 8002TIP3    H123949   8.306   7.103   0.627
 8002TIP3    H223950   8.293   7.060   0.483
 8003TIP3   OH223951   1.835   3.170   0.609
 8003TIP3    H123952   1.755   3.188   0.659
 8003TIP3    H223953   1.831   3.077   0.589
 8004TIP3   OH223954   0.592   1.212   6.667
 8004TIP3    H123955   0.683   1.240   6.680
 8004TIP3    H223956   0.596   1.116   6.667
 8005TIP3   OH223957   6.273   0.523   4.711
 8005TIP3    H123958   6.351   0.571   4.682
 8005TIP3    H223959   6.240   0.481   4.631
 8006TIP3   OH223960   3.222   7.278   5.197
 8006TIP3    H123961   3.284   7.249   5.131
 8006TIP3    H223962   3.261   7.251   5.280
 8007TIP3   OH223963   7.765   1.623   6.100
 8007TIP3    H123964   7.743   1.694   6.161
 8007TIP3    H223965   7.856   1.603   6.118
 8008TIP3   OH223966   1.619   4.585   1.969
 8008TIP3    H123967   1.553   4.532   2.015
 8008TIP3    H223968   1.673   4.521   1.924
 8009TIP3   OH223969   7.067   1.440   6.709
 8009TIP3    H123970   7.144   1.384   6.704
 8009TIP3    H223971   6.993   1.380   6.708
 8010TIP3   OH223972   6.981   3.528   2.653
 8010TIP3    H123973   6.945   3.478   2.579
 8010TIP3    H223974   6.904   3.556   2.703
 8011TIP3   OH223975   4.027   1.305   5.504
 8011TIP3    H123976   4.011   1.216   5.471
 8011TIP3    H223977   4.070   1.349   5.431
 8012TIP3   OH223978   4.845   0.371   6.612
 8012TIP3    H123979   4.842   0.281   6.644
 8012TIP3    H223980   4.934   0.381   6.578
 8013TIP3   OH223981   2.867   7.538   6.267
 8013TIP3    H123982   2.785   7.513   6.311
 8013TIP3    H223983   2.841   7.606   6.205
 8014TIP3   OH223984   3.362   3.250   2.294
 8014TIP3    H123985   3.274   3.212   2.296
 8014TIP3    H223986   3.369   3.290   2.207
 8015TIP3   OH223987   2.352   2.793   3.851
 8015TIP3    H123988   2.326   2.874   3.806
 8015TIP3    H223989   2.357   2.728   3.780
 8016TIP3   OH223990   3.652   4.295   2.716
 8016TIP3    H123991   3.678   4.386   2.730
 8016TIP3    H223992   3.557   4.298   2.711
 8017TIP3   OH223993   7.473   7.248   1.686
 8017TIP3    H123994   7.399   7.280   1.634
 8017TIP3    H223995   7.510   7.326   1.727
 8018TIP3   OH223996   6.042   6.946   3.396
 8018TIP3    H123997   6.093   6.905   3.326
 8018TIP3    H223998   5.953   6.953   3.359
 8019TIP3   OH223999   7.593   4.889   5.557
 8019TIP3    H124000   7.503   4.857   5.567
 8019TIP3    H224001   7.591   4.945   5.480
 8020TIP3   OH224002   1.135   4.418   6.065
 8020TIP3    H124003   1.103   4.487   6.124
 8020TIP3    H224004   1.197   4.367   6.117
 8021TIP3   OH224005   6.007   2.256   4.040
 8021TIP3    H124006   6.014   2.350   4.024
 8021TIP3    H224007   6.097   2.224   4.039
 8022TIP3   OH224008   6.245   5.603   5.253
 8022TIP3    H124009   6.229   5.678   5.196
 8022TIP3    H224010   6.295   5.542   5.199
 8023TIP3   OH224011   1.459   5.117   0.570
 8023TIP3    H124012   1.384   5.166   0.604
 8023TIP3    H224013   1.435   5.025   0.579
 8024TIP3   OH224014   4.083   0.991   0.409
 8024TIP3    H124015   4.088   0.913   0.354
 8024TIP3    H224016   4.036   1.056   0.356
 8025TIP3   OH224017   6.936   5.769   0.126
 8025TIP3    H124018   6.911   5.849   0.172
 8025TIP3    H224019   6.923   5.789   0.033
 8026TIP3   OH224020   2.687   2.095   3.762
 8026TIP3    H124021   2.651   2.039   3.830
 8026TIP3    H224022   2.776   2.116   3.793
 8027TIP3   OH224023   6.333   2.314   4.965
 8027TIP3    H124024   6.264   2.361   4.920
 8027TIP3    H224025   6.387   2.383   5.005
 8028TIP3   OH224026   4.463   4.481   5.055
 8028TIP3    H124027   4.539   4.466   5.112
 8028TIP3    H224028   4.471   4.415   4.987
 8029TIP3   OH224029   0.289   2.083   4.667
 8029TIP3    H124030   0.259   2.163   4.709
 8029TIP3    H224031   0.344   2.040   4.733
 8030TIP3   OH224032   0.844   7.098   2.047
 8030TIP3    H124033   0.780   7.028   2.033
 8030TIP3    H224034   0.792   7.173   2.077
 8031TIP3   OH224035   5.662   6.344   0.700
 8031TIP3    H124036   5.632   6.344   0.791
 8031TIP3    H224037   5.744   6.294   0.702
 8032TIP3   OH224038   8.208   6.231   5.337
 8032TIP3    H124039   8.134   6.172   5.350
 8032TIP3    H224040   8.239   6.212   5.249
 8033TIP3   OH224041   0.050   7.733   2.687
 8033TIP3    H124042   0.066   7.665   2.623
 8033TIP3    H224043   0.135   7.774   2.702
 8034TIP3   OH224044   4.746   3.801   6.329
 8034TIP3    H124045   4.767   3.759   6.245
 8034TIP3    H224046   4.656   3.775   6.346
 8035TIP3   OH224047   1.011   4.272   5.171
 8035TIP3    H124048   0.976   4.253   5.258
 8035TIP3    H224049   0.939   4.317   5.126
 8036TIP3   OH224050   5.989   6.179   4.929
 8036TIP3    H124051   5.964   6.194   4.838
 8036TIP3    H224052   5.908   6.156   4.973
 8037TIP3   OH224053   1.199   5.781   1.848
 8037TIP3    H124054   1.158   5.721   1.910
 8037TIP3    H224055   1.138   5.855   1.843
 8038TIP3   OH224056   5.877   2.123   3.077
 8038TIP3    H124057   5.923   2.101   3.158
 8038TIP3    H224058   5.944   2.115   3.009
 8039TIP3   OH224059   7.253   0.455   5.202
 8039TIP3    H124060   7.175   0.498   5.237
 8039TIP3    H224061   7.314   0.527   5.184
 8040TIP3   OH224062   7.885   4.339   4.792
 8040TIP3    H124063   7.871   4.249   4.821
 8040TIP3    H224064   7.920   4.384   4.869
 8041TIP3   OH224065   2.527   0.126   3.564
 8041TIP3    H124066   2.499   0.036   3.580
 8041TIP3    H224067   2.561   0.155   3.649
 8042TIP3   OH224068   5.019   7.138   1.308
 8042TIP3    H124069   5.044   7.049   1.334
 8042TIP3    H224070   4.928   7.129   1.278
 8043TIP3   OH224071   2.756   6.231   4.359
 8043TIP3    H124072   2.832   6.274   4.318
 8043TIP3    H224073   2.792   6.151   4.397
 8044TIP3   OH224074   2.347   4.420   1.641
 8044TIP3    H124075   2.271   4.478   1.644
 8044TIP3    H224076   2.367   4.411   1.548
 8045TIP3   OH224077   7.442   0.846   0.610
 8045TIP3    H124078   7.414   0.927   0.567
 8045TIP3    H224079   7.526   0.825   0.569
 8046TIP3   OH224080   4.530   2.682   0.144
 8046TIP3    H124081   4.525   2.630   0.064
 8046TIP3    H224082   4.467   2.641   0.203
 8047TIP3   OH224083   6.300   6.700   4.702
 8047TIP3    H124084   6.266   6.665   4.784
 8047TIP3    H224085   6.246   6.658   4.634
 8048TIP3   OH224086   2.250   3.816   4.436
 8048TIP3    H124087   2.212   3.903   4.426
 8048TIP3    H224088   2.221   3.787   4.523
 8049TIP3   OH224089   2.421   2.068   0.394
 8049TIP3    H124090   2.327   2.064   0.382
 8049TIP3    H224091   2.434   2.108   0.480
 8050TIP3   OH224092   1.918   2.660   0.936
 8050TIP3    H124093   1.921   2.728   0.870
 8050TIP3    H224094   1.994   2.678   0.992
 8051TIP3   OH224095   2.798   7.325   5.145
 8051TIP3    H124096   2.784   7.301   5.236
 8051TIP3    H224097   2.869   7.269   5.115
 8052TIP3   OH224098   5.606   5.591   6.416
 8052TIP3    H124099   5.555   5.545   6.349
 8052TIP3    H224100   5.688   5.542   6.421
 8053TIP3   OH224101   0.875   4.597   0.346
 8053TIP3    H124102   0.786   4.633   0.350
 8053TIP3    H224103   0.897   4.598   0.253
 8054TIP3   OH224104   7.671   4.118   3.033
 8054TIP3    H124105   7.712   4.084   3.113
 8054TIP3    H224106   7.651   4.039   2.982
 8055TIP3   OH224107   4.876   1.982   6.108
 8055TIP3    H124108   4.850   1.987   6.016
 8055TIP3    H224109   4.932   2.059   6.121
 8056TIP3   OH224110   6.255   3.741   3.864
 8056TIP3    H124111   6.304   3.658   3.859
 8056TIP3    H224112   6.278   3.787   3.784
 8057TIP3   OH224113   4.619   3.109   3.729
 8057TIP3    H124114   4.687   3.176   3.726
 8057TIP3    H224115   4.630   3.061   3.647
 8058TIP3   OH224116   5.725   4.238   4.210
 8058TIP3    H124117   5.637   4.239   4.171
 8058TIP3    H224118   5.730   4.154   4.255
 8059TIP3   OH224119   2.428   1.235   0.613
 8059TIP3    H124120   2.393   1.228   0.701
 8059TIP3    H224121   2.461   1.325   0.608
 8060TIP3   OH224122   6.825   2.760   6.525
 8060TIP3    H124123   6.747   2.705   6.530
 8060TIP3    H224124   6.796   2.841   6.484
 8061TIP3   OH224125   1.791   7.553   3.232
 8061TIP3    H124126   1.862   7.566   3.294
 8061TIP3    H224127   1.777   7.639   3.193
 8062TIP3   OH224128   6.000   6.315   3.075
 8062TIP3    H124129   6.071   6.283   3.019
 8062TIP3    H224130   5.992   6.248   3.143
 8063TIP3   OH224131   3.202   0.282   4.634
 8063TIP3    H124132   3.273   0.259   4.573
 8063TIP3    H224133   3.125   0.238   4.597
 8064TIP3   OH224134   2.755   4.782   2.231
 8064TIP3    H124135   2.661   4.764   2.233
 8064TIP3    H224136   2.769   4.825   2.146
 8065TIP3   OH224137   5.703   4.577   3.624
 8065TIP3    H124138   5.747   4.563   3.540
 8065TIP3    H224139   5.616   4.537   3.612
 8066TIP3   OH224140   3.653   3.179   5.445
 8066TIP3    H124141   3.664   3.209   5.535
 8066TIP3    H224142   3.604   3.250   5.402
 8067TIP3   OH224143   6.186   1.602   0.973
 8067TIP3    H124144   6.120   1.656   1.018
 8067TIP3    H224145   6.134   1.540   0.921
 8068TIP3   OH224146   7.240   0.586   3.169
 8068TIP3    H124147   7.235   0.572   3.264
 8068TIP3    H224148   7.231   0.680   3.158
 8069TIP3   OH224149   5.230   2.160   4.801
 8069TIP3    H124150   5.234   2.125   4.713
 8069TIP3    H224151   5.316   2.139   4.839
 8070TIP3   OH224152   8.171   3.699   3.265
 8070TIP3    H124153   8.203   3.664   3.181
 8070TIP3    H224154   8.091   3.649   3.282
 8071TIP3   OH224155   0.984   2.988   4.962
 8071TIP3    H124156   1.035   3.068   4.953
 8071TIP3    H224157   0.910   3.000   4.903
 8072TIP3   OH224158   0.408   3.755   5.656
 8072TIP3    H124159   0.369   3.679   5.612
 8072TIP3    H224160   0.388   3.828   5.597
 8073TIP3   OH224161   1.571   3.247   1.659
 8073TIP3    H124162   1.664   3.266   1.673
 8073TIP3    H224163   1.553   3.281   1.572
 8074TIP3   OH224164   7.260   5.683   6.370
 8074TIP3    H124165   7.248   5.750   6.437
 8074TIP3    H224166   7.347   5.647   6.387
 8075TIP3   OH224167   5.587   6.903   2.277
 8075TIP3    H124168   5.549   6.874   2.194
 8075TIP3    H224169   5.552   6.991   2.289
 8076TIP3   OH224170   0.693   6.855   2.049
 8076TIP3    H124171   0.607   6.889   2.076
 8076TIP3    H224172   0.672   6.783   1.989
 8077TIP3   OH224173   5.525   3.580   0.313
 8077TIP3    H124174   5.526   3.534   0.229
 8077TIP3    H224175   5.527   3.511   0.379
 8078TIP3   OH224176   3.115   1.280   2.437
 8078TIP3    H124177   3.071   1.327   2.508
 8078TIP3    H224178   3.090   1.189   2.449
 8079TIP3   OH224179   8.137   4.419   1.178
 8079TIP3    H124180   8.084   4.340   1.183
 8079TIP3    H224181   8.153   4.443   1.269
 8080TIP3   OH224182   5.312   3.734   0.727
 8080TIP3    H124183   5.305   3.780   0.644
 8080TIP3    H224184   5.245   3.774   0.783
 8081TIP3   OH224185   5.489   1.941   1.485
 8081TIP3    H124186   5.568   1.995   1.480
 8081TIP3    H224187   5.487   1.911   1.576
 8082TIP3   OH224188   8.235   1.856   0.386
 8082TIP3    H124189   8.178   1.933   0.384
 8082TIP3    H224190   8.277   1.855   0.300
 8083TIP3   OH224191   1.816   3.081  -0.016
 8083TIP3    H124192   1.736   3.074  -0.068
 8083TIP3    H224193   1.810   3.011   0.048
 8084TIP3   OH224194   8.323   3.575   0.655
 8084TIP3    H124195   8.363   3.513   0.715
 8084TIP3    H224196   8.229   3.556   0.659
 8085TIP3   OH224197   0.816   7.436   6.156
 8085TIP3    H124198   0.846   7.527   6.151
 8085TIP3    H224199   0.754   7.427   6.084
 8086TIP3   OH224200   5.438   7.170   4.691
 8086TIP3    H124201   5.405   7.140   4.776
 8086TIP3    H224202   5.492   7.246   4.713
 8087TIP3   OH224203   7.649   4.789   4.426
 8087TIP3    H124204   7.714   4.747   4.482
 8087TIP3    H224205   7.565   4.752   4.456
 8088TIP3   OH224206   7.832   7.448   6.212
 8088TIP3    H124207   7.909   7.462   6.157
 8088TIP3    H224208   7.777   7.524   6.196
 8089TIP3   OH224209   6.474   5.712   6.062
 8089TIP3    H124210   6.423   5.708   5.982
 8089TIP3    H224211   6.421   5.665   6.127
 8090TIP3   OH224212   1.545   5.910   5.222
 8090TIP3    H124213   1.583   5.948   5.143
 8090TIP3    H224214   1.537   5.816   5.202
 8091TIP3   OH224215   0.169   4.307   1.924
 8091TIP3    H124216   0.127   4.296   1.839
 8091TIP3    H224217   0.139   4.231   1.975
 8092TIP3   OH224218   7.084   2.800   6.246
 8092TIP3    H124219   7.033   2.719   6.237
 8092TIP3    H224220   7.175   2.771   6.238
 8093TIP3   OH224221   7.305   3.045   6.749
 8093TIP3    H124222   7.298   3.081   6.661
 8093TIP3    H224223   7.256   2.963   6.746
 8094TIP3   OH224224   6.926   3.782   0.192
 8094TIP3    H124225   6.956   3.738   0.112
 8094TIP3    H224226   6.843   3.821   0.168
 8095TIP3   OH224227   4.359   6.586   4.391
 8095TIP3    H124228   4.318   6.515   4.439
 8095TIP3    H224229   4.451   6.560   4.382
 8096TIP3   OH224230   7.142   0.835   3.095
 8096TIP3    H124231   7.182   0.804   3.013
 8096TIP3    H224232   7.195   0.911   3.120
 8097TIP3   OH224233   7.024   0.640   0.410
 8097TIP3    H124234   7.063   0.553   0.405
 8097TIP3    H224235   6.951   0.637   0.348
 8098TIP3   OH224236   5.476   6.636   5.722
 8098TIP3    H124237   5.439   6.724   5.732
 8098TIP3    H224238   5.400   6.578   5.733
 8099TIP3   OH224239   0.964   4.274   2.142
 8099TIP3    H124240   0.913   4.343   2.185
 8099TIP3    H224241   0.908   4.196   2.148
 8100TIP3   OH224242   3.409   0.666   2.427
 8100TIP3    H124243   3.356   0.746   2.429
 8100TIP3    H224244   3.421   0.642   2.520
 8101TIP3   OH224245   6.504   3.471   0.577
 8101TIP3    H124246   6.542   3.534   0.515
 8101TIP3    H224247   6.413   3.462   0.549
 8102TIP3   OH224248   3.177   4.656   4.701
 8102TIP3    H124249   3.224   4.653   4.784
 8102TIP3    H224250   3.129   4.573   4.698
 8103TIP3   OH224251   7.944   3.178   6.581
 8103TIP3    H124252   7.862   3.135   6.556
 8103TIP3    H224253   8.010   3.109   6.574
 8104TIP3   OH224254   6.511   5.157   5.185
 8104TIP3    H124255   6.504   5.252   5.191
 8104TIP3    H224256   6.534   5.129   5.273
 8105TIP3   OH224257   2.840   6.291   3.493
 8105TIP3    H124258   2.871   6.343   3.418
 8105TIP3    H224259   2.746   6.311   3.497
 8106TIP3   OH224260   1.608   7.442   5.954
 8106TIP3    H124261   1.562   7.417   6.034
 8106TIP3    H224262   1.588   7.535   5.943
 8107TIP3   OH224263   7.876   2.538   3.588
 8107TIP3    H124264   7.812   2.576   3.647
 8107TIP3    H224265   7.900   2.609   3.529
 8108TIP3   OH224266   6.211   1.968   6.606
 8108TIP3    H124267   6.209   2.033   6.537
 8108TIP3    H224268   6.298   1.977   6.645
 8109TIP3   OH224269   0.632   1.066   5.960
 8109TIP3    H124270   0.548   1.039   5.998
 8109TIP3    H224271   0.666   1.131   6.021
 8110TIP3   OH224272   4.750   1.723   1.811
 8110TIP3    H124273   4.751   1.646   1.868
 8110TIP3    H224274   4.787   1.793   1.865
 8111TIP3   OH224275   5.908   3.483   1.205
 8111TIP3    H124276   5.922   3.569   1.246
 8111TIP3    H224277   5.974   3.427   1.245
 8112TIP3   OH224278   0.530   2.977   3.519
 8112TIP3    H124279   0.553   2.918   3.448
 8112TIP3    H224280   0.613   3.005   3.556
 8113TIP3   OH224281   7.178   0.376   5.502
 8113TIP3    H124282   7.265   0.390   5.464
 8113TIP3    H224283   7.124   0.444   5.462
 8114TIP3   OH224284   5.713   0.586   1.623
 8114TIP3    H124285   5.772   0.607   1.696
 8114TIP3    H224286   5.760   0.518   1.573
 8115TIP3   OH224287   8.219   4.639   4.749
 8115TIP3    H124288   8.211   4.708   4.683
 8115TIP3    H224289   8.256   4.565   4.703
 8116TIP3   OH224290   5.863   6.495   4.373
 8116TIP3    H124291   5.919   6.478   4.297
 8116TIP3    H224292   5.813   6.415   4.385
 8117TIP3   OH224293   7.600   7.728   0.517
 8117TIP3    H124294   7.656   7.804   0.502
 8117TIP3    H224295   7.658   7.662   0.553
 8118TIP3   OH224296   0.950   1.819   2.034
 8118TIP3    H124297   1.011   1.752   2.067
 8118TIP3    H224298   0.996   1.902   2.047
 8119TIP3   OH224299   4.558   7.150   1.515
 8119TIP3    H124300   4.499   7.117   1.583
 8119TIP3    H224301   4.583   7.237   1.545
 8120TIP3   OH224302   2.321   0.417   5.238
 8120TIP3    H124303   2.278   0.503   5.244
 8120TIP3    H224304   2.275   0.363   5.302
 8121TIP3   OH224305   4.360   3.472   3.458
 8121TIP3    H124306   4.368   3.561   3.426
 8121TIP3    H224307   4.324   3.481   3.546
 8122TIP3   OH224308   5.539   2.169   3.821
 8122TIP3    H124309   5.445   2.156   3.807
 8122TIP3    H224310   5.561   2.109   3.893
 8123TIP3   OH224311   6.735   6.032   2.269
 8123TIP3    H124312   6.809   5.971   2.277
 8123TIP3    H224313   6.767   6.113   2.308
 8124TIP3   OH224314   2.971   4.944   6.363
 8124TIP3    H124315   3.062   4.948   6.332
 8124TIP3    H224316   2.924   4.900   6.293
 8125TIP3   OH224317   4.411   7.518   2.185
 8125TIP3    H124318   4.455   7.451   2.134
 8125TIP3    H224319   4.379   7.472   2.263
 8126TIP3   OH224320   5.526   0.758   2.127
 8126TIP3    H124321   5.614   0.720   2.127
 8126TIP3    H224322   5.540   0.853   2.133
 8127TIP3   OH224323   6.853   3.305   5.753
 8127TIP3    H124324   6.760   3.314   5.735
 8127TIP3    H224325   6.878   3.388   5.794
 8128TIP3   OH224326   0.564   0.092   3.667
 8128TIP3    H124327   0.526   0.008   3.641
 8128TIP3    H224328   0.573   0.141   3.586
 8129TIP3   OH224329   6.892   4.912   4.993
 8129TIP3    H124330   6.983   4.900   4.965
 8129TIP3    H224331   6.896   4.909   5.088
 8130TIP3   OH224332   2.148   5.297   1.396
 8130TIP3    H124333   2.070   5.295   1.451
 8130TIP3    H224334   2.185   5.208   1.404
 8131TIP3   OH224335   1.865   7.394   2.223
 8131TIP3    H124336   1.887   7.339   2.148
 8131TIP3    H224337   1.774   7.372   2.243
 8132TIP3   OH224338   4.323   3.211   1.549
 8132TIP3    H124339   4.305   3.244   1.460
 8132TIP3    H224340   4.415   3.231   1.564
 8133TIP3   OH224341   8.042   1.325   6.573
 8133TIP3    H124342   7.964   1.349   6.524
 8133TIP3    H224343   8.105   1.297   6.506
 8134TIP3   OH224344   2.646   7.035   2.241
 8134TIP3    H124345   2.602   7.012   2.323
 8134TIP3    H224346   2.662   7.129   2.248
 8135TIP3   OH224347   1.434   3.652   4.524
 8135TIP3    H124348   1.526   3.629   4.510
 8135TIP3    H224349   1.387   3.610   4.453
 8136TIP3   OH224350   6.317   2.947   1.307
 8136TIP3    H124351   6.252   2.900   1.361
 8136TIP3    H224352   6.300   2.916   1.218
 8137TIP3   OH224353   0.768   3.583   5.377
 8137TIP3    H124354   0.797   3.573   5.286
 8137TIP3    H224355   0.683   3.628   5.370
 8138TIP3   OH224356   3.166   6.583   1.815
 8138TIP3    H124357   3.172   6.488   1.808
 8138TIP3    H224358   3.093   6.607   1.758
 8139TIP3   OH224359   2.666   6.024   5.814
 8139TIP3    H124360   2.611   6.057   5.885
 8139TIP3    H224361   2.709   5.946   5.851
 8140TIP3   OH224362   5.581   4.165   5.943
 8140TIP3    H124363   5.647   4.110   5.984
 8140TIP3    H224364   5.498   4.134   5.979
 8141TIP3   OH224365   5.052   0.414   0.318
 8141TIP3    H124366   4.968   0.398   0.360
 8141TIP3    H224367   5.034   0.407   0.224
 8142TIP3   OH224368   1.358   5.875   6.351
 8142TIP3    H124369   1.360   5.795   6.298
 8142TIP3    H224370   1.442   5.876   6.396
 8143TIP3   OH224371   7.981   7.583   6.444
 8143TIP3    H124372   7.961   7.507   6.390
 8143TIP3    H224373   7.992   7.654   6.381
 8144TIP3   OH224374   1.855   0.902   0.687
 8144TIP3    H124375   1.897   0.898   0.601
 8144TIP3    H224376   1.929   0.907   0.749
 8145TIP3   OH224377   6.830   6.335   1.387
 8145TIP3    H124378   6.918   6.337   1.425
 8145TIP3    H224379   6.790   6.418   1.414
 8146TIP3   OH224380   3.225   1.330   0.579
 8146TIP3    H124381   3.141   1.316   0.623
 8146TIP3    H224382   3.239   1.250   0.530
 8147TIP3   OH224383   6.946   5.301   3.196
 8147TIP3    H124384   7.013   5.259   3.143
 8147TIP3    H224385   6.932   5.241   3.269
 8148TIP3   OH224386   3.211   3.336   1.588
 8148TIP3    H124387   3.143   3.379   1.536
 8148TIP3    H224388   3.246   3.268   1.530
 8149TIP3   OH224389   5.673   3.002   0.425
 8149TIP3    H124390   5.736   3.060   0.382
 8149TIP3    H224391   5.616   2.971   0.354
 8150TIP3   OH224392   4.869   7.453   6.728
 8150TIP3    H124393   4.895   7.368   6.692
 8150TIP3    H224394   4.814   7.431   6.804
 8151TIP3   OH224395   3.161   6.963   4.855
 8151TIP3    H124396   3.145   7.057   4.850
 8151TIP3    H224397   3.087   6.924   4.808
 8152TIP3   OH224398   6.180   5.083   3.590
 8152TIP3    H124399   6.236   5.012   3.559
 8152TIP3    H224400   6.229   5.122   3.663
 8153TIP3   OH224401   6.718   1.190   0.695
 8153TIP3    H124402   6.721   1.154   0.784
 8153TIP3    H224403   6.791   1.251   0.691
 8154TIP3   OH224404   1.154   6.857   4.238
 8154TIP3    H124405   1.153   6.952   4.252
 8154TIP3    H224406   1.082   6.841   4.177
 8155TIP3   OH224407   7.125   4.025   2.938
 8155TIP3    H124408   7.202   4.026   2.994
 8155TIP3    H224409   7.101   3.932   2.933
 8156TIP3   OH224410   4.866   0.886   1.433
 8156TIP3    H124411   4.897   0.977   1.436
 8156TIP3    H224412   4.845   0.871   1.341
 8157TIP3   OH224413   1.232   5.989   3.256
 8157TIP3    H124414   1.146   6.026   3.277
 8157TIP3    H224415   1.215   5.896   3.240
 8158TIP3   OH224416   5.517   6.875   0.601
 8158TIP3    H124417   5.503   6.803   0.540
 8158TIP3    H224418   5.510   6.954   0.547
 8159TIP3   OH224419   2.593   7.676   0.180
 8159TIP3    H124420   2.524   7.721   0.131
 8159TIP3    H224421   2.547   7.613   0.235
 8160TIP3   OH224422   4.434   0.622   5.405
 8160TIP3    H124423   4.431   0.664   5.319
 8160TIP3    H224424   4.464   0.533   5.387
 8161TIP3   OH224425   2.863   2.163   5.192
 8161TIP3    H124426   2.791   2.210   5.151
 8161TIP3    H224427   2.937   2.223   5.186
 8162TIP3   OH224428   1.911   4.661   4.846
 8162TIP3    H124429   1.856   4.692   4.918
 8162TIP3    H224430   1.897   4.567   4.844
 8163TIP3   OH224431   1.879   1.777   6.784
 8163TIP3    H124432   1.845   1.862   6.814
 8163TIP3    H224433   1.867   1.779   6.689
 8164TIP3   OH224434   2.567   6.449   5.235
 8164TIP3    H124435   2.614   6.377   5.193
 8164TIP3    H224436   2.540   6.506   5.163
 8165TIP3   OH224437   0.188   6.782   2.989
 8165TIP3    H124438   0.223   6.867   3.018
 8165TIP3    H224439   0.265   6.731   2.964
 8166TIP3   OH224440   1.202   2.218   4.109
 8166TIP3    H124441   1.265   2.170   4.162
 8166TIP3    H224442   1.245   2.228   4.024
 8167TIP3   OH224443   1.863   3.162   6.100
 8167TIP3    H124444   1.893   3.138   6.013
 8167TIP3    H224445   1.937   3.143   6.157
 8168TIP3   OH224446   4.997   4.027   1.143
 8168TIP3    H124447   5.075   3.974   1.129
 8168TIP3    H224448   5.017   4.111   1.102
 8169TIP3   OH224449   1.751   4.119   0.177
 8169TIP3    H124450   1.740   4.205   0.218
 8169TIP3    H224451   1.828   4.081   0.219
 8170TIP3   OH224452   2.978   7.273   0.399
 8170TIP3    H124453   3.017   7.189   0.375
 8170TIP3    H224454   3.053   7.330   0.418
 8171TIP3   OH224455   2.183   3.969   5.631
 8171TIP3    H124456   2.198   4.060   5.605
 8171TIP3    H224457   2.168   3.973   5.725
 8172TIP3   OH224458   1.081   4.658   0.014
 8172TIP3    H124459   1.083   4.577   0.064
 8172TIP3    H224460   1.006   4.650  -0.044
 8173TIP3   OH224461   7.708   5.528   6.547
 8173TIP3    H124462   7.724   5.531   6.642
 8173TIP3    H224463   7.624   5.484   6.538
 8174TIP3   OH224464   7.059   3.195   5.094
 8174TIP3    H124465   7.078   3.226   5.182
 8174TIP3    H224466   7.115   3.249   5.038
 8175TIP3   OH224467   7.047   0.288   4.234
 8175TIP3    H124468   7.130   0.303   4.278
 8175TIP3    H224469   6.989   0.357   4.266
 8176TIP3   OH224470   5.107   6.502   4.352
 8176TIP3    H124471   5.159   6.431   4.389
 8176TIP3    H224472   5.017   6.482   4.378
 8177TIP3   OH224473   3.920   5.051   5.463
 8177TIP3    H124474   4.015   5.038   5.464
 8177TIP3    H224475   3.885   4.970   5.500
 8178TIP3   OH224476   6.140   7.239   5.564
 8178TIP3    H124477   6.100   7.184   5.497
 8178TIP3    H224478   6.232   7.248   5.537
 8179TIP3   OH224479   2.171   5.630   3.442
 8179TIP3    H124480   2.147   5.540   3.466
 8179TIP3    H224481   2.247   5.620   3.385
 8180TIP3   OH224482   0.698   4.314   5.247
 8180TIP3    H124483   0.700   4.289   5.155
 8180TIP3    H224484   0.639   4.252   5.288
 8181TIP3   OH224485   2.833   5.829   4.104
 8181TIP3    H124486   2.842   5.919   4.071
 8181TIP3    H224487   2.833   5.775   4.024
 8182TIP3   OH224488   3.270   1.573   0.887
 8182TIP3    H124489   3.265   1.478   0.901
 8182TIP3    H224490   3.182   1.597   0.859
 8183TIP3   OH224491   5.852   1.367   0.518
 8183TIP3    H124492   5.810   1.281   0.518
 8183TIP3    H224493   5.945   1.349   0.507
 8184TIP3   OH224494   0.487   1.435   5.191
 8184TIP3    H124495   0.461   1.373   5.123
 8184TIP3    H224496   0.481   1.386   5.273
 8185TIP3   OH224497   4.461   4.940   6.725
 8185TIP3    H124498   4.486   4.996   6.799
 8185TIP3    H224499   4.369   4.960   6.710
 8186TIP3   OH224500   0.055   3.281   3.897
 8186TIP3    H124501   0.020   3.352   3.951
 8186TIP3    H224502   0.044   3.202   3.951
 8187TIP3   OH224503   7.252   2.569   0.877
 8187TIP3    H124504   7.262   2.482   0.839
 8187TIP3    H224505   7.200   2.555   0.956
 8188TIP3   OH224506   4.050   6.355   6.739
 8188TIP3    H124507   4.068   6.267   6.771
 8188TIP3    H224508   3.955   6.365   6.749
 8189TIP3   OH224509   4.528   3.432   2.211
 8189TIP3    H124510   4.436   3.408   2.199
 8189TIP3    H224511   4.527   3.495   2.283
 8190TIP3   OH224512   3.597   7.438   5.083
 8190TIP3    H124513   3.609   7.451   5.177
 8190TIP3    H224514   3.681   7.462   5.044
 8191TIP3   OH224515   8.127   5.742   5.472
 8191TIP3    H124516   8.083   5.674   5.420
 8191TIP3    H224517   8.120   5.710   5.562
 8192TIP3   OH224518   4.880   6.129   5.768
 8192TIP3    H124519   4.845   6.185   5.837
 8192TIP3    H224520   4.975   6.146   5.769
 8193TIP3   OH224521   2.009   0.610   0.803
 8193TIP3    H124522   2.052   0.584   0.721
 8193TIP3    H224523   2.051   0.692   0.827
 8194TIP3   OH224524   7.799   4.397   4.472
 8194TIP3    H124525   7.805   4.492   4.481
 8194TIP3    H224526   7.859   4.363   4.538
 8195TIP3   OH224527   5.727   4.105   3.052
 8195TIP3    H124528   5.738   4.100   3.147
 8195TIP3    H224529   5.683   4.188   3.036
 8196TIP3   OH224530   2.011   1.165   0.892
 8196TIP3    H124531   2.060   1.160   0.810
 8196TIP3    H224532   2.061   1.111   0.953
 8197TIP3   OH224533   3.638   1.236   3.653
 8197TIP3    H124534   3.690   1.161   3.683
 8197TIP3    H224535   3.581   1.257   3.728
 8198TIP3   OH224536   3.057   5.136   4.519
 8198TIP3    H124537   2.975   5.095   4.545
 8198TIP3    H224538   3.036   5.228   4.506
 8199TIP3   OH224539   1.516   6.591   4.895
 8199TIP3    H124540   1.548   6.647   4.966
 8199TIP3    H224541   1.591   6.581   4.837
 8200TIP3   OH224542   4.423   3.467   0.279
 8200TIP3    H124543   4.463   3.554   0.284
 8200TIP3    H224544   4.483   3.415   0.225
 8201TIP3   OH224545   0.852   7.054   0.955
 8201TIP3    H124546   0.787   6.993   0.990
 8201TIP3    H224547   0.892   7.007   0.882
 8202TIP3   OH224548   6.247   2.506   4.207
 8202TIP3    H124549   6.257   2.581   4.265
 8202TIP3    H224550   6.165   2.523   4.160
 8203TIP3   OH224551   2.905   7.687   1.124
 8203TIP3    H124552   2.925   7.597   1.098
 8203TIP3    H224553   2.830   7.680   1.183
 8204TIP3   OH224554   5.224   2.691   4.201
 8204TIP3    H124555   5.275   2.645   4.134
 8204TIP3    H224556   5.220   2.782   4.171
 8205TIP3   OH224557   2.886   3.021   0.391
 8205TIP3    H124558   2.884   2.934   0.431
 8205TIP3    H224559   2.978   3.035   0.369
 8206TIP3   OH224560   5.790   6.440   0.472
 8206TIP3    H124561   5.774   6.404   0.559
 8206TIP3    H224562   5.787   6.535   0.484
 8207TIP3   OH224563   5.560   4.826   3.037
 8207TIP3    H124564   5.582   4.919   3.040
 8207TIP3    H224565   5.640   4.782   3.063
 8208TIP3   OH224566   3.915   3.519   3.061
 8208TIP3    H124567   3.910   3.588   3.126
 8208TIP3    H224568   3.916   3.565   2.977
 8209TIP3   OH224569   0.110   0.063   5.329
 8209TIP3    H124570   0.042   0.078   5.263
 8209TIP3    H224571   0.137  -0.028   5.316
 8210TIP3   OH224572   1.033   2.937   2.672
 8210TIP3    H124573   1.027   2.941   2.577
 8210TIP3    H224574   1.094   3.007   2.695
 8211TIP3   OH224575   4.676   1.211   2.583
 8211TIP3    H124576   4.646   1.294   2.546
 8211TIP3    H224577   4.745   1.181   2.524
 8212TIP3   OH224578   5.044   0.333   5.748
 8212TIP3    H124579   5.013   0.374   5.829
 8212TIP3    H224580   4.974   0.348   5.685
 8213TIP3   OH224581   4.597   0.397   0.569
 8213TIP3    H124582   4.660   0.335   0.606
 8213TIP3    H224583   4.634   0.421   0.484
 8214TIP3   OH224584   4.347   3.006   3.384
 8214TIP3    H124585   4.388   3.092   3.391
 8214TIP3    H224586   4.355   2.968   3.471
 8215TIP3   OH224587   7.648   1.503   3.000
 8215TIP3    H124588   7.598   1.421   2.999
 8215TIP3    H224589   7.591   1.565   3.045
 8216TIP3   OH224590   0.335   2.749   2.886
 8216TIP3    H124591   0.245   2.727   2.861
 8216TIP3    H224592   0.388   2.716   2.814
 8217TIP3   OH224593   4.391   7.200  -0.018
 8217TIP3    H124594   4.349   7.276   0.022
 8217TIP3    H224595   4.341   7.184  -0.099
 8218TIP3   OH224596   1.688   1.053   1.641
 8218TIP3    H124597   1.612   1.078   1.694
 8218TIP3    H224598   1.752   1.123   1.656
 8219TIP3   OH224599   4.851   2.786   0.021
 8219TIP3    H124600   4.922   2.724   0.000
 8219TIP3    H224601   4.785   2.770  -0.046
 8220TIP3   OH224602   4.347   6.623   4.941
 8220TIP3    H124603   4.372   6.572   4.864
 8220TIP3    H224604   4.272   6.675   4.912
 8221TIP3   OH224605   7.613   4.895   3.856
 8221TIP3    H124606   7.701   4.913   3.888
 8221TIP3    H224607   7.593   4.966   3.796
 8222TIP3   OH224608   0.422   2.705   5.159
 8222TIP3    H124609   0.376   2.789   5.159
 8222TIP3    H224610   0.376   2.652   5.093
 8223TIP3   OH224611   5.872   5.795   5.735
 8223TIP3    H124612   5.881   5.880   5.779
 8223TIP3    H224613   5.861   5.817   5.642
 8224TIP3   OH224614   7.856   3.016   5.700
 8224TIP3    H124615   7.860   3.110   5.712
 8224TIP3    H224616   7.924   2.996   5.636
 8225TIP3   OH224617   5.047   4.743   2.500
 8225TIP3    H124618   5.045   4.649   2.484
 8225TIP3    H224619   5.020   4.752   2.592
 8226TIP3   OH224620   1.488   2.369   1.344
 8226TIP3    H124621   1.533   2.329   1.269
 8226TIP3    H224622   1.461   2.455   1.313
 8227TIP3   OH224623   3.026   7.004   2.953
 8227TIP3    H124624   3.032   6.955   2.872
 8227TIP3    H224625   3.018   7.096   2.926
 8228TIP3   OH224626   4.688   3.631   5.424
 8228TIP3    H124627   4.769   3.615   5.473
 8228TIP3    H224628   4.639   3.549   5.431
 8229TIP3   OH224629   7.397   2.142   1.594
 8229TIP3    H124630   7.348   2.072   1.637
 8229TIP3    H224631   7.411   2.110   1.505
 8230TIP3   OH224632   4.037   3.316   1.137
 8230TIP3    H124633   4.038   3.404   1.174
 8230TIP3    H224634   4.055   3.258   1.211
 8231TIP3   OH224635   5.989   3.736   0.332
 8231TIP3    H124636   6.044   3.672   0.286
 8231TIP3    H224637   5.900   3.703   0.323
 8232TIP3   OH224638   4.029   0.415   1.938
 8232TIP3    H124639   3.992   0.477   1.876
 8232TIP3    H224640   4.000   0.446   2.024
 8233TIP3   OH224641   3.717   7.501   5.942
 8233TIP3    H124642   3.702   7.534   6.031
 8233TIP3    H224643   3.633   7.462   5.916
 8234TIP3   OH224644   4.182   3.099   4.026
 8234TIP3    H124645   4.116   3.161   3.995
 8234TIP3    H224646   4.209   3.051   3.947
 8235TIP3   OH224647   5.283   5.621   0.758
 8235TIP3    H124648   5.278   5.715   0.777
 8235TIP3    H224649   5.376   5.600   0.762
 8236TIP3   OH224650   3.654   1.680   5.025
 8236TIP3    H124651   3.632   1.588   5.013
 8236TIP3    H224652   3.711   1.682   5.101
 8237TIP3   OH224653   8.126   3.760   4.709
 8237TIP3    H124654   8.099   3.769   4.618
 8237TIP3    H224655   8.162   3.672   4.716
 8238TIP3   OH224656   4.717   6.676   5.426
 8238TIP3    H124657   4.662   6.735   5.375
 8238TIP3    H224658   4.734   6.602   5.367
 8239TIP3   OH224659   2.377   7.048   5.198
 8239TIP3    H124660   2.406   7.086   5.115
 8239TIP3    H224661   2.281   7.047   5.192
 8240TIP3   OH224662   4.666   6.048   0.801
 8240TIP3    H124663   4.674   6.028   0.708
 8240TIP3    H224664   4.744   6.011   0.841
 8241TIP3   OH224665   2.205   3.042   1.632
 8241TIP3    H124666   2.147   3.000   1.696
 8241TIP3    H224667   2.148   3.067   1.560
 8242TIP3   OH224668   6.084   0.591   0.787
 8242TIP3    H124669   6.067   0.669   0.840
 8242TIP3    H224670   6.135   0.534   0.845
 8243TIP3   OH224671   3.900   6.363   4.880
 8243TIP3    H124672   3.918   6.321   4.964
 8243TIP3    H224673   3.863   6.448   4.903
 8244TIP3   OH224674   0.526   2.035   6.051
 8244TIP3    H124675   0.513   1.989   6.133
 8244TIP3    H224676   0.438   2.046   6.015
 8245TIP3   OH224677   3.913   1.737   5.638
 8245TIP3    H124678   3.839   1.770   5.587
 8245TIP3    H224679   3.989   1.783   5.602
 8246TIP3   OH224680   3.687   3.349   1.646
 8246TIP3    H124681   3.694   3.438   1.612
 8246TIP3    H224682   3.778   3.317   1.646
 8247TIP3   OH224683   5.025   0.897   0.342
 8247TIP3    H124684   4.934   0.885   0.368
 8247TIP3    H224685   5.074   0.835   0.396
 8248TIP3   OH224686   3.053   5.698   6.191
 8248TIP3    H124687   2.978   5.726   6.139
 8248TIP3    H224688   3.129   5.731   6.144
 8249TIP3   OH224689   2.592   7.231   6.271
 8249TIP3    H124690   2.611   7.139   6.251
 8249TIP3    H224691   2.574   7.231   6.365
 8250TIP3   OH224692   6.965   5.898   2.370
 8250TIP3    H124693   6.985   5.983   2.409
 8250TIP3    H224694   7.045   5.847   2.383
 8251TIP3   OH224695   4.148   2.421   1.411
 8251TIP3    H124696   4.150   2.328   1.435
 8251TIP3    H224697   4.112   2.465   1.487
 8252TIP3   OH224698   3.921   7.218   3.728
 8252TIP3    H124699   3.962   7.197   3.812
 8252TIP3    H224700   3.839   7.262   3.752
 8253TIP3   OH224701   0.511   4.870   2.416
 8253TIP3    H124702   0.436   4.926   2.436
 8253TIP3    H224703   0.474   4.782   2.410
 8254TIP3   OH224704   4.733   1.391   0.397
 8254TIP3    H124705   4.795   1.404   0.469
 8254TIP3    H224706   4.651   1.369   0.441
 8255TIP3   OH224707   8.205   4.618   0.900
 8255TIP3    H124708   8.186   4.527   0.878
 8255TIP3    H224709   8.185   4.666   0.820
 8256TIP3   OH224710   5.808   2.406   0.722
 8256TIP3    H124711   5.777   2.335   0.779
 8256TIP3    H224712   5.881   2.367   0.674
 8257TIP3   OH224713   7.781   1.232   2.690
 8257TIP3    H124714   7.722   1.294   2.648
 8257TIP3    H224715   7.863   1.280   2.702
 8258TIP3   OH224716   8.282   5.836   3.111
 8258TIP3    H124717   8.275   5.773   3.039
 8258TIP3    H224718   8.222   5.906   3.087
 8259TIP3   OH224719   2.837   0.997   6.186
 8259TIP3    H124720   2.829   1.023   6.095
 8259TIP3    H224721   2.903   1.055   6.223
 8260TIP3   OH224722   1.125   4.687   5.755
 8260TIP3    H124723   1.114   4.597   5.785
 8260TIP3    H224724   1.038   4.725   5.760
 8261TIP3   OH224725   6.593   6.066   5.568
 8261TIP3    H124726   6.499   6.087   5.568
 8261TIP3    H224727   6.617   6.066   5.475
 8262TIP3   OH224728   7.339   2.526   3.311
 8262TIP3    H124729   7.399   2.455   3.332
 8262TIP3    H224730   7.279   2.489   3.245
 8263TIP3   OH224731   1.992   4.975   1.469
 8263TIP3    H124732   1.975   4.982   1.376
 8263TIP3    H224733   2.085   4.993   1.479
 8264TIP3   OH224734   1.774   2.511   0.604
 8264TIP3    H124735   1.712   2.446   0.571
 8264TIP3    H224736   1.795   2.565   0.528
 8265TIP3   OH224737   7.325   1.036   6.419
 8265TIP3    H124738   7.304   0.944   6.437
 8265TIP3    H224739   7.258   1.085   6.466
 8266TIP3   OH224740   1.811   6.452   3.684
 8266TIP3    H124741   1.837   6.541   3.708
 8266TIP3    H224742   1.763   6.419   3.760
 8267TIP3   OH224743   2.992   0.640   3.085
 8267TIP3    H124744   3.009   0.548   3.103
 8267TIP3    H224745   2.904   0.641   3.048
 8268TIP3   OH224746   5.526   4.315   0.403
 8268TIP3    H124747   5.567   4.246   0.455
 8268TIP3    H224748   5.571   4.312   0.319
 8269TIP3   OH224749   0.093   0.563   6.351
 8269TIP3    H124750   0.059   0.614   6.424
 8269TIP3    H224751   0.023   0.500   6.332
 8270TIP3   OH224752   7.212   1.945   0.580
 8270TIP3    H124753   7.263   2.010   0.628
 8270TIP3    H224754   7.128   1.988   0.563
 8271TIP3   OH224755   5.719   2.212   4.112
 8271TIP3    H124756   5.802   2.234   4.068
 8271TIP3    H224757   5.689   2.296   4.147
 8272TIP3   OH224758   5.922   0.992   6.538
 8272TIP3    H124759   5.949   0.907   6.503
 8272TIP3    H224760   5.854   0.971   6.602
 8273TIP3   OH224761   7.590   6.833  -0.022
 8273TIP3    H124762   7.625   6.903  -0.076
 8273TIP3    H224763   7.609   6.859   0.068
 8274TIP3   OH224764   5.768   1.317   2.947
 8274TIP3    H124765   5.697   1.380   2.936
 8274TIP3    H224766   5.811   1.344   3.028
 8275TIP3   OH224767   8.127   3.350   6.462
 8275TIP3    H124768   8.114   3.435   6.504
 8275TIP3    H224769   8.064   3.292   6.504
 8276TIP3   OH224770   3.991   7.639   5.832
 8276TIP3    H124771   3.925   7.580   5.869
 8276TIP3    H224772   4.063   7.638   5.894
 8277TIP3   OH224773   8.318   4.557   6.324
 8277TIP3    H124774   8.274   4.489   6.374
 8277TIP3    H224775   8.256   4.580   6.255
 8278TIP3   OH224776   3.641   6.029   3.487
 8278TIP3    H124777   3.638   6.066   3.576
 8278TIP3    H224778   3.720   6.065   3.449
 8279TIP3   OH224779   4.624   4.120   4.033
 8279TIP3    H124780   4.564   4.165   3.973
 8279TIP3    H224781   4.612   4.163   4.117
 8280TIP3   OH224782   7.427   4.707   3.414
 8280TIP3    H124783   7.446   4.616   3.435
 8280TIP3    H224784   7.462   4.720   3.326
 8281TIP3   OH224785   1.128   4.748   4.171
 8281TIP3    H124786   1.163   4.665   4.202
 8281TIP3    H224787   1.054   4.766   4.230
 8282TIP3   OH224788   2.366   0.307   5.668
 8282TIP3    H124789   2.350   0.402   5.672
 8282TIP3    H224790   2.279   0.268   5.678
 8283TIP3   OH224791   4.183   6.186   0.613
 8283TIP3    H124792   4.180   6.236   0.695
 8283TIP3    H224793   4.270   6.202   0.578
 8284TIP3   OH224794   7.210   4.788   0.375
 8284TIP3    H124795   7.301   4.759   0.388
 8284TIP3    H224796   7.217   4.864   0.318
 8285TIP3   OH224797   1.234   7.437   3.878
 8285TIP3    H124798   1.215   7.401   3.791
 8285TIP3    H224799   1.219   7.364   3.938
 8286TIP3   OH224800   4.187   2.327   0.427
 8286TIP3    H124801   4.163   2.234   0.428
 8286TIP3    H224802   4.139   2.364   0.501
 8287TIP3   OH224803   0.331   6.698   4.426
 8287TIP3    H124804   0.367   6.715   4.339
 8287TIP3    H224805   0.366   6.769   4.481
 8288TIP3   OH224806   1.175   3.819   0.513
 8288TIP3    H124807   1.209   3.795   0.427
 8288TIP3    H224808   1.240   3.786   0.575
 8289TIP3   OH224809   0.637   1.894   5.797
 8289TIP3    H124810   0.613   1.940   5.877
 8289TIP3    H224811   0.558   1.846   5.773
 8290TIP3   OH224812   0.776   3.216   5.075
 8290TIP3    H124813   0.701   3.265   5.110
 8290TIP3    H224814   0.805   3.267   5.000
 8291TIP3   OH224815   2.534   6.621   2.661
 8291TIP3    H124816   2.474   6.690   2.632
 8291TIP3    H224817   2.585   6.600   2.582
 8292TIP3   OH224818   2.578   0.207   4.817
 8292TIP3    H124819   2.537   0.122   4.807
 8292TIP3    H224820   2.514   0.260   4.864
 8293TIP3   OH224821   5.310   6.992   3.487
 8293TIP3    H124822   5.346   7.057   3.547
 8293TIP3    H224823   5.217   6.989   3.508
 8294TIP3   OH224824   1.379   3.952   1.170
 8294TIP3    H124825   1.327   3.996   1.102
 8294TIP3    H224826   1.364   3.859   1.154
 8295TIP3   OH224827   0.348   7.612   0.155
 8295TIP3    H124828   0.401   7.679   0.199
 8295TIP3    H224829   0.287   7.582   0.221
 8296TIP3   OH224830   0.469   2.262   3.570
 8296TIP3    H124831   0.561   2.242   3.588
 8296TIP3    H224832   0.420   2.192   3.613
 8297TIP3   OH224833   0.571   5.309   3.110
 8297TIP3    H124834   0.635   5.346   3.172
 8297TIP3    H224835   0.503   5.376   3.104
 8298TIP3   OH224836   5.177   0.277   4.649
 8298TIP3    H124837   5.122   0.234   4.715
 8298TIP3    H224838   5.168   0.370   4.667
 8299TIP3   OH224839   8.266   6.856   0.825
 8299TIP3    H124840   8.338   6.820   0.877
 8299TIP3    H224841   8.243   6.938   0.869
 8300TIP3   OH224842   5.044   2.647   0.373
 8300TIP3    H124843   5.057   2.568   0.426
 8300TIP3    H224844   4.991   2.618   0.299
 8301TIP3   OH224845   3.083   6.881   6.217
 8301TIP3    H124846   3.103   6.961   6.169
 8301TIP3    H224847   3.022   6.908   6.285
 8302TIP3   OH224848   4.987   5.917   2.949
 8302TIP3    H124849   5.009   5.884   2.862
 8302TIP3    H224850   5.066   5.963   2.978
 8303TIP3   OH224851   5.255   4.773   6.287
 8303TIP3    H124852   5.317   4.715   6.245
 8303TIP3    H224853   5.281   4.861   6.259
 8304TIP3   OH224854   7.612   4.350   5.579
 8304TIP3    H124855   7.683   4.396   5.534
 8304TIP3    H224856   7.653   4.313   5.657
 8305TIP3   OH224857   5.618   1.114   3.501
 8305TIP3    H124858   5.583   1.025   3.496
 8305TIP3    H224859   5.562   1.158   3.565
 8306TIP3   OH224860   1.351   4.174   0.512
 8306TIP3    H124861   1.370   4.264   0.486
 8306TIP3    H224862   1.282   4.146   0.452
 8307TIP3   OH224863   4.934   4.122   1.958
 8307TIP3    H124864   4.896   4.169   1.884
 8307TIP3    H224865   4.989   4.054   1.919
 8308TIP3   OH224866   5.822   3.203   2.674
 8308TIP3    H124867   5.906   3.161   2.690
 8308TIP3    H224868   5.804   3.186   2.582
 8309TIP3   OH224869   5.821   4.581   1.813
 8309TIP3    H124870   5.904   4.569   1.767
 8309TIP3    H224871   5.832   4.664   1.861
 8310TIP3   OH224872   4.538   3.804   1.183
 8310TIP3    H124873   4.529   3.774   1.092
 8310TIP3    H224874   4.606   3.871   1.179
 8311TIP3   OH224875   3.392   0.568   0.339
 8311TIP3    H124876   3.416   0.513   0.413
 8311TIP3    H224877   3.399   0.658   0.372
 8312TIP3   OH224878   5.978   3.119   6.315
 8312TIP3    H124879   5.938   3.062   6.249
 8312TIP3    H224880   5.906   3.175   6.344
 8313TIP3   OH224881   7.844   1.090   1.076
 8313TIP3    H124882   7.832   1.125   0.988
 8313TIP3    H224883   7.803   1.155   1.134
 8314TIP3   OH224884   1.640   5.856   2.786
 8314TIP3    H124885   1.735   5.853   2.778
 8314TIP3    H224886   1.617   5.947   2.766
 8315TIP3   OH224887   5.561   4.945   2.384
 8315TIP3    H124888   5.632   4.964   2.445
 8315TIP3    H224889   5.577   5.005   2.311
 8316TIP3   OH224890   1.779   7.486   4.358
 8316TIP3    H124891   1.852   7.426   4.342
 8316TIP3    H224892   1.708   7.453   4.303
 8317TIP3   OH224893   2.636   7.540   6.421
 8317TIP3    H124894   2.602   7.590   6.347
 8317TIP3    H224895   2.558   7.513   6.470
 8318TIP3   OH224896   6.615   1.523   2.390
 8318TIP3    H124897   6.590   1.511   2.482
 8318TIP3    H224898   6.551   1.472   2.341
 8319TIP3   OH224899   6.950   5.817   1.626
 8319TIP3    H124900   6.973   5.734   1.667
 8319TIP3    H224901   6.864   5.801   1.586
 8320TIP3   OH224902   7.427   0.785   1.513
 8320TIP3    H124903   7.494   0.846   1.482
 8320TIP3    H224904   7.466   0.698   1.499
 8321TIP3   OH224905   7.197   4.823   1.696
 8321TIP3    H124906   7.190   4.831   1.791
 8321TIP3    H224907   7.289   4.842   1.677
 8322TIP3   OH224908   7.208   1.313   6.061
 8322TIP3    H124909   7.253   1.365   6.128
 8322TIP3    H224910   7.127   1.361   6.043
 8323TIP3   OH224911   3.096   4.393   1.464
 8323TIP3    H124912   3.059   4.427   1.383
 8323TIP3    H224913   3.090   4.465   1.526
 8324TIP3   OH224914   4.522   4.111   5.816
 8324TIP3    H124915   4.601   4.156   5.788
 8324TIP3    H224916   4.460   4.181   5.837
 8325TIP3   OH224917   2.944   5.619   5.746
 8325TIP3    H124918   2.940   5.706   5.706
 8325TIP3    H224919   2.855   5.604   5.778
 8326TIP3   OH224920   1.570   0.372   5.174
 8326TIP3    H124921   1.650   0.425   5.171
 8326TIP3    H224922   1.499   0.436   5.169
 8327TIP3   OH224923   6.172   4.661   3.148
 8327TIP3    H124924   6.118   4.672   3.226
 8327TIP3    H224925   6.127   4.594   3.097
 8328TIP3   OH224926   1.465   6.358   5.949
 8328TIP3    H124927   1.520   6.337   6.024
 8328TIP3    H224928   1.518   6.419   5.897
 8329TIP3   OH224929   3.769   3.954   2.451
 8329TIP3    H124930   3.760   3.945   2.356
 8329TIP3    H224931   3.761   4.048   2.467
 8330TIP3   OH224932   5.385   6.831   6.459
 8330TIP3    H124933   5.316   6.867   6.516
 8330TIP3    H224934   5.450   6.901   6.453
 8331TIP3   OH224935   6.485   6.712   2.817
 8331TIP3    H124936   6.457   6.626   2.849
 8331TIP3    H224937   6.560   6.735   2.871
 8332TIP3   OH224938   0.616   4.305   1.130
 8332TIP3    H124939   0.527   4.271   1.139
 8332TIP3    H224940   0.632   4.351   1.212
 8333TIP3   OH224941   3.306   0.308   0.250
 8333TIP3    H124942   3.316   0.310   0.155
 8333TIP3    H224943   3.324   0.397   0.279
 8334TIP3   OH224944   3.395   2.528   3.848
 8334TIP3    H124945   3.311   2.542   3.891
 8334TIP3    H224946   3.375   2.472   3.774
 8335TIP3   OH224947   4.903   5.867   5.812
 8335TIP3    H124948   4.985   5.860   5.764
 8335TIP3    H224949   4.883   5.961   5.811
 8336TIP3   OH224950   5.683   4.818   4.073
 8336TIP3    H124951   5.623   4.822   3.998
 8336TIP3    H224952   5.740   4.744   4.054
 8337TIP3   OH224953   5.784   1.031   5.762
 8337TIP3    H124954   5.712   1.077   5.720
 8337TIP3    H224955   5.762   1.031   5.855
 8338TIP3   OH224956   5.068   0.815   6.642
 8338TIP3    H124957   5.066   0.780   6.553
 8338TIP3    H224958   4.985   0.788   6.681
 8339TIP3   OH224959   8.197   1.700   1.862
 8339TIP3    H124960   8.160   1.700   1.950
 8339TIP3    H224961   8.160   1.778   1.820
 8340TIP3   OH224962   7.486   0.591   2.174
 8340TIP3    H124963   7.580   0.585   2.160
 8340TIP3    H224964   7.447   0.565   2.091
 8341TIP3   OH224965   0.163   1.288   2.044
 8341TIP3    H124966   0.120   1.228   1.984
 8341TIP3    H224967   0.155   1.374   2.003
 8342TIP3   OH224968   7.606   1.359   2.233
 8342TIP3    H124969   7.588   1.274   2.194
 8342TIP3    H224970   7.667   1.340   2.305
 8343TIP3   OH224971   3.207   3.731   4.469
 8343TIP3    H124972   3.124   3.767   4.500
 8343TIP3    H224973   3.194   3.636   4.471
 8344TIP3   OH224974   6.178   3.347   4.501
 8344TIP3    H124975   6.247   3.404   4.467
 8344TIP3    H224976   6.098   3.376   4.456
 8345TIP3   OH224977   2.406   1.231   3.165
 8345TIP3    H124978   2.405   1.156   3.106
 8345TIP3    H224979   2.315   1.240   3.194
 8346TIP3   OH224980   7.006   3.947   3.836
 8346TIP3    H124981   6.967   4.029   3.864
 8346TIP3    H224982   7.050   3.914   3.915
 8347TIP3   OH224983   5.918   4.534   3.803
 8347TIP3    H124984   5.851   4.560   3.740
 8347TIP3    H224985   5.873   4.535   3.888
 8348TIP3   OH224986   6.693   3.564   3.866
 8348TIP3    H124987   6.702   3.611   3.783
 8348TIP3    H224988   6.778   3.522   3.879
 8349TIP3   OH224989   5.705   6.150   5.001
 8349TIP3    H124990   5.695   6.063   5.040
 8349TIP3    H224991   5.646   6.150   4.926
 8350TIP3   OH224992   1.729   2.392   6.142
 8350TIP3    H124993   1.790   2.436   6.201
 8350TIP3    H224994   1.650   2.445   6.144
 8351TIP3   OH224995   2.438   2.950   1.081
 8351TIP3    H124996   2.400   2.994   1.156
 8351TIP3    H224997   2.432   2.857   1.101
 8352TIP3   OH224998   5.286   7.009   1.668
 8352TIP3    H124999   5.373   6.976   1.691
 8352TIP3    H225000   5.298   7.053   1.584
 8353TIP3   OH225001   0.872   4.031   5.623
 8353TIP3    H125002   0.933   4.045   5.695
 8353TIP3    H225003   0.836   3.943   5.638
 8354TIP3   OH225004   2.829   1.640   2.769
 8354TIP3    H125005   2.870   1.648   2.855
 8354TIP3    H225006   2.783   1.723   2.756
 8355TIP3   OH225007   0.051   7.008   3.456
 8355TIP3    H125008   0.143   6.988   3.435
 8355TIP3    H225009   0.026   6.939   3.517
 8356TIP3   OH225010   3.227   7.756   4.560
 8356TIP3    H125011   3.209   7.815   4.487
 8356TIP3    H225012   3.155   7.769   4.621
 8357TIP3   OH225013   2.815   3.134   5.093
 8357TIP3    H125014   2.900   3.152   5.052
 8357TIP3    H225015   2.783   3.221   5.119
 8358TIP3   OH225016   4.193   4.409   2.039
 8358TIP3    H125017   4.221   4.497   2.017
 8358TIP3    H225018   4.245   4.352   1.983
 8359TIP3   OH225019   0.697   1.823   1.254
 8359TIP3    H125020   0.677   1.741   1.210
 8359TIP3    H225021   0.695   1.802   1.347
 8360TIP3   OH225022   6.838   3.300   5.305
 8360TIP3    H125023   6.877   3.314   5.391
 8360TIP3    H225024   6.865   3.376   5.253
 8361TIP3   OH225025   4.348   3.910   2.815
 8361TIP3    H125026   4.440   3.887   2.832
 8361TIP3    H225027   4.306   3.826   2.794
 8362TIP3   OH225028   0.713   6.980   3.385
 8362TIP3    H125029   0.631   6.966   3.434
 8362TIP3    H225030   0.710   6.914   3.316
 8363TIP3   OH225031   0.902   3.902   2.004
 8363TIP3    H125032   0.905   3.817   2.049
 8363TIP3    H225033   0.987   3.909   1.960
 8364TIP3   OH225034   3.991   4.185   5.905
 8364TIP3    H125035   3.974   4.276   5.881
 8364TIP3    H225036   3.910   4.156   5.948
 8365TIP3   OH225037   6.963   3.144   2.727
 8365TIP3    H125038   7.002   3.178   2.647
 8365TIP3    H225039   6.982   3.050   2.725
 8366TIP3   OH225040   6.679   1.762   4.515
 8366TIP3    H125041   6.669   1.796   4.604
 8366TIP3    H225042   6.637   1.677   4.516
 8367TIP3   OH225043   8.303   7.319   2.598
 8367TIP3    H125044   8.224   7.288   2.555
 8367TIP3    H225045   8.338   7.241   2.642
 8368TIP3   OH225046   1.067   0.516   3.260
 8368TIP3    H125047   1.125   0.441   3.268
 8368TIP3    H225048   1.018   0.517   3.342
 8369TIP3   OH225049   4.436   7.051   5.223
 8369TIP3    H125050   4.496   7.115   5.186
 8369TIP3    H225051   4.349   7.087   5.206
 8370TIP3   OH225052   7.501   5.759   5.312
 8370TIP3    H125053   7.463   5.773   5.225
 8370TIP3    H225054   7.595   5.762   5.298
 8371TIP3   OH225055   7.976   2.675   3.936
 8371TIP3    H125056   8.062   2.709   3.914
 8371TIP3    H225057   7.947   2.729   4.010
 8372TIP3   OH225058   4.572   1.548   2.253
 8372TIP3    H125059   4.491   1.500   2.237
 8372TIP3    H225060   4.559   1.632   2.210
 8373TIP3   OH225061   3.069   0.635   6.619
 8373TIP3    H125062   3.120   0.570   6.668
 8373TIP3    H225063   3.043   0.700   6.684
 8374TIP3   OH225064   7.152   2.913   0.546
 8374TIP3    H125065   7.225   2.974   0.561
 8374TIP3    H225066   7.189   2.827   0.561
 8375TIP3   OH225067   4.754   1.188   4.820
 8375TIP3    H125068   4.659   1.177   4.824
 8375TIP3    H225069   4.772   1.269   4.867
 8376TIP3   OH225070   5.655   7.308   6.502
 8376TIP3    H125071   5.672   7.281   6.592
 8376TIP3    H225072   5.642   7.226   6.455
 8377TIP3   OH225073   6.294   0.753   4.879
 8377TIP3    H125074   6.232   0.819   4.911
 8377TIP3    H225075   6.239   0.694   4.826
 8378TIP3   OH225076   2.734   1.617   3.975
 8378TIP3    H125077   2.661   1.562   3.947
 8378TIP3    H225078   2.747   1.596   4.067
 8379TIP3   OH225079   3.677   7.742   1.013
 8379TIP3    H125080   3.643   7.667   0.965
 8379TIP3    H225081   3.692   7.809   0.946
 8380TIP3   OH225082   4.092   6.503   4.743
 8380TIP3    H125083   4.164   6.465   4.693
 8380TIP3    H225084   4.026   6.434   4.747
 8381TIP3   OH225085   2.769   2.642   6.399
 8381TIP3    H125086   2.830   2.712   6.422
 8381TIP3    H225087   2.726   2.674   6.320
 8382TIP3   OH225088   1.432   3.158   4.130
 8382TIP3    H125089   1.490   3.228   4.159
 8382TIP3    H225090   1.377   3.139   4.206
 8383TIP3   OH225091   0.240   4.214   5.917
 8383TIP3    H125092   0.270   4.154   5.986
 8383TIP3    H225093   0.191   4.159   5.856
 8384TIP3   OH225094   7.217   0.428   3.720
 8384TIP3    H125095   7.145   0.468   3.768
 8384TIP3    H225096   7.290   0.427   3.782
 8385TIP3   OH225097   6.678   2.030   1.416
 8385TIP3    H125098   6.615   2.099   1.397
 8385TIP3    H225099   6.764   2.071   1.402
 8386TIP3   OH225100   6.854   4.076   6.765
 8386TIP3    H125101   6.893   4.045   6.683
 8386TIP3    H225102   6.765   4.040   6.764
 8387TIP3   OH225103   2.048   6.988   4.965
 8387TIP3    H125104   2.011   6.912   4.920
 8387TIP3    H225105   1.998   7.063   4.932
 8388TIP3   OH225106   0.174   1.739   5.398
 8388TIP3    H125107   0.094   1.689   5.410
 8388TIP3    H225108   0.145   1.824   5.363
 8389TIP3   OH225109   1.705   2.628   6.290
 8389TIP3    H125110   1.734   2.695   6.228
 8389TIP3    H225111   1.767   2.635   6.363
 8390TIP3   OH225112   5.785   5.414   3.532
 8390TIP3    H125113   5.803   5.392   3.623
 8390TIP3    H225114   5.850   5.481   3.510
 8391TIP3   OH225115   7.771   1.459   1.547
 8391TIP3    H125116   7.773   1.517   1.471
 8391TIP3    H225117   7.763   1.518   1.622
 8392TIP3   OH225118   5.688   0.991   2.294
 8392TIP3    H125119   5.726   1.011   2.208
 8392TIP3    H225120   5.622   1.059   2.307
 8393TIP3   OH225121   2.785   4.878   5.559
 8393TIP3    H125122   2.722   4.896   5.629
 8393TIP3    H225123   2.870   4.875   5.604
 8394TIP3   OH225124   6.003   5.587   3.167
 8394TIP3    H125125   5.980   5.665   3.218
 8394TIP3    H225126   5.958   5.600   3.083
 8395TIP3   OH225127   2.009   4.980   2.611
 8395TIP3    H125128   1.942   4.936   2.661
 8395TIP3    H225129   2.085   4.984   2.670
 8396TIP3   OH225130   3.454   3.547   5.737
 8396TIP3    H125131   3.538   3.577   5.773
 8396TIP3    H225132   3.435   3.466   5.784
 8397TIP3   OH225133   7.142   3.972   5.621
 8397TIP3    H125134   7.204   3.987   5.550
 8397TIP3    H225135   7.162   4.040   5.685
 8398TIP3   OH225136   1.216   0.837   2.672
 8398TIP3    H125137   1.210   0.829   2.768
 8398TIP3    H225138   1.130   0.870   2.646
 8399TIP3   OH225139   4.395   7.348   0.682
 8399TIP3    H125140   4.490   7.341   0.696
 8399TIP3    H225141   4.375   7.440   0.703
 8400TIP3   OH225142   2.974   4.866   2.356
 8400TIP3    H125143   3.017   4.884   2.272
 8400TIP3    H225144   2.886   4.836   2.332
 8401TIP3   OH225145   2.139   3.191   2.468
 8401TIP3    H125146   2.068   3.154   2.415
 8401TIP3    H225147   2.213   3.133   2.453
 8402TIP3   OH225148   7.572   5.670   2.257
 8402TIP3    H125149   7.652   5.626   2.287
 8402TIP3    H225150   7.588   5.763   2.274
 8403TIP3   OH225151   2.574   2.052   1.551
 8403TIP3    H125152   2.518   2.082   1.479
 8403TIP3    H225153   2.656   2.028   1.508
 8404TIP3   OH225154   5.359   1.655   5.295
 8404TIP3    H125155   5.433   1.688   5.245
 8404TIP3    H225156   5.394   1.581   5.345
 8405TIP3   OH225157   4.526   5.006   6.174
 8405TIP3    H125158   4.604   4.967   6.134
 8405TIP3    H225159   4.469   5.027   6.100
 8406TIP3   OH225160   4.819   7.381   2.524
 8406TIP3    H125161   4.823   7.468   2.566
 8406TIP3    H225162   4.902   7.372   2.478
 8407TIP3   OH225163   4.055   4.738   1.152
 8407TIP3    H125164   4.085   4.740   1.061
 8407TIP3    H225165   4.133   4.760   1.204
 8408TIP3   OH225166   7.959   0.940   3.032
 8408TIP3    H125167   8.009   0.990   2.967
 8408TIP3    H225168   8.014   0.940   3.110
 8409TIP3   OH225169   8.274   7.696   4.167
 8409TIP3    H125170   8.210   7.715   4.098
 8409TIP3    H225171   8.342   7.644   4.125
 8410TIP3   OH225172   1.058   2.348   2.715
 8410TIP3    H125173   1.007   2.424   2.742
 8410TIP3    H225174   1.004   2.272   2.740
 8411TIP3   OH225175   1.682   7.615   6.616
 8411TIP3    H125176   1.738   7.659   6.680
 8411TIP3    H225177   1.674   7.526   6.648
 8412TIP3   OH225178   4.822   4.475   5.903
 8412TIP3    H125179   4.825   4.463   5.998
 8412TIP3    H225180   4.745   4.530   5.889
 8413TIP3   OH225181   7.008   1.524   3.302
 8413TIP3    H125182   6.957   1.443   3.314
 8413TIP3    H225183   7.095   1.493   3.276
 8414TIP3   OH225184   5.250   0.407   3.598
 8414TIP3    H125185   5.285   0.319   3.609
 8414TIP3    H225186   5.269   0.451   3.682
 8415TIP3   OH225187   1.905   5.654   3.679
 8415TIP3    H125188   1.993   5.616   3.677
 8415TIP3    H225189   1.877   5.657   3.588
 8416TIP3   OH225190   7.940   5.165   0.263
 8416TIP3    H125191   7.954   5.142   0.354
 8416TIP3    H225192   7.963   5.086   0.214
 8417TIP3   OH225193   1.447   5.583   5.686
 8417TIP3    H125194   1.534   5.542   5.694
 8417TIP3    H225195   1.416   5.556   5.600
 8418TIP3   OH225196   6.575   7.725   3.342
 8418TIP3    H125197   6.616   7.759   3.262
 8418TIP3    H225198   6.503   7.786   3.360
 8419TIP3   OH225199   7.663   4.151   0.310
 8419TIP3    H125200   7.723   4.222   0.332
 8419TIP3    H225201   7.589   4.163   0.370
 8420TIP3   OH225202   3.148   3.244   2.742
 8420TIP3    H125203   3.161   3.337   2.727
 8420TIP3    H225204   3.125   3.209   2.656
 8421TIP3   OH225205   7.113   3.940   1.453
 8421TIP3    H125206   7.120   3.844   1.451
 8421TIP3    H225207   7.092   3.961   1.544
 8422TIP3   OH225208   7.823   7.243   6.413
 8422TIP3    H125209   7.904   7.271   6.454
 8422TIP3    H225210   7.810   7.304   6.341
 8423TIP3   OH225211   4.723   6.588   0.282
 8423TIP3    H125212   4.778   6.541   0.220
 8423TIP3    H225213   4.774   6.592   0.363
 8424TIP3   OH225214   4.853   5.279   4.614
 8424TIP3    H125215   4.918   5.282   4.685
 8424TIP3    H225216   4.780   5.228   4.650
 8425TIP3   OH225217   1.888   4.398   1.044
 8425TIP3    H125218   1.857   4.464   0.983
 8425TIP3    H225219   1.973   4.431   1.073
 8426TIP3   OH225220   6.881   1.945   6.411
 8426TIP3    H125221   6.805   2.001   6.427
 8426TIP3    H225222   6.944   1.971   6.479
 8427TIP3   OH225223   1.845   6.222   5.407
 8427TIP3    H125224   1.832   6.247   5.498
 8427TIP3    H225225   1.773   6.264   5.360
 8428TIP3   OH225226   5.156   3.587   6.563
 8428TIP3    H125227   5.134   3.669   6.518
 8428TIP3    H225228   5.078   3.565   6.613
 8429TIP3   OH225229   0.563   1.581   3.129
 8429TIP3    H125230   0.618   1.625   3.193
 8429TIP3    H225231   0.595   1.490   3.129
 8430TIP3   OH225232   2.621   5.256   1.105
 8430TIP3    H125233   2.634   5.193   1.175
 8430TIP3    H225234   2.698   5.247   1.049
 8431TIP3   OH225235   7.265   2.343   3.645
 8431TIP3    H125236   7.248   2.297   3.727
 8431TIP3    H225237   7.181   2.344   3.600
 8432TIP3   OH225238   4.107   6.731   6.030
 8432TIP3    H125239   4.017   6.697   6.030
 8432TIP3    H225240   4.098   6.824   6.012
 8433TIP3   OH225241   4.014   6.024   4.546
 8433TIP3    H125242   3.973   6.052   4.628
 8433TIP3    H225243   4.103   6.000   4.571
 8434TIP3   OH225244   7.281   6.949   1.018
 8434TIP3    H125245   7.192   6.925   0.996
 8434TIP3    H225246   7.311   6.881   1.078
 8435TIP3   OH225247   3.975   5.874   3.011
 8435TIP3    H125248   4.041   5.822   2.967
 8435TIP3    H225249   3.958   5.948   2.952
 8436TIP3   OH225250   7.553   3.846   1.419
 8436TIP3    H125251   7.554   3.756   1.386
 8436TIP3    H225252   7.473   3.884   1.383
 8437TIP3   OH225253   0.733   7.317   0.939
 8437TIP3    H125254   0.747   7.255   0.867
 8437TIP3    H225255   0.738   7.403   0.897
 8438TIP3   OH225256   6.570   5.341   1.742
 8438TIP3    H125257   6.513   5.388   1.682
 8438TIP3    H225258   6.658   5.350   1.705
 8439TIP3   OH225259   2.977   3.019   1.518
 8439TIP3    H125260   3.003   3.020   1.426
 8439TIP3    H225261   2.895   3.069   1.520
 8440TIP3   OH225262   2.825   4.885   5.168
 8440TIP3    H125263   2.758   4.916   5.108
 8440TIP3    H225264   2.819   4.943   5.244
 8441TIP3   OH225265   4.668   5.108   6.399
 8441TIP3    H125266   4.753   5.069   6.415
 8441TIP3    H225267   4.630   5.056   6.328
 8442TIP3   OH225268   5.633   2.714   2.108
 8442TIP3    H125269   5.666   2.636   2.062
 8442TIP3    H225270   5.539   2.713   2.091
 8443TIP3   OH225271   6.968   2.109   6.620
 8443TIP3    H125272   6.984   2.202   6.636
 8443TIP3    H225273   6.952   2.071   6.706
 8444TIP3   OH225274   3.572   2.658   1.454
 8444TIP3    H125275   3.480   2.630   1.453
 8444TIP3    H225276   3.598   2.660   1.362
 8445TIP3   OH225277   7.002   1.606   1.701
 8445TIP3    H125278   7.034   1.568   1.783
 8445TIP3    H225279   6.946   1.538   1.664
 8446TIP3   OH225280   4.644   5.212   5.806
 8446TIP3    H125281   4.619   5.301   5.783
 8446TIP3    H225282   4.735   5.219   5.836
 8447TIP3   OH225283   5.055   6.471   3.154
 8447TIP3    H125284   4.969   6.512   3.165
 8447TIP3    H225285   5.115   6.525   3.205
 8448TIP3   OH225286   0.913   1.632   0.855
 8448TIP3    H125287   0.925   1.624   0.760
 8448TIP3    H225288   0.839   1.576   0.875
 8449TIP3   OH225289   3.564   6.325   1.880
 8449TIP3    H125290   3.521   6.411   1.882
 8449TIP3    H225291   3.506   6.270   1.828
 8450TIP3   OH225292   6.419   4.671   0.935
 8450TIP3    H125293   6.498   4.717   0.962
 8450TIP3    H225294   6.407   4.602   1.001
 8451TIP3   OH225295   5.895   7.746   3.321
 8451TIP3    H125296   5.956   7.689   3.274
 8451TIP3    H225297   5.818   7.750   3.264
 8452TIP3   OH225298   6.850   4.198   3.819
 8452TIP3    H125299   6.925   4.248   3.789
 8452TIP3    H225300   6.836   4.227   3.910
 8453TIP3   OH225301   0.215   2.994   6.318
 8453TIP3    H125302   0.184   2.912   6.357
 8453TIP3    H225303   0.254   2.967   6.234
 8454TIP3   OH225304   0.354   6.815   6.080
 8454TIP3    H125305   0.288   6.849   6.019
 8454TIP3    H225306   0.378   6.730   6.043
 8455TIP3   OH225307   2.902   6.312   1.699
 8455TIP3    H125308   2.962   6.279   1.632
 8455TIP3    H225309   2.879   6.400   1.670
 8456TIP3   OH225310   3.788   5.628   5.552
 8456TIP3    H125311   3.866   5.590   5.511
 8456TIP3    H225312   3.822   5.677   5.627
 8457TIP3   OH225313   8.076   7.029   2.806
 8457TIP3    H125314   8.014   7.027   2.733
 8457TIP3    H225315   8.122   6.945   2.800
 8458TIP3   OH225316   1.488   6.368   1.181
 8458TIP3    H125317   1.460   6.360   1.272
 8458TIP3    H225318   1.581   6.347   1.182
 8459TIP3   OH225319   2.663   4.618   1.119
 8459TIP3    H125320   2.750   4.609   1.081
 8459TIP3    H225321   2.611   4.548   1.079
 8460TIP3   OH225322   7.882   6.584   1.255
 8460TIP3    H125323   7.791   6.610   1.269
 8460TIP3    H225324   7.876   6.502   1.207
 8461TIP3   OH225325   4.767   3.109   2.659
 8461TIP3    H125326   4.682   3.132   2.696
 8461TIP3    H225327   4.748   3.045   2.591
 8462TIP3   OH225328   4.802   3.661   3.280
 8462TIP3    H125329   4.821   3.719   3.206
 8462TIP3    H225330   4.884   3.614   3.295
 8463TIP3   OH225331   3.445   7.123   0.076
 8463TIP3    H125332   3.377   7.085   0.133
 8463TIP3    H225333   3.451   7.214   0.105
 8464TIP3   OH225334   6.390   1.960   4.666
 8464TIP3    H125335   6.309   2.002   4.637
 8464TIP3    H225336   6.406   1.997   4.753
 8465TIP3   OH225337   1.784   3.561   5.133
 8465TIP3    H125338   1.847   3.615   5.085
 8465TIP3    H225339   1.766   3.611   5.213
 8466TIP3   OH225340   7.391   7.116   2.122
 8466TIP3    H125341   7.380   7.064   2.042
 8466TIP3    H225342   7.449   7.187   2.096
 8467TIP3   OH225343   1.725   6.774   3.212
 8467TIP3    H125344   1.682   6.764   3.297
 8467TIP3    H225345   1.722   6.868   3.194
 8468TIP3   OH225346   2.760   7.402   1.183
 8468TIP3    H125347   2.698   7.335   1.155
 8468TIP3    H225348   2.715   7.449   1.253
 8469TIP3   OH225349   8.196   3.876   1.270
 8469TIP3    H125350   8.150   3.904   1.350
 8469TIP3    H225351   8.131   3.826   1.221
 8470TIP3   OH225352   6.546   7.551   4.922
 8470TIP3    H125353   6.527   7.468   4.878
 8470TIP3    H225354   6.641   7.558   4.920
 8471TIP3   OH225355   2.715   6.450   3.722
 8471TIP3    H125356   2.620   6.458   3.728
 8471TIP3    H225357   2.737   6.492   3.638
 8472TIP3   OH225358   0.293   0.342   6.731
 8472TIP3    H125359   0.232   0.378   6.795
 8472TIP3    H225360   0.378   0.345   6.774
 8473TIP3   OH225361   1.148   7.311   3.640
 8473TIP3    H125362   1.226   7.255   3.631
 8473TIP3    H225363   1.080   7.263   3.593
 8474TIP3   OH225364   6.300   1.130   4.281
 8474TIP3    H125365   6.229   1.068   4.291
 8474TIP3    H225366   6.379   1.080   4.302
 8475TIP3   OH225367   5.141   4.727   0.301
 8475TIP3    H125368   5.231   4.754   0.285
 8475TIP3    H225369   5.144   4.685   0.388
 8476TIP3   OH225370   6.885   2.297   2.265
 8476TIP3    H125371   6.903   2.215   2.218
 8476TIP3    H225372   6.969   2.321   2.305
 8477TIP3   OH225373   0.261   1.331   3.495
 8477TIP3    H125374   0.265   1.276   3.417
 8477TIP3    H225375   0.235   1.272   3.565
 8478TIP3   OH225376   6.322   5.302   1.888
 8478TIP3    H125377   6.349   5.225   1.937
 8478TIP3    H225378   6.396   5.323   1.831
 8479TIP3   OH225379   7.616   5.965   1.748
 8479TIP3    H125380   7.589   6.009   1.667
 8479TIP3    H225381   7.582   5.876   1.740
 8480TIP3   OH225382   6.849   0.379   3.475
 8480TIP3    H125383   6.862   0.473   3.484
 8480TIP3    H225384   6.916   0.351   3.412
 8481TIP3   OH225385   4.868   7.161   2.328
 8481TIP3    H125386   4.773   7.160   2.331
 8481TIP3    H225387   4.895   7.108   2.403
 8482TIP3   OH225388   3.469   6.176   5.454
 8482TIP3    H125389   3.513   6.259   5.471
 8482TIP3    H225390   3.540   6.112   5.445
 8483TIP3   OH225391   7.547   6.968   5.172
 8483TIP3    H125392   7.505   6.991   5.089
 8483TIP3    H225393   7.637   6.999   5.164
 8484TIP3   OH225394   5.515   7.805   4.482
 8484TIP3    H125395   5.603   7.774   4.463
 8484TIP3    H225396   5.471   7.808   4.397
 8485TIP3   OH225397   1.961   3.652   1.353
 8485TIP3    H125398   1.869   3.626   1.358
 8485TIP3    H225399   1.963   3.722   1.288
 8486TIP3   OH225400   4.011   5.004   1.632
 8486TIP3    H125401   4.000   4.995   1.537
 8486TIP3    H225402   3.973   4.924   1.668
 8487TIP3   OH225403   0.931   6.317   5.649
 8487TIP3    H125404   0.981   6.254   5.598
 8487TIP3    H225405   0.972   6.402   5.629
 8488TIP3   OH225406   5.237   5.010   3.468
 8488TIP3    H125407   5.264   5.043   3.382
 8488TIP3    H225408   5.290   4.932   3.482
 8489TIP3   OH225409   7.203   1.772   3.811
 8489TIP3    H125410   7.258   1.838   3.768
 8489TIP3    H225411   7.115   1.789   3.779
 8490TIP3   OH225412   8.265   5.638   1.283
 8490TIP3    H125413   8.199   5.601   1.342
 8490TIP3    H225414   8.332   5.673   1.342
 8491TIP3   OH225415   5.707   7.134   6.774
 8491TIP3    H125416   5.796   7.131   6.741
 8491TIP3    H225417   5.681   7.042   6.780
 8492TIP3   OH225418   5.925   7.092   5.737
 8492TIP3    H125419   5.895   7.183   5.744
 8492TIP3    H225420   6.012   7.098   5.696
 8493TIP3   OH225421   5.356   3.288   0.760
 8493TIP3    H125422   5.425   3.232   0.723
 8493TIP3    H225423   5.348   3.360   0.697
 8494TIP3   OH225424   7.506   2.377   1.192
 8494TIP3    H125425   7.540   2.428   1.119
 8494TIP3    H225426   7.447   2.313   1.152
 8495TIP3   OH225427   6.159   5.308   1.209
 8495TIP3    H125428   6.233   5.364   1.188
 8495TIP3    H225429   6.123   5.283   1.123
 8496TIP3   OH225430   4.554   0.870   1.867
 8496TIP3    H125431   4.536   0.776   1.864
 8496TIP3    H225432   4.598   0.883   1.951
 8497TIP3   OH225433   8.178   1.521   2.802
 8497TIP3    H125434   8.200   1.449   2.861
 8497TIP3    H225435   8.163   1.596   2.859
 8498TIP3   OH225436   2.846   3.649   6.477
 8498TIP3    H125437   2.927   3.605   6.450
 8498TIP3    H225438   2.845   3.730   6.426
 8499TIP3   OH225439   1.408   1.668   0.050
 8499TIP3    H125440   1.436   1.760   0.043
 8499TIP3    H225441   1.426   1.645   0.141
 8500TIP3   OH225442   0.217   4.122   0.738
 8500TIP3    H125443   0.198   4.042   0.787
 8500TIP3    H225444   0.272   4.174   0.796
 8501TIP3   OH225445   5.524   2.393   4.526
 8501TIP3    H125446   5.443   2.374   4.573
 8501TIP3    H225447   5.591   2.343   4.572
 8502TIP3   OH225448   4.484   3.138   2.713
 8502TIP3    H125449   4.443   3.100   2.792
 8502TIP3    H225450   4.426   3.112   2.642
 8503TIP3   OH225451   1.284   0.617   1.730
 8503TIP3    H125452   1.300   0.663   1.648
 8503TIP3    H225453   1.303   0.682   1.798
 8504TIP3   OH225454   7.028   7.457   0.489
 8504TIP3    H125455   7.050   7.439   0.397
 8504TIP3    H225456   7.067   7.543   0.507
 8505TIP3   OH225457   0.162   4.825   1.580
 8505TIP3    H125458   0.238   4.882   1.568
 8505TIP3    H225459   0.110   4.868   1.647
 8506TIP3   OH225460   7.247   5.457   4.204
 8506TIP3    H125461   7.173   5.488   4.151
 8506TIP3    H225462   7.323   5.463   4.146
 8507TIP3   OH225463   4.179   3.314   4.575
 8507TIP3    H125464   4.170   3.229   4.620
 8507TIP3    H225465   4.151   3.296   4.485
 8508TIP3   OH225466   2.316   4.599   0.773
 8508TIP3    H125467   2.251   4.534   0.747
 8508TIP3    H225468   2.391   4.548   0.803
 8509TIP3   OH225469   4.134   5.311   4.093
 8509TIP3    H125470   4.218   5.325   4.051
 8509TIP3    H225471   4.071   5.309   4.021
 8510TIP3   OH225472   6.180   1.126   6.417
 8510TIP3    H125473   6.220   1.043   6.445
 8510TIP3    H225474   6.088   1.117   6.439
 8511TIP3   OH225475   5.916   6.821   2.755
 8511TIP3    H125476   5.822   6.805   2.747
 8511TIP3    H225477   5.932   6.826   2.849
 8512TIP3   OH225478   5.905   6.037   1.871
 8512TIP3    H125479   5.875   6.069   1.786
 8512TIP3    H225480   5.834   6.059   1.931
 8513TIP3   OH225481   7.646   1.531   4.664
 8513TIP3    H125482   7.615   1.519   4.754
 8513TIP3    H225483   7.626   1.622   4.644
 8514TIP3   OH225484   2.664   1.439   0.861
 8514TIP3    H125485   2.748   1.397   0.883
 8514TIP3    H225486   2.685   1.533   0.857
 8515TIP3   OH225487   2.191   6.492   0.452
 8515TIP3    H125488   2.168   6.559   0.517
 8515TIP3    H225489   2.203   6.540   0.371
 8516TIP3   OH225490   6.295   4.535   2.384
 8516TIP3    H125491   6.220   4.594   2.378
 8516TIP3    H225492   6.259   4.448   2.366
 8517TIP3   OH225493   4.181   1.837   4.923
 8517TIP3    H125494   4.167   1.920   4.877
 8517TIP3    H225495   4.103   1.825   4.976
 8518TIP3   OH225496   7.928   3.081   3.336
 8518TIP3    H125497   7.866   3.154   3.329
 8518TIP3    H225498   7.967   3.075   3.249
 8519TIP3   OH225499   5.113   2.710   3.514
 8519TIP3    H125500   5.058   2.655   3.458
 8519TIP3    H225501   5.193   2.660   3.526
 8520TIP3   OH225502   8.106   5.365   5.648
 8520TIP3    H125503   8.049   5.291   5.628
 8520TIP3    H225504   8.177   5.359   5.584
 8521TIP3   OH225505   7.464   6.718   6.092
 8521TIP3    H125506   7.526   6.719   6.166
 8521TIP3    H225507   7.378   6.706   6.133
 8522TIP3   OH225508   6.079   1.125   3.047
 8522TIP3    H125509   6.090   1.219   3.033
 8522TIP3    H225510   6.003   1.102   2.993
 8523TIP3   OH225511   5.033   1.729   6.388
 8523TIP3    H125512   4.996   1.643   6.372
 8523TIP3    H225513   4.990   1.760   6.468
 8524TIP3   OH225514   3.451   2.280   3.272
 8524TIP3    H125515   3.497   2.334   3.335
 8524TIP3    H225516   3.503   2.200   3.266
 8525TIP3   OH225517   1.311   4.458   5.612
 8525TIP3    H125518   1.243   4.479   5.676
 8525TIP3    H225519   1.319   4.363   5.616
 8526TIP3   OH225520   2.678   2.406   0.144
 8526TIP3    H125521   2.693   2.322   0.188
 8526TIP3    H225522   2.699   2.390   0.052
 8527TIP3   OH225523   6.104   7.285   0.197
 8527TIP3    H125524   6.023   7.298   0.148
 8527TIP3    H225525   6.076   7.284   0.289
 8528TIP3   OH225526   4.659   6.696   4.537
 8528TIP3    H125527   4.728   6.631   4.534
 8528TIP3    H225528   4.657   6.733   4.449
 8529TIP3   OH225529   6.485   2.309   2.890
 8529TIP3    H125530   6.456   2.283   2.978
 8529TIP3    H225531   6.555   2.372   2.906
 8530TIP3   OH225532   1.959   2.987   3.636
 8530TIP3    H125533   1.916   3.038   3.705
 8530TIP3    H225534   1.953   3.043   3.559
 8531TIP3   OH225535   7.103   1.278   1.581
 8531TIP3    H125536   7.124   1.304   1.491
 8531TIP3    H225537   7.161   1.332   1.635
 8532TIP3   OH225538   7.596   5.116   0.160
 8532TIP3    H125539   7.521   5.093   0.105
 8532TIP3    H225540   7.645   5.181   0.108
 8533TIP3   OH225541   1.989   7.362   5.805
 8533TIP3    H125542   1.919   7.328   5.749
 8533TIP3    H225543   1.947   7.380   5.889
 8534TIP3   OH225544   0.210   6.302   1.486
 8534TIP3    H125545   0.128   6.315   1.532
 8534TIP3    H225546   0.206   6.212   1.454
 8535TIP3   OH225547   5.659   3.694   2.071
 8535TIP3    H125548   5.692   3.606   2.087
 8535TIP3    H225549   5.715   3.751   2.124
 8536TIP3   OH225550   1.309   6.376   1.416
 8536TIP3    H125551   1.282   6.435   1.486
 8536TIP3    H225552   1.241   6.309   1.412
 8537TIP3   OH225553   3.551   4.085   1.822
 8537TIP3    H125554   3.560   3.990   1.824
 8537TIP3    H225555   3.600   4.116   1.898
 8538TIP3   OH225556   1.370   2.443   2.846
 8538TIP3    H125557   1.299   2.387   2.815
 8538TIP3    H225558   1.327   2.512   2.895
 8539TIP3   OH225559   3.328   1.014   5.034
 8539TIP3    H125560   3.367   0.927   5.027
 8539TIP3    H225561   3.367   1.064   4.962
 8540TIP3   OH225562   2.444   5.409   3.809
 8540TIP3    H125563   2.430   5.437   3.899
 8540TIP3    H225564   2.381   5.338   3.796
 8541TIP3   OH225565   6.809   0.200   6.707
 8541TIP3    H125566   6.838   0.147   6.632
 8541TIP3    H225567   6.740   0.256   6.671
 8542TIP3   OH225568   6.148   2.084   5.253
 8542TIP3    H125569   6.099   2.155   5.210
 8542TIP3    H225570   6.205   2.129   5.315
 8543TIP3   OH225571   2.830   5.133   2.415
 8543TIP3    H125572   2.812   5.151   2.322
 8543TIP3    H225573   2.856   5.042   2.417
 8544TIP3   OH225574   7.898   4.104   3.922
 8544TIP3    H125575   7.815   4.056   3.920
 8544TIP3    H225576   7.950   4.065   3.853
 8545TIP3   OH225577   4.050   2.190   4.200
 8545TIP3    H125578   3.963   2.180   4.162
 8545TIP3    H225579   4.034   2.221   4.289
 8546TIP3   OH225580   3.896   0.131   2.380
 8546TIP3    H125581   3.871   0.215   2.342
 8546TIP3    H225582   3.846   0.125   2.461
 8547TIP3   OH225583   0.215   4.256   2.310
 8547TIP3    H125584   0.287   4.300   2.264
 8547TIP3    H225585   0.257   4.217   2.387
 8548TIP3   OH225586   2.218   5.241   4.885
 8548TIP3    H125587   2.245   5.319   4.837
 8548TIP3    H225588   2.163   5.193   4.823
 8549TIP3   OH225589   6.080   3.987   3.458
 8549TIP3    H125590   6.024   3.922   3.500
 8549TIP3    H225591   6.134   4.023   3.529
 8550TIP3   OH225592   6.867   4.530   0.905
 8550TIP3    H125593   6.854   4.601   0.842
 8550TIP3    H225594   6.931   4.565   0.967
 8551TIP3   OH225595   3.698   2.967   1.307
 8551TIP3    H125596   3.765   2.932   1.366
 8551TIP3    H225597   3.659   3.041   1.354
 8552TIP3   OH225598   2.133   5.561   3.831
 8552TIP3    H125599   2.149   5.472   3.802
 8552TIP3    H225600   2.116   5.554   3.925
 8553TIP3   OH225601   5.546   6.097   1.522
 8553TIP3    H125602   5.613   6.111   1.454
 8553TIP3    H225603   5.485   6.169   1.510
 8554TIP3   OH225604   8.038   3.116   5.239
 8554TIP3    H125605   7.957   3.066   5.226
 8554TIP3    H225606   8.105   3.066   5.191
 8555TIP3   OH225607   8.235   7.141   3.004
 8555TIP3    H125608   8.322   7.112   2.979
 8555TIP3    H225609   8.185   7.139   2.923
 8556TIP3   OH225610   7.721   0.037   0.386
 8556TIP3    H125611   7.756   0.075   0.305
 8556TIP3    H225612   7.775   0.075   0.455
 8557TIP3   OH225613   6.880   3.312   4.163
 8557TIP3    H125614   6.819   3.378   4.196
 8557TIP3    H225615   6.863   3.309   4.069
 8558TIP3   OH225616   6.275   3.195   6.258
 8558TIP3    H125617   6.332   3.271   6.245
 8558TIP3    H225618   6.304   3.131   6.193
 8559TIP3   OH225619   4.954   2.372   5.657
 8559TIP3    H125620   5.038   2.357   5.614
 8559TIP3    H225621   4.952   2.466   5.673
 8560TIP3   OH225622   0.063   6.506   2.800
 8560TIP3    H125623   0.079   6.494   2.894
 8560TIP3    H225624   0.138   6.557   2.769
 8561TIP3   OH225625   4.320   1.580   5.667
 8561TIP3    H125626   4.403   1.624   5.649
 8561TIP3    H225627   4.324   1.499   5.617
 8562TIP3   OH225628   5.402   0.289   1.742
 8562TIP3    H125629   5.448   0.218   1.698
 8562TIP3    H225630   5.378   0.253   1.828
 8563TIP3   OH225631   6.926   5.701   5.494
 8563TIP3    H125632   6.927   5.685   5.589
 8563TIP3    H225633   7.017   5.712   5.470
 8564TIP3   OH225634   0.672   5.264   5.802
 8564TIP3    H125635   0.690   5.354   5.772
 8564TIP3    H225636   0.594   5.238   5.753
 8565TIP3   OH225637   5.712   2.106   1.561
 8565TIP3    H125638   5.717   2.173   1.493
 8565TIP3    H225639   5.763   2.141   1.633
 8566TIP3   OH225640   4.220   6.978   0.788
 8566TIP3    H125641   4.193   7.032   0.862
 8566TIP3    H225642   4.315   6.994   0.780
 8567TIP3   OH225643   5.929   7.601   5.181
 8567TIP3    H125644   5.950   7.631   5.093
 8567TIP3    H225645   5.964   7.669   5.238
 8568TIP3   OH225646   5.620   7.358   4.279
 8568TIP3    H125647   5.547   7.411   4.311
 8568TIP3    H225648   5.663   7.326   4.359
 8569TIP3   OH225649   7.878   3.356   4.693
 8569TIP3    H125650   7.886   3.426   4.627
 8569TIP3    H225651   7.894   3.400   4.776
 8570TIP3   OH225652   2.867   0.129   6.805
 8570TIP3    H125653   2.929   0.095   6.870
 8570TIP3    H225654   2.890   0.083   6.724
 8571TIP3   OH225655   3.209   6.811   1.636
 8571TIP3    H125656   3.257   6.884   1.677
 8571TIP3    H225657   3.188   6.753   1.709
 8572TIP3   OH225658   3.069   4.657   5.759
 8572TIP3    H125659   3.156   4.696   5.755
 8572TIP3    H225660   3.010   4.729   5.735
 8573TIP3   OH225661   8.396   1.983   6.241
 8573TIP3    H125662   8.341   2.059   6.253
 8573TIP3    H225663   8.337   1.915   6.209
 8574TIP3   OH225664   1.744   2.699   3.802
 8574TIP3    H125665   1.679   2.767   3.791
 8574TIP3    H225666   1.723   2.633   3.736
 8575TIP3   OH225667   6.055   4.479   2.959
 8575TIP3    H125668   6.039   4.385   2.953
 8575TIP3    H225669   5.979   4.520   2.917
 8576TIP3   OH225670   4.921   3.648   1.051
 8576TIP3    H125671   4.916   3.650   0.956
 8576TIP3    H225672   4.855   3.711   1.081
 8577TIP3   OH225673   2.723   6.750   3.816
 8577TIP3    H125674   2.634   6.756   3.781
 8577TIP3    H225675   2.764   6.679   3.765
 8578TIP3   OH225676   2.605   1.255   5.882
 8578TIP3    H125677   2.607   1.340   5.927
 8578TIP3    H225678   2.687   1.213   5.908
 8579TIP3   OH225679   1.945   1.553   6.620
 8579TIP3    H125680   2.010   1.596   6.565
 8579TIP3    H225681   1.959   1.589   6.707
 8580TIP3   OH225682   3.314   7.380   0.996
 8580TIP3    H125683   3.288   7.388   1.087
 8580TIP3    H225684   3.400   7.339   0.999
 8581TIP3   OH225685   4.809   6.072   1.908
 8581TIP3    H125686   4.838   6.142   1.849
 8581TIP3    H225687   4.815   5.992   1.856
 8582TIP3   OH225688   0.604   5.175   1.904
 8582TIP3    H125689   0.557   5.257   1.915
 8582TIP3    H225690   0.663   5.171   1.979
 8583TIP3   OH225691   3.320   7.218   2.424
 8583TIP3    H125692   3.316   7.312   2.440
 8583TIP3    H225693   3.414   7.197   2.430
 8584TIP3   OH225694   2.953   2.752   3.154
 8584TIP3    H125695   2.969   2.684   3.088
 8584TIP3    H225696   2.972   2.709   3.238
 8585TIP3   OH225697   1.451   1.913   1.572
 8585TIP3    H125698   1.474   1.992   1.523
 8585TIP3    H225699   1.471   1.935   1.663
 8586TIP3   OH225700   7.933   6.020   6.514
 8586TIP3    H125701   7.882   5.953   6.559
 8586TIP3    H225702   7.955   5.980   6.429
 8587TIP3   OH225703   4.553   4.508   5.793
 8587TIP3    H125704   4.502   4.525   5.872
 8587TIP3    H225705   4.493   4.459   5.736
 8588TIP3   OH225706   1.498   4.682   4.882
 8588TIP3    H125707   1.478   4.774   4.901
 8588TIP3    H225708   1.444   4.661   4.806
 8589TIP3   OH225709   4.152   1.258   5.799
 8589TIP3    H125710   4.063   1.278   5.770
 8589TIP3    H225711   4.209   1.305   5.739
 8590TIP3   OH225712   7.848   2.546   2.602
 8590TIP3    H125713   7.932   2.520   2.638
 8590TIP3    H225714   7.866   2.564   2.510
 8591TIP3   OH225715   5.714   0.458   2.627
 8591TIP3    H125716   5.790   0.488   2.577
 8591TIP3    H225717   5.749   0.390   2.685
 8592TIP3   OH225718   0.428   5.715   3.250
 8592TIP3    H125719   0.516   5.735   3.281
 8592TIP3    H225720   0.409   5.785   3.188
 8593TIP3   OH225721   2.381   1.227   1.149
 8593TIP3    H125722   2.415   1.137   1.142
 8593TIP3    H225723   2.366   1.239   1.242
 8594TIP3   OH225724   1.035   5.418   4.045
 8594TIP3    H125725   0.953   5.418   4.095
 8594TIP3    H225726   1.027   5.495   3.988
 8595TIP3   OH225727   4.860   4.301   5.424
 8595TIP3    H125728   4.794   4.249   5.378
 8595TIP3    H225729   4.809   4.368   5.471
 8596TIP3   OH225730   4.985   6.643   5.879
 8596TIP3    H125731   5.016   6.566   5.830
 8596TIP3    H225732   4.984   6.713   5.814
 8597TIP3   OH225733   3.206   6.306   1.161
 8597TIP3    H125734   3.234   6.393   1.190
 8597TIP3    H225735   3.150   6.275   1.232
 8598TIP3   OH225736   1.602   3.452   1.452
 8598TIP3    H125737   1.548   3.450   1.372
 8598TIP3    H225738   1.650   3.535   1.446
 8599TIP3   OH225739   5.149   2.687   2.612
 8599TIP3    H125740   5.063   2.648   2.600
 8599TIP3    H225741   5.200   2.658   2.536
 8600TIP3   OH225742   0.718   7.552   0.806
 8600TIP3    H125743   0.651   7.558   0.874
 8600TIP3    H225744   0.675   7.585   0.727
 8601TIP3   OH225745   3.582   4.751   4.737
 8601TIP3    H125746   3.668   4.788   4.752
 8601TIP3    H225747   3.536   4.761   4.820
 8602TIP3   OH225748   5.031   0.281   3.081
 8602TIP3    H125749   4.940   0.271   3.054
 8602TIP3    H225750   5.063   0.191   3.093
 8603TIP3   OH225751   2.348   0.681   3.295
 8603TIP3    H125752   2.420   0.635   3.336
 8603TIP3    H225753   2.350   0.768   3.335
 8604TIP3   OH225754   2.545   7.695   0.970
 8604TIP3    H125755   2.533   7.746   1.050
 8604TIP3    H225756   2.466   7.641   0.964
 8605TIP3   OH225757   5.275   3.495   0.557
 8605TIP3    H125758   5.285   3.581   0.598
 8605TIP3    H225759   5.336   3.496   0.484
 8606TIP3   OH225760   4.309   1.320   3.016
 8606TIP3    H125761   4.324   1.292   2.926
 8606TIP3    H225762   4.347   1.407   3.021
 8607TIP3   OH225763   3.441   1.399   1.741
 8607TIP3    H125764   3.465   1.425   1.830
 8607TIP3    H225765   3.364   1.344   1.751
 8608TIP3   OH225766   3.820   0.783   4.216
 8608TIP3    H125767   3.730   0.766   4.190
 8608TIP3    H225768   3.870   0.778   4.134
 8609TIP3   OH225769   0.384   7.450   1.935
 8609TIP3    H125770   0.334   7.497   1.869
 8609TIP3    H225771   0.363   7.357   1.919
 8610TIP3   OH225772   6.660   3.899   1.440
 8610TIP3    H125773   6.575   3.867   1.409
 8610TIP3    H225774   6.724   3.846   1.394
 8611TIP3   OH225775   3.765   2.333   4.591
 8611TIP3    H125776   3.746   2.251   4.637
 8611TIP3    H225777   3.703   2.335   4.518
 8612TIP3   OH225778   1.931   5.098   5.158
 8612TIP3    H125779   1.973   5.143   5.231
 8612TIP3    H225780   1.992   5.108   5.085
 8613TIP3   OH225781   0.030   2.142   0.847
 8613TIP3    H125782  -0.050   2.164   0.895
 8613TIP3    H225783   0.045   2.049   0.866
 8614TIP3   OH225784   3.444   4.497   2.409
 8614TIP3    H125785   3.351   4.509   2.430
 8614TIP3    H225786   3.480   4.586   2.407
 8615TIP3   OH225787   4.392   7.141   0.510
 8615TIP3    H125788   4.449   7.100   0.576
 8615TIP3    H225789   4.374   7.228   0.545
 8616TIP3   OH225790   4.672   7.447   5.539
 8616TIP3    H125791   4.653   7.360   5.504
 8616TIP3    H225792   4.664   7.505   5.463
 8617TIP3   OH225793   8.173   6.391   6.520
 8617TIP3    H125794   8.160   6.440   6.439
 8617TIP3    H225795   8.090   6.347   6.535
 8618TIP3   OH225796   2.673   1.809   6.568
 8618TIP3    H125797   2.763   1.785   6.546
 8618TIP3    H225798   2.647   1.872   6.500
 8619TIP3   OH225799   6.418   2.516   6.707
 8619TIP3    H125800   6.389   2.535   6.797
 8619TIP3    H225801   6.340   2.481   6.664
 8620TIP3   OH225802   2.546   6.353   1.961
 8620TIP3    H125803   2.510   6.356   1.873
 8620TIP3    H225804   2.640   6.366   1.949
 8621TIP3   OH225805   8.281   5.468   5.364
 8621TIP3    H125806   8.240   5.381   5.367
 8621TIP3    H225807   8.339   5.469   5.440
 8622TIP3   OH225808   0.801   2.246   3.955
 8622TIP3    H125809   0.852   2.270   4.032
 8622TIP3    H225810   0.785   2.152   3.965
 8623TIP3   OH225811   7.610   1.740   5.335
 8623TIP3    H125812   7.538   1.723   5.395
 8623TIP3    H225813   7.572   1.794   5.266
 8624TIP3   OH225814   0.543   1.849   0.440
 8624TIP3    H125815   0.472   1.826   0.381
 8624TIP3    H225816   0.513   1.928   0.485
 8625TIP3   OH225817   0.517   1.802   2.924
 8625TIP3    H125818   0.472   1.856   2.990
 8625TIP3    H225819   0.553   1.728   2.974
 8626TIP3   OH225820   0.816   1.958   0.349
 8626TIP3    H125821   0.796   2.050   0.367
 8626TIP3    H225822   0.734   1.912   0.366
 8627TIP3   OH225823   3.677   2.752   2.535
 8627TIP3    H125824   3.660   2.828   2.480
 8627TIP3    H225825   3.721   2.689   2.477
 8628TIP3   OH225826   0.312   6.502   4.818
 8628TIP3    H125827   0.302   6.589   4.857
 8628TIP3    H225828   0.347   6.449   4.889
 8629TIP3   OH225829   8.119   1.008   1.015
 8629TIP3    H125830   8.131   0.994   0.921
 8629TIP3    H225831   8.029   1.038   1.024
 8630TIP3   OH225832   7.666   2.969   2.910
 8630TIP3    H125833   7.586   3.008   2.945
 8630TIP3    H225834   7.689   2.901   2.974
 8631TIP3   OH225835   6.032   2.285   5.006
 8631TIP3    H125836   5.972   2.303   4.934
 8631TIP3    H225837   6.084   2.210   4.975
 8632TIP3   OH225838   3.117   6.580   3.218
 8632TIP3    H125839   3.102   6.659   3.166
 8632TIP3    H225840   3.147   6.514   3.155
 8633TIP3   OH225841   5.450   7.508   0.655
 8633TIP3    H125842   5.427   7.548   0.571
 8633TIP3    H225843   5.392   7.433   0.663
 8634TIP3   OH225844   3.896   2.241   1.849
 8634TIP3    H125845   3.892   2.158   1.801
 8634TIP3    H225846   3.962   2.292   1.802
 8635TIP3   OH225847   3.369   4.418   1.772
 8635TIP3    H125848   3.359   4.347   1.708
 8635TIP3    H225849   3.281   4.452   1.784
 8636TIP3   OH225850   1.459   1.575   5.367
 8636TIP3    H125851   1.453   1.647   5.304
 8636TIP3    H225852   1.536   1.525   5.340
 8637TIP3   OH225853   7.359   6.120   2.598
 8637TIP3    H125854   7.321   6.057   2.659
 8637TIP3    H225855   7.305   6.111   2.519
 8638TIP3   OH225856   2.190   0.520   5.701
 8638TIP3    H125857   2.098   0.512   5.676
 8638TIP3    H225858   2.189   0.521   5.797
 8639TIP3   OH225859   7.315   0.686   6.730
 8639TIP3    H125860   7.262   0.607   6.728
 8639TIP3    H225861   7.347   0.691   6.820
 8640TIP3   OH225862   7.250   0.548   3.448
 8640TIP3    H125863   7.238   0.640   3.471
 8640TIP3    H225864   7.233   0.500   3.529
 8641TIP3   OH225865   0.827   4.819   6.678
 8641TIP3    H125866   0.897   4.849   6.619
 8641TIP3    H225867   0.801   4.734   6.643
 8642TIP3   OH225868   3.363   3.120   5.761
 8642TIP3    H125869   3.373   3.041   5.813
 8642TIP3    H225870   3.358   3.191   5.825
 8643TIP3   OH225871   4.777   3.484   1.694
 8643TIP3    H125872   4.698   3.524   1.732
 8643TIP3    H225873   4.849   3.523   1.744
 8644TIP3   OH225874   8.156   2.035   4.872
 8644TIP3    H125875   8.233   2.032   4.816
 8644TIP3    H225876   8.134   2.128   4.878
 8645TIP3   OH225877   1.936   5.048   0.903
 8645TIP3    H125878   2.005   5.107   0.873
 8645TIP3    H225879   1.891   5.097   0.971
 8646TIP3   OH225880   0.114   5.632   0.313
 8646TIP3    H125881   0.066   5.583   0.247
 8646TIP3    H225882   0.102   5.724   0.290
 8647TIP3   OH225883   3.682   6.217   1.311
 8647TIP3    H125884   3.701   6.171   1.230
 8647TIP3    H225885   3.757   6.198   1.368
 8648TIP3   OH225886   3.168   3.780   6.354
 8648TIP3    H125887   3.235   3.768   6.288
 8648TIP3    H225888   3.124   3.695   6.359
 8649TIP3   OH225889   4.484   2.116   5.494
 8649TIP3    H125890   4.567   2.150   5.528
 8649TIP3    H225891   4.431   2.102   5.573
 8650TIP3   OH225892   2.830   2.037   0.396
 8650TIP3    H125893   2.894   1.999   0.335
 8650TIP3    H225894   2.768   2.084   0.339
 8651TIP3   OH225895   0.870   5.231   5.991
 8651TIP3    H125896   0.903   5.320   5.988
 8651TIP3    H225897   0.805   5.226   5.921
 8652TIP3   OH225898   6.500   6.888   4.699
 8652TIP3    H125899   6.447   6.809   4.690
 8652TIP3    H225900   6.589   6.856   4.709
 8653TIP3   OH225901   7.594   0.317   4.012
 8653TIP3    H125902   7.554   0.347   3.930
 8653TIP3    H225903   7.632   0.396   4.051
 8654TIP3   OH225904   7.613   5.978   2.240
 8654TIP3    H125905   7.642   6.053   2.293
 8654TIP3    H225906   7.672   5.977   2.165
 8655TIP3   OH225907   2.079   3.289   0.580
 8655TIP3    H125908   2.140   3.234   0.629
 8655TIP3    H225909   1.992   3.257   0.604
 8656TIP3   OH225910   7.349   5.909   2.239
 8656TIP3    H125911   7.317   5.903   2.149
 8656TIP3    H225912   7.442   5.931   2.229
 8657TIP3   OH225913   2.911   7.006   2.578
 8657TIP3    H125914   2.983   6.967   2.629
 8657TIP3    H225915   2.949   7.085   2.540
 8658TIP3   OH225916   5.858   6.105   6.699
 8658TIP3    H125917   5.881   6.107   6.792
 8658TIP3    H225918   5.910   6.176   6.661
 8659TIP3   OH225919   0.726   3.543   2.086
 8659TIP3    H125920   0.796   3.569   2.025
 8659TIP3    H225921   0.662   3.613   2.078
 8660TIP3   OH225922   3.370   2.124   2.675
 8660TIP3    H125923   3.390   2.205   2.628
 8660TIP3    H225924   3.341   2.063   2.607
 8661TIP3   OH225925   2.369   6.998   6.415
 8661TIP3    H125926   2.408   6.921   6.455
 8661TIP3    H225927   2.405   7.072   6.465
 8662TIP3   OH225928   3.855   7.355   4.050
 8662TIP3    H125929   3.911   7.302   4.107
 8662TIP3    H225930   3.916   7.407   3.998
 8663TIP3   OH225931   1.340   6.138   6.677
 8663TIP3    H125932   1.289   6.202   6.726
 8663TIP3    H225933   1.361   6.182   6.594
 8664TIP3   OH225934   6.428   6.273   0.530
 8664TIP3    H125935   6.383   6.203   0.575
 8664TIP3    H225936   6.395   6.269   0.440
 8665TIP3   OH225937   5.124   4.544   1.707
 8665TIP3    H125938   5.122   4.637   1.684
 8665TIP3    H225939   5.146   4.544   1.801
 8666TIP3   OH225940   1.687   3.198   0.875
 8666TIP3    H125941   1.598   3.166   0.895
 8666TIP3    H225942   1.744   3.127   0.903
 8667TIP3   OH225943   5.426   4.183   0.708
 8667TIP3    H125944   5.458   4.240   0.778
 8667TIP3    H225945   5.487   4.109   0.709
 8668TIP3   OH225946   7.090   3.224   4.339
 8668TIP3    H125947   7.139   3.306   4.332
 8668TIP3    H225948   7.015   3.236   4.280
 8669TIP3   OH225949   4.886   6.097   4.828
 8669TIP3    H125950   4.951   6.161   4.800
 8669TIP3    H225951   4.924   6.013   4.806
 8670TIP3   OH225952   4.296   4.269   1.831
 8670TIP3    H125953   4.217   4.257   1.779
 8670TIP3    H225954   4.365   4.283   1.767
 8671TIP3   OH225955   3.835   6.644   1.796
 8671TIP3    H125956   3.903   6.711   1.786
 8671TIP3    H225957   3.782   6.676   1.869
 8672TIP3   OH225958   1.649   4.113   6.298
 8672TIP3    H125959   1.657   4.207   6.281
 8672TIP3    H225960   1.560   4.101   6.330
 8673TIP3   OH225961   1.092   2.311   0.868
 8673TIP3    H125962   1.002   2.337   0.850
 8673TIP3    H225963   1.139   2.330   0.786
 8674TIP3   OH225964   7.534   0.164   3.506
 8674TIP3    H125965   7.525   0.080   3.461
 8674TIP3    H225966   7.449   0.180   3.547
 8675TIP3   OH225967   5.768   0.931   0.996
 8675TIP3    H125968   5.774   0.854   1.052
 8675TIP3    H225969   5.783   1.005   1.055
 8676TIP3   OH225970   5.856   3.438   6.381
 8676TIP3    H125971   5.783   3.383   6.352
 8676TIP3    H225972   5.821   3.527   6.378
 8677TIP3   OH225973   6.678   0.586   3.159
 8677TIP3    H125974   6.627   0.597   3.079
 8677TIP3    H225975   6.684   0.491   3.171
 8678TIP3   OH225976   3.407   1.128   2.556
 8678TIP3    H125977   3.399   1.217   2.523
 8678TIP3    H225978   3.407   1.073   2.477
 8679TIP3   OH225979   6.929   5.598   5.769
 8679TIP3    H125980   6.839   5.573   5.785
 8679TIP3    H225981   6.948   5.664   5.837
 8680TIP3   OH225982   0.547   3.278   5.847
 8680TIP3    H125983   0.491   3.304   5.774
 8680TIP3    H225984   0.628   3.327   5.834
 8681TIP3   OH225985   1.670   4.577   5.357
 8681TIP3    H125986   1.595   4.608   5.408
 8681TIP3    H225987   1.745   4.586   5.415
 8682TIP3   OH225988   3.397   3.104   3.557
 8682TIP3    H125989   3.355   3.190   3.557
 8682TIP3    H225990   3.462   3.110   3.487
 8683TIP3   OH225991   3.452   2.482   5.085
 8683TIP3    H125992   3.387   2.444   5.026
 8683TIP3    H225993   3.497   2.547   5.032
 8684TIP3   OH225994   1.517   3.485   1.040
 8684TIP3    H125995   1.510   3.468   0.946
 8684TIP3    H225996   1.605   3.521   1.051
 8685TIP3   OH225997   4.882   1.033   5.782
 8685TIP3    H125998   4.798   1.047   5.826
 8685TIP3    H225999   4.907   1.119   5.748
 8686TIP3   OH226000   0.914   4.918   3.334
 8686TIP3    H126001   0.901   4.882   3.422
 8686TIP3    H226002   0.943   5.008   3.350
 8687TIP3   OH226003   7.690   1.182   3.190
 8687TIP3    H126004   7.647   1.212   3.270
 8687TIP3    H226005   7.639   1.222   3.119
 8688TIP3   OH226006   8.220   4.293   5.752
 8688TIP3    H126007   8.205   4.228   5.683
 8688TIP3    H226008   8.176   4.256   5.829
 8689TIP3   OH226009   6.365   1.455   1.105
 8689TIP3    H126010   6.344   1.466   1.198
 8689TIP3    H226011   6.298   1.506   1.059
 8690TIP3   OH226012   2.088   0.859   0.876
 8690TIP3    H126013   2.119   0.898   0.958
 8690TIP3    H226014   2.158   0.878   0.813
 8691TIP3   OH226015   3.003   4.098   0.506
 8691TIP3    H126016   2.987   4.117   0.414
 8691TIP3    H226017   3.070   4.160   0.533
 8692TIP3   OH226018   0.513   0.254   3.870
 8692TIP3    H126019   0.547   0.217   3.789
 8692TIP3    H226020   0.465   0.182   3.912
 8693TIP3   OH226021   1.516   1.264   1.116
 8693TIP3    H126022   1.424   1.256   1.091
 8693TIP3    H226023   1.535   1.185   1.166
 8694TIP3   OH226024   2.374   6.267   0.449
 8694TIP3    H126025   2.391   6.242   0.540
 8694TIP3    H226026   2.361   6.362   0.452
 8695TIP3   OH226027   1.962   3.248   6.420
 8695TIP3    H126028   2.046   3.246   6.375
 8695TIP3    H226029   1.964   3.172   6.479
 8696TIP3   OH226030   2.933   0.430   5.536
 8696TIP3    H126031   2.855   0.470   5.574
 8696TIP3    H226032   2.908   0.411   5.445
 8697TIP3   OH226033   6.328   2.677   2.775
 8697TIP3    H126034   6.331   2.754   2.831
 8697TIP3    H226035   6.412   2.678   2.729
 8698TIP3   OH226036   0.395   4.669   3.231
 8698TIP3    H126037   0.346   4.685   3.311
 8698TIP3    H226038   0.404   4.574   3.227
 8699TIP3   OH226039   7.601   7.416   0.249
 8699TIP3    H126040   7.578   7.486   0.188
 8699TIP3    H226041   7.560   7.441   0.331
 8700TIP3   OH226042   5.862   3.116   1.100
 8700TIP3    H126043   5.859   3.150   1.189
 8700TIP3    H226044   5.909   3.033   1.108
 8701TIP3   OH226045   4.104   7.341   2.125
 8701TIP3    H126046   4.171   7.276   2.149
 8701TIP3    H226047   4.121   7.416   2.181
 8702TIP3   OH226048   1.388   3.052   2.356
 8702TIP3    H126049   1.368   3.088   2.269
 8702TIP3    H226050   1.410   2.961   2.340
 8703TIP3   OH226051   6.403   2.504   1.706
 8703TIP3    H126052   6.434   2.508   1.796
 8703TIP3    H226053   6.436   2.584   1.666
 8704TIP3   OH226054   4.735   5.407   3.915
 8704TIP3    H126055   4.744   5.480   3.975
 8704TIP3    H226056   4.825   5.382   3.895
 8705TIP3   OH226057   1.695   6.200   1.205
 8705TIP3    H126058   1.777   6.225   1.247
 8705TIP3    H226059   1.696   6.104   1.204
 8706TIP3   OH226060   2.667   6.107   0.120
 8706TIP3    H126061   2.575   6.094   0.098
 8706TIP3    H226062   2.714   6.041   0.069
 8707TIP3   OH226063   2.791   3.341   5.318
 8707TIP3    H126064   2.784   3.309   5.408
 8707TIP3    H226065   2.702   3.338   5.285
 8708TIP3   OH226066   3.642   1.444   3.897
 8708TIP3    H126067   3.606   1.513   3.840
 8708TIP3    H226068   3.573   1.377   3.898
 8709TIP3   OH226069   7.952   0.472   0.000
 8709TIP3    H126070   7.946   0.491   0.094
 8709TIP3    H226071   7.963   0.557  -0.041
 8710TIP3   OH226072   6.214   4.524   2.697
 8710TIP3    H126073   6.173   4.492   2.777
 8710TIP3    H226074   6.145   4.517   2.630
 8711TIP3   OH226075   5.314   4.703   0.987
 8711TIP3    H126076   5.409   4.698   0.979
 8711TIP3    H226077   5.300   4.751   1.069
 8712TIP3   OH226078   4.237   2.714   4.900
 8712TIP3    H126079   4.257   2.743   4.989
 8712TIP3    H226080   4.155   2.664   4.909
 8713TIP3   OH226081   7.726   4.663   5.218
 8713TIP3    H126082   7.681   4.739   5.255
 8713TIP3    H226083   7.778   4.699   5.146
 8714TIP3   OH226084   7.163   7.382   3.213
 8714TIP3    H126085   7.084   7.419   3.251
 8714TIP3    H226086   7.134   7.344   3.129
 8715TIP3   OH226087   4.998   4.907   1.336
 8715TIP3    H126088   4.986   4.967   1.262
 8715TIP3    H226089   5.089   4.879   1.329
 8716TIP3   OH226090   2.877   0.953   3.607
 8716TIP3    H126091   2.959   1.001   3.620
 8716TIP3    H226092   2.900   0.883   3.546
 8717TIP3   OH226093   4.481   4.196   6.337
 8717TIP3    H126094   4.544   4.236   6.397
 8717TIP3    H226095   4.497   4.102   6.344
 8718TIP3   OH226096   3.291   2.889   2.285
 8718TIP3    H126097   3.336   2.948   2.345
 8718TIP3    H226098   3.201   2.884   2.318
 8719TIP3   OH226099   6.242   3.269   5.951
 8719TIP3    H126100   6.200   3.345   5.992
 8719TIP3    H226101   6.205   3.194   5.997
 8720TIP3   OH226102   0.060   3.166   5.401
 8720TIP3    H126103   0.036   3.199   5.315
 8720TIP3    H226104   0.051   3.241   5.460
 8721TIP3   OH226105   2.300   2.508   2.291
 8721TIP3    H126106   2.234   2.561   2.334
 8721TIP3    H226107   2.361   2.571   2.253
 8722TIP3   OH226108   7.371   0.697   4.989
 8722TIP3    H126109   7.350   0.711   4.897
 8722TIP3    H226110   7.386   0.603   4.997
 8723TIP3   OH226111   0.377   1.596   5.571
 8723TIP3    H126112   0.353   1.682   5.539
 8723TIP3    H226113   0.297   1.561   5.611
 8724TIP3   OH226114   4.778   4.093   6.323
 8724TIP3    H126115   4.779   4.001   6.297
 8724TIP3    H226116   4.727   4.137   6.255
 8725TIP3   OH226117   1.388   2.516   3.749
 8725TIP3    H126118   1.417   2.442   3.696
 8725TIP3    H226119   1.384   2.482   3.838
 8726TIP3   OH226120   4.235   6.747   5.175
 8726TIP3    H126121   4.304   6.802   5.211
 8726TIP3    H226122   4.273   6.710   5.095
 8727TIP3   OH226123   2.848   5.838   2.132
 8727TIP3    H126124   2.759   5.872   2.141
 8727TIP3    H226125   2.867   5.800   2.218
 8728TIP3   OH226126   8.264   7.669   5.290
 8728TIP3    H126127   8.301   7.680   5.202
 8728TIP3    H226128   8.303   7.740   5.341
 8729TIP3   OH226129   2.249   4.645   2.010
 8729TIP3    H126130   2.211   4.598   2.084
 8729TIP3    H226131   2.176   4.658   1.949
 8730TIP3   OH226132   2.967   2.722   0.004
 8730TIP3    H126133   2.998   2.635  -0.022
 8730TIP3    H226134   2.901   2.704   0.071
 8731TIP3   OH226135   5.495   5.414   3.956
 8731TIP3    H126136   5.413   5.371   3.931
 8731TIP3    H226137   5.511   5.385   4.046
 8732TIP3   OH226138   7.475   1.604   2.773
 8732TIP3    H126139   7.428   1.687   2.777
 8732TIP3    H226140   7.544   1.612   2.839
 8733TIP3   OH226141   7.123   2.326   0.407
 8733TIP3    H126142   7.114   2.300   0.316
 8733TIP3    H226143   7.059   2.397   0.418
 8734TIP3   OH226144   5.046   2.410   0.525
 8734TIP3    H126145   5.089   2.350   0.465
 8734TIP3    H226146   4.967   2.364   0.552
 8735TIP3   OH226147   3.919   7.647   2.522
 8735TIP3    H126148   3.980   7.664   2.593
 8735TIP3    H226149   3.833   7.668   2.559
 8736TIP3   OH226150   4.338   3.773   4.515
 8736TIP3    H126151   4.416   3.732   4.553
 8736TIP3    H226152   4.286   3.801   4.590
 8737TIP3   OH226153   5.615   2.980   6.412
 8737TIP3    H126154   5.640   2.893   6.443
 8737TIP3    H226155   5.597   3.029   6.491
 8738TIP3   OH226156   4.479   0.810   2.645
 8738TIP3    H126157   4.472   0.906   2.640
 8738TIP3    H226158   4.522   0.794   2.729
 8739TIP3   OH226159   6.689   3.197   3.387
 8739TIP3    H126160   6.661   3.281   3.424
 8739TIP3    H226161   6.781   3.189   3.413
 8740TIP3   OH226162   3.404   5.720   2.242
 8740TIP3    H126163   3.480   5.670   2.274
 8740TIP3    H226164   3.340   5.654   2.218
 8741TIP3   OH226165   5.908   2.490   1.436
 8741TIP3    H126166   5.986   2.528   1.396
 8741TIP3    H226167   5.906   2.400   1.403
 8742TIP3   OH226168   4.039   1.501   4.114
 8742TIP3    H126169   4.128   1.465   4.122
 8742TIP3    H226170   3.988   1.430   4.075
 8743TIP3   OH226171   4.675   5.755   5.341
 8743TIP3    H126172   4.756   5.789   5.304
 8743TIP3    H226173   4.700   5.723   5.428
 8744TIP3   OH226174   4.801   4.331   0.615
 8744TIP3    H126175   4.869   4.298   0.556
 8744TIP3    H226176   4.721   4.287   0.588
 8745TIP3   OH226177   5.272   5.361   0.205
 8745TIP3    H126178   5.320   5.444   0.198
 8745TIP3    H226179   5.318   5.312   0.273
 8746TIP3   OH226180   8.123   6.743   0.328
 8746TIP3    H126181   8.204   6.708   0.291
 8746TIP3    H226182   8.142   6.754   0.421
 8747TIP3   OH226183   1.940   4.336   2.669
 8747TIP3    H126184   1.871   4.339   2.735
 8747TIP3    H226185   2.022   4.335   2.718
 8748TIP3   OH226186   6.376   7.457   6.239
 8748TIP3    H126187   6.451   7.471   6.298
 8748TIP3    H226188   6.330   7.540   6.239
 8749TIP3   OH226189   4.722   2.310   3.018
 8749TIP3    H126190   4.707   2.398   3.053
 8749TIP3    H226191   4.726   2.253   3.095
 8750TIP3   OH226192   3.292   3.840   1.198
 8750TIP3    H126193   3.346   3.879   1.267
 8750TIP3    H226194   3.277   3.911   1.136
 8751TIP3   OH226195   2.716   5.816   0.344
 8751TIP3    H126196   2.654   5.888   0.357
 8751TIP3    H226197   2.738   5.820   0.251
 8752TIP3   OH226198   6.827   4.020   0.888
 8752TIP3    H126199   6.745   4.009   0.839
 8752TIP3    H226200   6.841   4.115   0.890
 8753TIP3   OH226201   4.336   6.231   4.848
 8753TIP3    H126202   4.404   6.297   4.862
 8753TIP3    H226203   4.356   6.163   4.913
 8754TIP3   OH226204   0.207   4.785   3.510
 8754TIP3    H126205   0.143   4.723   3.476
 8754TIP3    H226206   0.154   4.858   3.543
 8755TIP3   OH226207   7.138   2.961   3.651
 8755TIP3    H126208   7.207   3.022   3.677
 8755TIP3    H226209   7.184   2.894   3.599
 8756TIP3   OH226210   4.485   4.300   3.857
 8756TIP3    H126211   4.416   4.361   3.883
 8756TIP3    H226212   4.438   4.229   3.813
 8757TIP3   OH226213   1.454   0.941   3.367
 8757TIP3    H126214   1.487   0.997   3.296
 8757TIP3    H226215   1.404   0.873   3.322
 8758TIP3   OH226216   7.451   1.144   4.746
 8758TIP3    H126217   7.529   1.102   4.782
 8758TIP3    H226218   7.482   1.190   4.668
 8759TIP3   OH226219   3.716   5.284   2.375
 8759TIP3    H126220   3.806   5.294   2.344
 8759TIP3    H226221   3.662   5.291   2.296
 8760TIP3   OH226222   7.545   2.265   6.741
 8760TIP3    H126223   7.460   2.290   6.703
 8760TIP3    H226224   7.540   2.170   6.749
 8761TIP3   OH226225   4.603   2.153   0.179
 8761TIP3    H126226   4.630   2.239   0.210
 8761TIP3    H226227   4.507   2.153   0.187
 8762TIP3   OH226228   7.054   0.946   4.216
 8762TIP3    H126229   7.114   0.976   4.285
 8762TIP3    H226230   6.969   0.938   4.260
 8763TIP3   OH226231   6.921   2.608   1.873
 8763TIP3    H126232   6.972   2.530   1.853
 8763TIP3    H226233   6.876   2.587   1.955
 8764TIP3   OH226234   7.147   4.023   2.597
 8764TIP3    H126235   7.108   3.936   2.593
 8764TIP3    H226236   7.116   4.067   2.517
 8765TIP3   OH226237   3.071   1.473   5.072
 8765TIP3    H126238   3.054   1.379   5.074
 8765TIP3    H226239   2.985   1.513   5.063
 8766TIP3   OH226240   8.210   1.318   5.434
 8766TIP3    H126241   8.156   1.269   5.372
 8766TIP3    H226242   8.299   1.309   5.400
 8767TIP3   OH226243   3.976   5.711   6.052
 8767TIP3    H126244   3.972   5.616   6.041
 8767TIP3    H226245   4.064   5.735   6.021
 8768TIP3   OH226246   3.658   4.607   0.185
 8768TIP3    H126247   3.590   4.675   0.194
 8768TIP3    H226248   3.662   4.566   0.272
 8769TIP3   OH226249   6.770   0.395   6.093
 8769TIP3    H126250   6.799   0.459   6.158
 8769TIP3    H226251   6.815   0.314   6.117
 8770TIP3   OH226252   0.224   7.778   4.842
 8770TIP3    H126253   0.316   7.793   4.867
 8770TIP3    H226254   0.190   7.865   4.822
 8771TIP3   OH226255   7.916   7.775   5.270
 8771TIP3    H126256   7.896   7.690   5.232
 8771TIP3    H226257   7.965   7.756   5.349
 8772TIP3   OH226258   6.147   6.535   6.525
 8772TIP3    H126259   6.169   6.577   6.608
 8772TIP3    H226260   6.218   6.560   6.466
 8773TIP3   OH226261   3.280   4.108   1.968
 8773TIP3    H126262   3.373   4.127   1.963
 8773TIP3    H226263   3.254   4.089   1.878
 8774TIP3   OH226264   4.736   4.824   1.939
 8774TIP3    H126265   4.719   4.848   1.848
 8774TIP3    H226266   4.773   4.904   1.978
 8775TIP3   OH226267   3.734   0.513   5.641
 8775TIP3    H126268   3.646   0.476   5.628
 8775TIP3    H226269   3.729   0.599   5.600
 8776TIP3   OH226270   3.802   2.468   1.964
 8776TIP3    H126271   3.829   2.386   1.922
 8776TIP3    H226272   3.750   2.512   1.897
 8777TIP3   OH226273   0.189   3.147   3.281
 8777TIP3    H126274   0.204   3.135   3.187
 8777TIP3    H226275   0.227   3.070   3.322
 8778TIP3   OH226276   5.679   3.575   4.513
 8778TIP3    H126277   5.716   3.500   4.559
 8778TIP3    H226278   5.586   3.553   4.502
 8779TIP3   OH226279   6.782   5.956   1.168
 8779TIP3    H126280   6.847   6.013   1.209
 8779TIP3    H226281   6.828   5.874   1.152
 8780TIP3   OH226282   1.627   3.740   3.415
 8780TIP3    H126283   1.675   3.658   3.421
 8780TIP3    H226284   1.589   3.739   3.327
 8781TIP3   OH226285   2.161   5.080   3.094
 8781TIP3    H126286   2.105   5.048   3.023
 8781TIP3    H226287   2.128   5.167   3.113
 8782TIP3   OH226288   0.544   6.868   6.263
 8782TIP3    H126289   0.501   6.831   6.185
 8782TIP3    H226290   0.533   6.801   6.331
 8783TIP3   OH226291   7.056   4.019   0.527
 8783TIP3    H126292   7.003   4.052   0.454
 8783TIP3    H226293   7.012   4.050   0.606
 8784TIP3   OH226294   7.470   2.320   3.959
 8784TIP3    H126295   7.526   2.288   4.030
 8784TIP3    H226296   7.522   2.387   3.915
 8785TIP3   OH226297   7.863   4.205   1.393
 8785TIP3    H126298   7.791   4.257   1.428
 8785TIP3    H226299   7.916   4.182   1.470
 8786TIP3   OH226300   1.000   1.249   6.257
 8786TIP3    H126301   1.016   1.239   6.163
 8786TIP3    H226302   0.923   1.306   6.263
 8787TIP3   OH226303   6.754   7.810   3.145
 8787TIP3    H126304   6.807   7.875   3.191
 8787TIP3    H226305   6.817   7.751   3.103
 8788TIP3   OH226306   3.325   6.909   0.300
 8788TIP3    H126307   3.402   6.855   0.318
 8788TIP3    H226308   3.258   6.847   0.272
 8789TIP3   OH226309   3.507   0.175   2.126
 8789TIP3    H126310   3.446   0.114   2.166
 8789TIP3    H226311   3.506   0.154   2.033
 8790TIP3   OH226312   5.096   4.706   4.917
 8790TIP3    H126313   5.157   4.632   4.912
 8790TIP3    H226314   5.140   4.769   4.973
 8791TIP3   OH226315   7.336   4.492   5.068
 8791TIP3    H126316   7.314   4.456   5.154
 8791TIP3    H226317   7.253   4.487   5.019
 8792TIP3   OH226318   2.507   6.369   2.436
 8792TIP3    H126319   2.537   6.459   2.423
 8792TIP3    H226320   2.455   6.349   2.358
 8793TIP3   OH226321   1.445   0.820   4.166
 8793TIP3    H126322   1.429   0.739   4.214
 8793TIP3    H226323   1.361   0.868   4.171
 8794TIP3   OH226324   4.316   2.660   6.078
 8794TIP3    H126325   4.331   2.749   6.110
 8794TIP3    H226326   4.404   2.627   6.058
 8795TIP3   OH226327   3.385   0.309   1.017
 8795TIP3    H126328   3.443   0.332   1.089
 8795TIP3    H226329   3.432   0.241   0.969
 8796TIP3   OH226330   4.053   4.110   4.237
 8796TIP3    H126331   4.096   4.036   4.279
 8796TIP3    H226332   4.122   4.174   4.223
 8797TIP3   OH226333   6.799   6.546   0.727
 8797TIP3    H126334   6.796   6.624   0.782
 8797TIP3    H226335   6.727   6.492   0.759
 8798TIP3   OH226336   0.176   3.796   1.183
 8798TIP3    H126337   0.081   3.810   1.181
 8798TIP3    H226338   0.186   3.701   1.189
 8799TIP3   OH226339   2.509   3.726   1.001
 8799TIP3    H126340   2.553   3.809   1.018
 8799TIP3    H226341   2.488   3.728   0.907
 8800TIP3   OH226342   2.641   5.274   5.532
 8800TIP3    H126343   2.597   5.352   5.500
 8800TIP3    H226344   2.596   5.202   5.489
 8801TIP3   OH226345   2.832   0.156   5.907
 8801TIP3    H126346   2.810   0.169   5.815
 8801TIP3    H226347   2.911   0.102   5.905
 8802TIP3   OH226348   6.906   7.001   5.302
 8802TIP3    H126349   6.979   6.967   5.251
 8802TIP3    H226350   6.947   7.051   5.373
 8803TIP3   OH226351   6.716   0.776   3.353
 8803TIP3    H126352   6.686   0.710   3.291
 8803TIP3    H226353   6.637   0.822   3.379
 8804TIP3   OH226354   5.614   6.719   5.487
 8804TIP3    H126355   5.693   6.754   5.526
 8804TIP3    H226356   5.576   6.663   5.554
 8805TIP3   OH226357   6.617   7.635   0.378
 8805TIP3    H126358   6.524   7.656   0.374
 8805TIP3    H226359   6.619   7.541   0.396
 8806TIP3   OH226360   3.520   2.672   4.898
 8806TIP3    H126361   3.567   2.750   4.925
 8806TIP3    H226362   3.565   2.642   4.819
 8807TIP3   OH226363   5.494   2.658   5.199
 8807TIP3    H126364   5.442   2.705   5.134
 8807TIP3    H226365   5.569   2.624   5.149
 8808TIP3   OH226366   7.014   6.393   0.325
 8808TIP3    H126367   6.922   6.384   0.352
 8808TIP3    H226368   7.038   6.307   0.294
 8809TIP3   OH226369   0.429   1.321   3.904
 8809TIP3    H126370   0.505   1.345   3.850
 8809TIP3    H226371   0.431   1.226   3.906
 8810TIP3   OH226372   4.853   1.042   6.659
 8810TIP3    H126373   4.940   1.072   6.688
 8810TIP3    H226374   4.857   0.947   6.666
 8811TIP3   OH226375   2.619   6.768   2.079
 8811TIP3    H126376   2.649   6.852   2.113
 8811TIP3    H226377   2.674   6.752   2.003
 8812TIP3   OH226378   4.754   0.919   4.887
 8812TIP3    H126379   4.688   0.873   4.835
 8812TIP3    H226380   4.757   1.007   4.849
 8813TIP3   OH226381   4.296   0.490   5.610
 8813TIP3    H126382   4.346   0.518   5.533
 8813TIP3    H226383   4.210   0.468   5.575
 8814TIP3   OH226384   0.101   5.759   5.633
 8814TIP3    H126385   0.140   5.836   5.674
 8814TIP3    H226386   0.067   5.790   5.549
 8815TIP3   OH226387   5.009   4.751   2.782
 8815TIP3    H126388   4.947   4.693   2.826
 8815TIP3    H226389   5.072   4.775   2.849
 8816TIP3   OH226390   6.679   1.794   1.208
 8816TIP3    H126391   6.718   1.837   1.131
 8816TIP3    H226392   6.595   1.839   1.220
 8817TIP3   OH226393   7.983   0.212   4.228
 8817TIP3    H126394   8.028   0.215   4.312
 8817TIP3    H226395   8.040   0.159   4.172
 8818TIP3   OH226396   6.052   1.060   2.144
 8818TIP3    H126397   5.966   1.058   2.102
 8818TIP3    H226398   6.060   1.150   2.177
 8819TIP3   OH226399   5.693   4.058   1.558
 8819TIP3    H126400   5.609   4.024   1.589
 8819TIP3    H226401   5.688   4.152   1.575
 8820TIP3   OH226402   5.337   3.382   2.176
 8820TIP3    H126403   5.291   3.350   2.254
 8820TIP3    H226404   5.369   3.468   2.201
 8821TIP3   OH226405   6.724   4.062   5.328
 8821TIP3    H126406   6.696   4.150   5.354
 8821TIP3    H226407   6.662   4.004   5.373
 8822TIP3   OH226408   6.696   3.949   2.407
 8822TIP3    H126409   6.640   3.955   2.485
 8822TIP3    H226410   6.661   3.874   2.359
 8823TIP3   OH226411   1.392   1.881   4.066
 8823TIP3    H126412   1.362   1.790   4.066
 8823TIP3    H226413   1.386   1.908   4.158
 8824TIP3   OH226414   5.050   3.863   6.291
 8824TIP3    H126415   4.996   3.898   6.362
 8824TIP3    H226416   4.990   3.855   6.217
 8825TIP3   OH226417   7.960   1.997   2.397
 8825TIP3    H126418   7.902   1.935   2.352
 8825TIP3    H226419   7.963   2.073   2.340
 8826TIP3   OH226420   1.656   5.905   1.292
 8826TIP3    H126421   1.625   5.907   1.201
 8826TIP3    H226422   1.738   5.858   1.288
 8827TIP3   OH226423   1.417   7.181   2.775
 8827TIP3    H126424   1.331   7.141   2.779
 8827TIP3    H226425   1.425   7.230   2.857
 8828TIP3   OH226426   5.006   0.938   2.579
 8828TIP3    H126427   5.012   0.943   2.674
 8828TIP3    H226428   4.942   0.868   2.562
 8829TIP3   OH226429   6.385   1.566   3.342
 8829TIP3    H126430   6.352   1.482   3.308
 8829TIP3    H226431   6.473   1.574   3.306
 8830TIP3   OH226432   1.668   2.002   4.780
 8830TIP3    H126433   1.711   2.087   4.769
 8830TIP3    H226434   1.690   1.975   4.869
 8831TIP3   OH226435   5.418   4.830   0.358
 8831TIP3    H126436   5.378   4.782   0.430
 8831TIP3    H226437   5.438   4.917   0.394
 8832TIP3   OH226438   7.082   6.264   1.487
 8832TIP3    H126439   7.126   6.251   1.571
 8832TIP3    H226440   7.131   6.335   1.445
 8833TIP3   OH226441   0.149   4.469   0.810
 8833TIP3    H126442   0.110   4.404   0.868
 8833TIP3    H226443   0.242   4.446   0.807
 8834TIP3   OH226444   1.184   0.217   3.679
 8834TIP3    H126445   1.258   0.258   3.635
 8834TIP3    H226446   1.122   0.288   3.694
 8835TIP3   OH226447   1.150   2.926   1.952
 8835TIP3    H126448   1.108   2.871   1.886
 8835TIP3    H226449   1.234   2.883   1.969
 8836TIP3   OH226450   2.138   4.572   2.251
 8836TIP3    H126451   2.063   4.626   2.274
 8836TIP3    H226452   2.175   4.544   2.335
 8837TIP3   OH226453   1.730   4.207   4.199
 8837TIP3    H126454   1.815   4.240   4.229
 8837TIP3    H226455   1.667   4.271   4.232
 8838TIP3   OH226456   7.274   0.070   1.824
 8838TIP3    H126457   7.250  -0.023   1.827
 8838TIP3    H226458   7.359   0.074   1.867
 8839TIP3   OH226459   5.274   3.631   3.920
 8839TIP3    H126460   5.210   3.602   3.856
 8839TIP3    H226461   5.336   3.685   3.870
 8840TIP3   OH226462   7.587   4.373   3.097
 8840TIP3    H126463   7.630   4.377   3.183
 8840TIP3    H226464   7.594   4.281   3.072
 8841TIP3   OH226465   5.625   1.088   4.469
 8841TIP3    H126466   5.701   1.108   4.414
 8841TIP3    H226467   5.555   1.069   4.407
 8842TIP3   OH226468   1.874   1.256   5.599
 8842TIP3    H126469   1.784   1.281   5.577
 8842TIP3    H226470   1.926   1.292   5.527
 8843TIP3   OH226471   2.337   7.410   1.047
 8843TIP3    H126472   2.388   7.349   0.993
 8843TIP3    H226473   2.283   7.354   1.103
 8844TIP3   OH226474   0.566   5.695   6.626
 8844TIP3    H126475   0.661   5.693   6.634
 8844TIP3    H226476   0.548   5.654   6.541
 8845TIP3   OH226477   3.592   7.641   0.145
 8845TIP3    H126478   3.676   7.601   0.168
 8845TIP3    H226479   3.602   7.734   0.166
 8846TIP3   OH226480   3.402   1.881   4.002
 8846TIP3    H126481   3.489   1.900   3.968
 8846TIP3    H226482   3.416   1.860   4.094
 8847TIP3   OH226483   0.195   3.569   2.057
 8847TIP3    H126484   0.260   3.523   2.110
 8847TIP3    H226485   0.246   3.623   1.997
 8848TIP3   OH226486   4.330   3.596   3.966
 8848TIP3    H126487   4.387   3.604   4.043
 8848TIP3    H226488   4.249   3.638   3.992
 8849TIP3   OH226489   6.491   4.828   5.695
 8849TIP3    H126490   6.508   4.841   5.788
 8849TIP3    H226491   6.416   4.885   5.676
 8850TIP3   OH226492   0.879   3.246   0.488
 8850TIP3    H126493   0.847   3.290   0.409
 8850TIP3    H226494   0.908   3.160   0.457
 8851TIP3   OH226495   1.287  -0.026   6.491
 8851TIP3    H126496   1.316  -0.017   6.581
 8851TIP3    H226497   1.312   0.057   6.449
 8852TIP3   OH226498   2.450   4.193   3.193
 8852TIP3    H126499   2.539   4.170   3.167
 8852TIP3    H226500   2.395   4.126   3.152
 8853TIP3   OH226501   5.223   3.019   4.377
 8853TIP3    H126502   5.180   2.936   4.355
 8853TIP3    H226503   5.231   3.064   4.293
 8854TIP3   OH226504   5.566   1.496   2.949
 8854TIP3    H126505   5.559   1.494   3.045
 8854TIP3    H226506   5.475   1.505   2.919
 8855TIP3   OH226507   0.615   3.091   0.558
 8855TIP3    H126508   0.528   3.129   0.545
 8855TIP3    H226509   0.634   3.046   0.475
 8856TIP3   OH226510   4.913   6.421   6.078
 8856TIP3    H126511   4.915   6.512   6.050
 8856TIP3    H226512   4.857   6.377   6.013
 8857TIP3   OH226513   8.056   1.494   1.469
 8857TIP3    H126514   8.117   1.566   1.487
 8857TIP3    H226515   8.001   1.489   1.547
 8858TIP3   OH226516   6.829   2.797   5.072
 8858TIP3    H126517   6.911   2.792   5.123
 8858TIP3    H226518   6.858   2.808   4.982
 8859TIP3   OH226519   4.390   5.956   4.085
 8859TIP3    H126520   4.383   6.007   4.166
 8859TIP3    H226521   4.332   5.882   4.099
 8860TIP3   OH226522   6.370   3.040   3.974
 8860TIP3    H126523   6.358   3.116   3.918
 8860TIP3    H226524   6.375   3.076   4.063
 8861TIP3   OH226525   7.637   6.053   5.089
 8861TIP3    H126526   7.684   6.111   5.029
 8861TIP3    H226527   7.672   6.073   5.175
 8862TIP3   OH226528   1.967   6.799   4.741
 8862TIP3    H126529   1.875   6.812   4.718
 8862TIP3    H226530   2.014   6.813   4.659
 8863TIP3   OH226531   1.149   2.782   3.656
 8863TIP3    H126532   1.215   2.732   3.608
 8863TIP3    H226533   1.132   2.729   3.734
 8864TIP3   OH226534   7.133   4.741   4.297
 8864TIP3    H126535   7.096   4.735   4.208
 8864TIP3    H226536   7.093   4.668   4.344
 8865TIP3   OH226537   4.239   1.073   1.018
 8865TIP3    H126538   4.302   1.123   0.967
 8865TIP3    H226539   4.271   0.983   1.016
 8866TIP3   OH226540   8.035   2.243   0.762
 8866TIP3    H126541   8.119   2.264   0.801
 8866TIP3    H226542   8.000   2.173   0.818
 8867TIP3   OH226543   3.333   3.338   2.045
 8867TIP3    H126544   3.242   3.366   2.039
 8867TIP3    H226545   3.368   3.353   1.957
 8868TIP3   OH226546   5.798   0.201   5.095
 8868TIP3    H126547   5.834   0.112   5.091
 8868TIP3    H226548   5.861   0.250   5.148
 8869TIP3   OH226549   7.076   0.008   6.136
 8869TIP3    H126550   7.169   0.031   6.134
 8869TIP3    H226551   7.074  -0.085   6.113
 8870TIP3   OH226552   1.701   5.509   5.688
 8870TIP3    H126553   1.716   5.528   5.595
 8870TIP3    H226554   1.756   5.432   5.705
 8871TIP3   OH226555   7.437   2.027   6.543
 8871TIP3    H126556   7.375   1.975   6.594
 8871TIP3    H226557   7.523   2.006   6.580
 8872TIP3   OH226558   3.811   4.458   3.987
 8872TIP3    H126559   3.864   4.383   4.014
 8872TIP3    H226560   3.759   4.481   4.064
 8873TIP3   OH226561   3.189   5.551   2.120
 8873TIP3    H126562   3.176   5.524   2.029
 8873TIP3    H226563   3.120   5.505   2.169
 8874TIP3   OH226564   4.297   2.099   3.828
 8874TIP3    H126565   4.293   2.159   3.902
 8874TIP3    H226566   4.220   2.043   3.837
 8875TIP3   OH226567   7.645   4.592   2.926
 8875TIP3    H126568   7.614   4.549   3.006
 8875TIP3    H226569   7.626   4.529   2.857
 8876TIP3   OH226570   7.808   2.020   2.038
 8876TIP3    H126571   7.895   2.030   2.077
 8876TIP3    H226572   7.748   2.049   2.107
 8877TIP3   OH226573   5.491   2.421   1.142
 8877TIP3    H126574   5.539   2.438   1.061
 8877TIP3    H226575   5.553   2.445   1.212
 8878TIP3   OH226576   1.986   1.239   5.841
 8878TIP3    H126577   1.934   1.239   5.760
 8878TIP3    H226578   1.973   1.326   5.878
 8879TIP3   OH226579   7.960   0.938   3.460
 8879TIP3    H126580   7.946   0.848   3.431
 8879TIP3    H226581   8.043   0.964   3.419
 8880TIP3   OH226582   0.945   5.762   0.104
 8880TIP3    H126583   0.890   5.690   0.073
 8880TIP3    H226584   0.910   5.839   0.060
 8881TIP3   OH226585   2.903   3.627   3.192
 8881TIP3    H126586   2.989   3.617   3.151
 8881TIP3    H226587   2.922   3.658   3.281
 8882TIP3   OH226588   4.656   4.150   0.962
 8882TIP3    H126589   4.725   4.215   0.970
 8882TIP3    H226590   4.594   4.187   0.899
 8883TIP3   OH226591   3.983   7.392   3.243
 8883TIP3    H126592   3.947   7.398   3.332
 8883TIP3    H226593   4.077   7.401   3.255
 8884TIP3   OH226594   5.492   1.284   3.691
 8884TIP3    H126595   5.570   1.292   3.746
 8884TIP3    H226596   5.419   1.276   3.754
 8885TIP3   OH226597   7.158   6.041   1.912
 8885TIP3    H126598   7.182   5.951   1.932
 8885TIP3    H226599   7.237   6.092   1.931
 8886TIP3   OH226600   7.960   2.024   3.536
 8886TIP3    H126601   7.993   2.005   3.624
 8886TIP3    H226602   7.890   2.089   3.550
 8887TIP3   OH226603   4.075   6.215   1.418
 8887TIP3    H126604   4.150   6.197   1.475
 8887TIP3    H226605   4.000   6.182   1.466
 8888TIP3   OH226606   6.583   1.794   4.768
 8888TIP3    H126607   6.566   1.773   4.860
 8888TIP3    H226608   6.509   1.850   4.742
 8889TIP3   OH226609   6.613   3.941   2.788
 8889TIP3    H126610   6.706   3.951   2.766
 8889TIP3    H226611   6.613   3.930   2.884
 8890TIP3   OH226612   4.299   6.421   4.584
 8890TIP3    H126613   4.363   6.436   4.653
 8890TIP3    H226614   4.278   6.328   4.590
 8891TIP3   OH226615   5.089   5.294   1.306
 8891TIP3    H126616   5.155   5.225   1.309
 8891TIP3    H226617   5.062   5.306   1.397
 8892TIP3   OH226618   0.481   2.768   3.855
 8892TIP3    H126619   0.505   2.676   3.850
 8892TIP3    H226620   0.565   2.814   3.859
 8893TIP3   OH226621   4.580   4.254   4.269
 8893TIP3    H126622   4.674   4.263   4.254
 8893TIP3    H226623   4.574   4.196   4.345
 8894TIP3   OH226624   3.383   7.008   1.252
 8894TIP3    H126625   3.465   7.056   1.237
 8894TIP3    H226626   3.334   7.018   1.171
 8895TIP3   OH226627   3.826   3.030   2.808
 8895TIP3    H126628   3.838   3.124   2.798
 8895TIP3    H226629   3.837   3.013   2.901
 8896TIP3   OH226630   7.828   5.159   2.984
 8896TIP3    H126631   7.782   5.211   3.049
 8896TIP3    H226632   7.901   5.119   3.032
 8897TIP3   OH226633   2.254   1.645   4.075
 8897TIP3    H126634   2.250   1.677   3.985
 8897TIP3    H226635   2.203   1.564   4.073
 8898TIP3   OH226636   6.917   6.309   2.322
 8898TIP3    H126637   6.920   6.294   2.227
 8898TIP3    H226638   6.934   6.402   2.332
 8899TIP3   OH226639   2.860   6.485   2.882
 8899TIP3    H126640   2.775   6.457   2.847
 8899TIP3    H226641   2.901   6.404   2.911
 8900TIP3   OH226642   8.154   5.046   1.915
 8900TIP3    H126643   8.122   4.956   1.905
 8900TIP3    H226644   8.076   5.101   1.906
 8901TIP3   OH226645   6.992   6.183   3.746
 8901TIP3    H126646   7.038   6.199   3.663
 8901TIP3    H226647   6.900   6.179   3.721
 8902TIP3   OH226648   5.374   3.439   4.521
 8902TIP3    H126649   5.336   3.523   4.548
 8902TIP3    H226650   5.305   3.398   4.467
 8903TIP3   OH226651   1.213   0.723   0.809
 8903TIP3    H126652   1.175   0.636   0.799
 8903TIP3    H226653   1.278   0.728   0.738
 8904TIP3   OH226654   2.500   3.325   1.279
 8904TIP3    H126655   2.502   3.419   1.292
 8904TIP3    H226656   2.546   3.311   1.196
 8905TIP3   OH226657   1.344   3.768   3.964
 8905TIP3    H126658   1.431   3.741   3.934
 8905TIP3    H226659   1.351   3.768   4.059
 8906TIP3   OH226660   6.190   0.476   6.162
 8906TIP3    H126661   6.163   0.435   6.080
 8906TIP3    H226662   6.121   0.539   6.182
 8907TIP3   OH226663   1.623   1.424   3.460
 8907TIP3    H126664   1.600   1.360   3.527
 8907TIP3    H226665   1.575   1.396   3.382
 8908TIP3   OH226666   2.184   6.984   0.233
 8908TIP3    H126667   2.203   6.898   0.195
 8908TIP3    H226668   2.163   7.040   0.158
 8909TIP3   OH226669   7.839   2.816   0.561
 8909TIP3    H126670   7.827   2.754   0.489
 8909TIP3    H226671   7.863   2.762   0.636
 8910TIP3   OH226672   0.108   7.556   6.513
 8910TIP3    H126673   0.025   7.525   6.549
 8910TIP3    H226674   0.149   7.478   6.475
 8911TIP3   OH226675   2.573   3.176   0.194
 8911TIP3    H126676   2.563   3.271   0.186
 8911TIP3    H226677   2.609   3.149   0.109
 8912TIP3   OH226678   6.741   6.777   6.169
 8912TIP3    H126679   6.700   6.722   6.236
 8912TIP3    H226680   6.727   6.866   6.200
 8913TIP3   OH226681   5.883   5.971   5.521
 8913TIP3    H126682   5.928   6.055   5.533
 8913TIP3    H226683   5.794   5.994   5.495
 8914TIP3   OH226684   3.022   4.546   1.236
 8914TIP3    H126685   3.093   4.590   1.190
 8914TIP3    H226686   3.006   4.466   1.186
 8915TIP3   OH226687   0.518   3.188   4.908
 8915TIP3    H126688   0.448   3.168   4.971
 8915TIP3    H226689   0.593   3.212   4.963
 8916TIP3   OH226690   5.697   2.858   2.367
 8916TIP3    H126691   5.763   2.788   2.372
 8916TIP3    H226692   5.667   2.855   2.276
 8917TIP3   OH226693   0.100   6.650   6.241
 8917TIP3    H126694   0.157   6.709   6.289
 8917TIP3    H226695   0.143   6.640   6.155
 8918TIP3   OH226696   5.124   3.300   1.995
 8918TIP3    H126697   5.108   3.217   2.038
 8918TIP3    H226698   5.177   3.350   2.057
 8919TIP3   OH226699   4.064   4.906   5.188
 8919TIP3    H126700   3.973   4.929   5.173
 8919TIP3    H226701   4.097   4.973   5.248
 8920TIP3   OH226702   1.441   1.949   0.110
 8920TIP3    H126703   1.369   2.007   0.134
 8920TIP3    H226704   1.490   1.935   0.191
 8921TIP3   OH226705   0.938   6.185   4.948
 8921TIP3    H126706   0.905   6.224   4.867
 8921TIP3    H226707   0.933   6.091   4.932
 8922TIP3   OH226708   6.760   6.574   1.703
 8922TIP3    H126709   6.763   6.648   1.763
 8922TIP3    H226710   6.785   6.611   1.618
 8923TIP3   OH226711   1.365   1.454   3.698
 8923TIP3    H126712   1.397   1.445   3.788
 8923TIP3    H226713   1.270   1.443   3.705
 8924TIP3   OH226714   0.203   6.446   0.006
 8924TIP3    H126715   0.214   6.486   0.092
 8924TIP3    H226716   0.291   6.444  -0.031
 8925TIP3   OH226717   2.895   3.366   6.596
 8925TIP3    H126718   2.844   3.447   6.589
 8925TIP3    H226719   2.971   3.380   6.539
 8926TIP3   OH226720   6.485   1.971   5.527
 8926TIP3    H126721   6.515   1.984   5.437
 8926TIP3    H226722   6.414   1.908   5.520
 8927TIP3   OH226723   2.140   2.121   3.847
 8927TIP3    H126724   2.171   2.108   3.757
 8927TIP3    H226725   2.110   2.211   3.849
 8928TIP3   OH226726   5.878   4.508   0.767
 8928TIP3    H126727   5.921   4.500   0.682
 8928TIP3    H226728   5.785   4.515   0.746
 8929TIP3   OH226729   6.740   4.048   4.588
 8929TIP3    H126730   6.772   4.062   4.677
 8929TIP3    H226731   6.715   3.956   4.586
 8930TIP3   OH226732   8.146   0.978   5.808
 8930TIP3    H126733   8.183   0.984   5.720
 8930TIP3    H226734   8.181   0.896   5.843
 8931TIP3   OH226735   2.640   6.628   2.380
 8931TIP3    H126736   2.731   6.602   2.389
 8931TIP3    H226737   2.634   6.663   2.291
 8932TIP3   OH226738   7.290   3.056   1.867
 8932TIP3    H126739   7.253   3.065   1.954
 8932TIP3    H226740   7.267   2.967   1.840
 8933TIP3   OH226741   1.803   4.664   4.314
 8933TIP3    H126742   1.820   4.684   4.406
 8933TIP3    H226743   1.755   4.581   4.316
 8934TIP3   OH226744   8.301   0.137   0.103
 8934TIP3    H126745   8.314   0.219   0.151
 8934TIP3    H226746   8.271   0.164   0.016
 8935TIP3   OH226747   3.349   0.153   1.345
 8935TIP3    H126748   3.305   0.107   1.273
 8935TIP3    H226749   3.415   0.092   1.376
 8936TIP3   OH226750   6.311   6.658   0.884
 8936TIP3    H126751   6.291   6.610   0.804
 8936TIP3    H226752   6.280   6.747   0.867
 8937TIP3   OH226753   1.129   5.086   2.934
 8937TIP3    H126754   1.162   5.126   3.015
 8937TIP3    H226755   1.207   5.071   2.881
 8938TIP3   OH226756   4.435   6.962   6.425
 8938TIP3    H126757   4.447   6.961   6.330
 8938TIP3    H226758   4.502   6.902   6.458
 8939TIP3   OH226759   5.062   2.123   5.702
 8939TIP3    H126760   5.062   2.217   5.720
 8939TIP3    H226761   5.153   2.101   5.684
 8940TIP3   OH226762   7.816   0.549   2.059
 8940TIP3    H126763   7.860   0.464   2.060
 8940TIP3    H226764   7.747   0.539   1.993
 8941TIP3   OH226765   1.728   2.288   1.943
 8941TIP3    H126766   1.818   2.266   1.966
 8941TIP3    H226767   1.736   2.353   1.874
 8942TIP3   OH226768   5.695   6.658   6.449
 8942TIP3    H126769   5.696   6.577   6.499
 8942TIP3    H226770   5.607   6.662   6.411
 8943TIP3   OH226771   3.797   4.747   1.247
 8943TIP3    H126772   3.737   4.765   1.175
 8943TIP3    H226773   3.875   4.711   1.204
 8944TIP3   OH226774   7.507   3.357   1.629
 8944TIP3    H126775   7.559   3.407   1.566
 8944TIP3    H226776   7.562   3.283   1.654
 8945TIP3   OH226777   2.237   3.658   1.309
 8945TIP3    H126778   2.144   3.637   1.324
 8945TIP3    H226779   2.262   3.711   1.384
 8946TIP3   OH226780   7.302   7.120   5.024
 8946TIP3    H126781   7.346   7.096   4.943
 8946TIP3    H226782   7.282   7.213   5.014
 8947TIP3   OH226783   1.409   1.794   2.321
 8947TIP3    H126784   1.387   1.882   2.292
 8947TIP3    H226785   1.476   1.806   2.388
 8948TIP3   OH226786   2.736   3.453   1.499
 8948TIP3    H126787   2.755   3.510   1.573
 8948TIP3    H226788   2.672   3.502   1.447
 8949TIP3   OH226789   4.209   7.230   5.164
 8949TIP3    H126790   4.212   7.286   5.241
 8949TIP3    H226791   4.115   7.211   5.152
 8950TIP3   OH226792   3.207   1.282   1.696
 8950TIP3    H126793   3.140   1.269   1.762
 8950TIP3    H226794   3.170   1.244   1.616
 8951TIP3   OH226795   0.094   2.413   3.690
 8951TIP3    H126796   0.004   2.424   3.658
 8951TIP3    H226797   0.109   2.489   3.746
 8952TIP3   OH226798   6.072   5.108   4.585
 8952TIP3    H126799   6.142   5.170   4.564
 8952TIP3    H226800   6.106   5.023   4.556
 8953TIP3   OH226801   1.067   6.680   1.265
 8953TIP3    H126802   1.014   6.664   1.187
 8953TIP3    H226803   1.019   6.639   1.336
 8954TIP3   OH226804   0.403   6.623   3.606
 8954TIP3    H126805   0.341   6.549   3.603
 8954TIP3    H226806   0.480   6.588   3.651
 8955TIP3   OH226807   0.157   6.946   5.947
 8955TIP3    H126808   0.082   6.886   5.953
 8955TIP3    H226809   0.180   6.947   5.854
 8956TIP3   OH226810   6.711   0.231   3.131
 8956TIP3    H126811   6.726   0.286   3.054
 8956TIP3    H226812   6.633   0.268   3.172
 8957TIP3   OH226813   4.273   6.518   1.992
 8957TIP3    H126814   4.362   6.552   1.995
 8957TIP3    H226815   4.242   6.542   1.905
 8958TIP3   OH226816   1.416   1.341   0.156
 8958TIP3    H126817   1.370   1.258   0.145
 8958TIP3    H226818   1.500   1.317   0.194
 8959TIP3   OH226819   2.823   1.172   0.383
 8959TIP3    H126820   2.885   1.099   0.393
 8959TIP3    H226821   2.861   1.226   0.313
 8960TIP3   OH226822   2.674   3.681   0.167
 8960TIP3    H126823   2.599   3.741   0.178
 8960TIP3    H226824   2.693   3.684   0.073
 8961TIP3   OH226825   3.627   5.546   4.847
 8961TIP3    H126826   3.699   5.584   4.898
 8961TIP3    H226827   3.577   5.495   4.911
 8962TIP3   OH226828   6.468   6.023   2.397
 8962TIP3    H126829   6.559   6.025   2.365
 8962TIP3    H226830   6.474   6.052   2.488
 8963TIP3   OH226831   5.459   2.029   4.918
 8963TIP3    H126832   5.550   2.027   4.949
 8963TIP3    H226833   5.453   1.954   4.859
 8964TIP3   OH226834   5.528   3.874   3.982
 8964TIP3    H126835   5.591   3.862   4.054
 8964TIP3    H226836   5.482   3.955   4.005
 8965TIP3   OH226837   1.029   4.524   6.806
 8965TIP3    H126838   0.954   4.490   6.758
 8965TIP3    H226839   1.088   4.558   6.738
 8966TIP3   OH226840   0.937   4.829   4.350
 8966TIP3    H126841   0.925   4.768   4.424
 8966TIP3    H226842   0.849   4.852   4.323
 8967TIP3   OH226843   8.275   0.695   0.791
 8967TIP3    H126844   8.272   0.692   0.886
 8967TIP3    H226845   8.363   0.726   0.770
 8968TIP3   OH226846   0.891   6.982   4.971
 8968TIP3    H126847   0.983   6.989   4.997
 8968TIP3    H226848   0.881   6.891   4.943
 8969TIP3   OH226849   4.861   6.465   4.664
 8969TIP3    H126850   4.906   6.385   4.690
 8969TIP3    H226851   4.813   6.441   4.585
 8970TIP3   OH226852   0.190   5.622   4.482
 8970TIP3    H126853   0.143   5.690   4.433
 8970TIP3    H226854   0.198   5.657   4.570
 8971TIP3   OH226855   1.856   2.575   1.848
 8971TIP3    H126856   1.871   2.587   1.942
 8971TIP3    H226857   1.940   2.596   1.808
 8972TIP3   OH226858   3.207   3.380   6.122
 8972TIP3    H126859   3.141   3.364   6.053
 8972TIP3    H226860   3.187   3.315   6.189
 8973TIP3   OH226861   4.298   7.664   5.227
 8973TIP3    H126862   4.366   7.710   5.277
 8973TIP3    H226863   4.228   7.648   5.290
 8974TIP3   OH226864   1.025   1.019   5.012
 8974TIP3    H126865   0.968   1.058   5.078
 8974TIP3    H226866   1.031   1.085   4.943
 8975TIP3   OH226867   4.707   1.429   5.043
 8975TIP3    H126868   4.622   1.465   5.018
 8975TIP3    H226869   4.766   1.504   5.043
 8976TIP3   OH226870   7.001   1.257   3.918
 8976TIP3    H126871   6.906   1.267   3.924
 8976TIP3    H226872   7.029   1.241   4.008
 8977TIP3   OH226873   6.610   2.659   2.695
 8977TIP3    H126874   6.702   2.640   2.678
 8977TIP3    H226875   6.609   2.753   2.717
 8978TIP3   OH226876   6.533   4.776   6.323
 8978TIP3    H126877   6.513   4.764   6.416
 8978TIP3    H226878   6.615   4.826   6.323
 8979TIP3   OH226879   5.543   5.680   5.977
 8979TIP3    H126880   5.607   5.664   6.046
 8979TIP3    H226881   5.531   5.595   5.935
 8980TIP3   OH226882   0.923   2.680   5.007
 8980TIP3    H126883   0.913   2.754   4.947
 8980TIP3    H226884   0.910   2.718   5.094
 8981TIP3   OH226885   5.851   3.926   0.155
 8981TIP3    H126886   5.907   3.905   0.230
 8981TIP3    H226887   5.820   3.841   0.124
 8982TIP3   OH226888   6.899   0.828   0.781
 8982TIP3    H126889   6.868   0.912   0.745
 8982TIP3    H226890   6.994   0.832   0.772
 8983TIP3   OH226891   2.780   2.200   3.141
 8983TIP3    H126892   2.850   2.204   3.076
 8983TIP3    H226893   2.788   2.113   3.179
 8984TIP3   OH226894   7.016   2.223   6.270
 8984TIP3    H126895   6.976   2.308   6.288
 8984TIP3    H226896   6.971   2.163   6.330
 8985TIP3   OH226897   0.669   1.919   0.712
 8985TIP3    H126898   0.697   1.864   0.638
 8985TIP3    H226899   0.621   1.859   0.769
 8986TIP3   OH226900   2.089   1.617   0.088
 8986TIP3    H126901   2.011   1.591   0.039
 8986TIP3    H226902   2.066   1.701   0.128
 8987TIP3   OH226903   4.970   5.733   0.031
 8987TIP3    H126904   4.994   5.641   0.029
 8987TIP3    H226905   4.886   5.735   0.077
 8988TIP3   OH226906   5.712   3.082   4.521
 8988TIP3    H126907   5.644   3.022   4.491
 8988TIP3    H226908   5.738   3.130   4.442
 8989TIP3   OH226909   0.019   2.817   4.984
 8989TIP3    H126910   0.103   2.863   4.989
 8989TIP3    H226911  -0.044   2.885   4.957
 8990TIP3   OH226912   1.456   3.926  -0.050
 8990TIP3    H126913   1.430   3.979   0.025
 8990TIP3    H226914   1.522   3.866  -0.017
 8991TIP3   OH226915   1.698   3.572   2.141
 8991TIP3    H126916   1.730   3.627   2.212
 8991TIP3    H226917   1.628   3.519   2.180
 8992TIP3   OH226918   6.653   4.727   2.815
 8992TIP3    H126919   6.634   4.761   2.728
 8992TIP3    H226920   6.621   4.795   2.875
 8993TIP3   OH226921   2.936   7.292   6.479
 8993TIP3    H126922   2.907   7.349   6.408
 8993TIP3    H226923   2.909   7.337   6.559
 8994TIP3   OH226924   2.768   3.119   4.177
 8994TIP3    H126925   2.754   3.024   4.176
 8994TIP3    H226926   2.685   3.155   4.207
 8995TIP3   OH226927   7.350   2.873   5.972
 8995TIP3    H126928   7.334   2.809   5.903
 8995TIP3    H226929   7.445   2.883   5.974
 8996TIP3   OH226930   3.590   0.897   0.001
 8996TIP3    H126931   3.550   0.833   0.059
 8996TIP3    H226932   3.528   0.970  -0.001
 8997TIP3   OH226933   6.253   0.193   2.705
 8997TIP3    H126934   6.195   0.179   2.779
 8997TIP3    H226935   6.283   0.283   2.715
 8998TIP3   OH226936   2.930   0.549   4.072
 8998TIP3    H126937   2.908   0.464   4.033
 8998TIP3    H226938   3.024   0.545   4.085
 8999TIP3   OH226939   6.628   4.012   4.060
 8999TIP3    H126940   6.626   3.918   4.042
 8999TIP3    H226941   6.575   4.023   4.139
 9000TIP3   OH226942   4.367   3.232   3.719
 9000TIP3    H126943   4.327   3.145   3.728
 9000TIP3    H226944   4.460   3.217   3.732
 9001TIP3   OH226945   5.359   1.562   4.776
 9001TIP3    H126946   5.337   1.513   4.696
 9001TIP3    H226947   5.369   1.495   4.843
 9002TIP3   OH226948   6.081   2.962   0.104
 9002TIP3    H126949   6.131   2.994   0.178
 9002TIP3    H226950   6.059   2.872   0.127
 9003TIP3   OH226951   1.289   7.066   2.273
 9003TIP3    H126952   1.204   7.106   2.255
 9003TIP3    H226953   1.312   7.021   2.192
 9004TIP3   OH226954   0.249   6.133   3.212
 9004TIP3    H126955   0.222   6.070   3.145
 9004TIP3    H226956   0.167   6.161   3.252
 9005TIP3   OH226957   6.430   6.760   1.275
 9005TIP3    H126958   6.487   6.752   1.352
 9005TIP3    H226959   6.474   6.708   1.208
 9006TIP3   OH226960   5.142   5.518   2.986
 9006TIP3    H126961   5.157   5.603   3.026
 9006TIP3    H226962   5.087   5.536   2.909
 9007TIP3   OH226963   0.574   3.516   5.604
 9007TIP3    H126964   0.528   3.551   5.527
 9007TIP3    H226965   0.627   3.444   5.571
 9008TIP3   OH226966   3.595   7.007   5.599
 9008TIP3    H126967   3.601   7.099   5.621
 9008TIP3    H226968   3.639   6.999   5.514
 9009TIP3   OH226969   7.187   3.259   5.341
 9009TIP3    H126970   7.136   3.303   5.408
 9009TIP3    H226971   7.278   3.280   5.363
 9010TIP3   OH226972   6.239   0.255   4.943
 9010TIP3    H126973   6.162   0.310   4.960
 9010TIP3    H226974   6.218   0.210   4.861
 9011TIP3   OH226975   3.010   3.323   3.378
 9011TIP3    H126976   2.934   3.265   3.379
 9011TIP3    H226977   3.056   3.301   3.297
 9012TIP3   OH226978   7.279   2.736   3.501
 9012TIP3    H126979   7.307   2.671   3.436
 9012TIP3    H226980   7.204   2.695   3.545
 9013TIP3   OH226981   6.742   4.649   6.699
 9013TIP3    H126982   6.783   4.616   6.619
 9013TIP3    H226983   6.712   4.571   6.745
 9014TIP3   OH226984   3.561   3.534   2.743
 9014TIP3    H126985   3.588   3.578   2.824
 9014TIP3    H226986   3.570   3.601   2.675
 9015TIP3   OH226987   2.968   6.544   0.450
 9015TIP3    H126988   2.958   6.518   0.541
 9015TIP3    H226989   3.002   6.466   0.406
 9016TIP3   OH226990   3.340   3.096   1.451
 9016TIP3    H126991   3.376   3.031   1.512
 9016TIP3    H226992   3.344   3.054   1.366
 9017TIP3   OH226993   3.014   4.215   5.029
 9017TIP3    H126994   3.019   4.120   5.018
 9017TIP3    H226995   2.971   4.228   5.113
 9018TIP3   OH226996   4.886   7.892   0.959
 9018TIP3    H126997   4.810   7.856   1.003
 9018TIP3    H226998   4.960   7.867   1.014
 9019TIP3   OH226999   1.607   2.644   6.045
 9019TIP3    H127000   1.514   2.653   6.069
 9019TIP3    H227001   1.605   2.613   5.954
 9020TIP3   OH227002   4.001   2.536   4.743
 9020TIP3    H127003   3.955   2.585   4.811
 9020TIP3    H227004   4.006   2.597   4.669
 9021TIP3   OH227005   8.168   1.066   2.082
 9021TIP3    H127006   8.224   1.081   2.158
 9021TIP3    H227007   8.185   0.975   2.056
 9022TIP3   OH227008   1.768   5.453   6.588
 9022TIP3    H127009   1.822   5.377   6.609
 9022TIP3    H227010   1.711   5.464   6.664
 9023TIP3   OH227011   1.568   7.441   4.170
 9023TIP3    H127012   1.623   7.408   4.099
 9023TIP3    H227013   1.506   7.499   4.126
 9024TIP3   OH227014   3.323   2.215   2.395
 9024TIP3    H127015   3.242   2.166   2.379
 9024TIP3    H227016   3.391   2.148   2.398
 9025TIP3   OH227017   5.433   0.226   4.821
 9025TIP3    H127018   5.472   0.194   4.902
 9025TIP3    H227019   5.348   0.182   4.816
 9026TIP3   OH227020   3.671   7.707   3.053
 9026TIP3    H127021   3.654   7.747   2.968
 9026TIP3    H227022   3.765   7.689   3.053
 9027TIP3   OH227023   6.805   6.852   6.782
 9027TIP3    H127024   6.736   6.789   6.801
 9027TIP3    H227025   6.868   6.803   6.729
 9028TIP3   OH227026   2.513   5.208   2.322
 9028TIP3    H127027   2.482   5.120   2.297
 9028TIP3    H227028   2.594   5.219   2.273
 9029TIP3   OH227029   5.394   5.411   2.203
 9029TIP3    H127030   5.332   5.464   2.254
 9029TIP3    H227031   5.400   5.328   2.252
 9030TIP3   OH227032   0.471   1.583   1.063
 9030TIP3    H127033   0.398   1.527   1.088
 9030TIP3    H227034   0.537   1.569   1.131
 9031TIP3   OH227035   2.329   5.754   2.609
 9031TIP3    H127036   2.261   5.821   2.611
 9031TIP3    H227037   2.343   5.738   2.516
 9032TIP3   OH227038   0.714   7.589   4.145
 9032TIP3    H127039   0.690   7.554   4.231
 9032TIP3    H227040   0.810   7.594   4.147
 9033TIP3   OH227041   4.282   2.281   2.633
 9033TIP3    H127042   4.222   2.270   2.559
 9033TIP3    H227043   4.229   2.266   2.710
 9034TIP3   OH227044   1.401   5.165   3.840
 9034TIP3    H127045   1.320   5.120   3.866
 9034TIP3    H227046   1.389   5.255   3.869
 9035TIP3   OH227047   1.317   3.506   6.618
 9035TIP3    H127048   1.308   3.550   6.534
 9035TIP3    H227049   1.379   3.560   6.667
 9036TIP3   OH227050   5.045   5.094   5.072
 9036TIP3    H127051   5.108   5.166   5.067
 9036TIP3    H227052   5.098   5.015   5.068
 9037TIP3   OH227053   5.525   6.226   4.262
 9037TIP3    H127054   5.477   6.304   4.290
 9037TIP3    H227055   5.569   6.253   4.181
 9038TIP3   OH227056   1.180   7.144   0.323
 9038TIP3    H127057   1.245   7.086   0.363
 9038TIP3    H227058   1.096   7.114   0.358
 9039TIP3   OH227059   5.264   6.144   0.932
 9039TIP3    H127060   5.300   6.116   1.017
 9039TIP3    H227061   5.225   6.230   0.951
 9040TIP3   OH227062   0.411   0.052   1.343
 9040TIP3    H127063   0.496   0.096   1.350
 9040TIP3    H227064   0.366   0.097   1.271
 9041TIP3   OH227065   3.444   7.710   0.796
 9041TIP3    H127066   3.474   7.791   0.838
 9041TIP3    H227067   3.495   7.705   0.715
 9042TIP3   OH227068   4.272   2.796   3.222
 9042TIP3    H127069   4.264   2.857   3.295
 9042TIP3    H227070   4.267   2.709   3.263
 9043TIP3   OH227071   6.588   3.438   2.800
 9043TIP3    H127072   6.499   3.402   2.799
 9043TIP3    H227073   6.623   3.416   2.715
 9044TIP3   OH227074   1.373   5.452   1.344
 9044TIP3    H127075   1.299   5.466   1.403
 9044TIP3    H227076   1.335   5.409   1.267
 9045TIP3   OH227077   0.998   6.735   4.051
 9045TIP3    H127078   1.004   6.644   4.082
 9045TIP3    H227079   1.067   6.743   3.986
 9046TIP3   OH227080   1.487   7.137   1.852
 9046TIP3    H127081   1.441   7.132   1.936
 9046TIP3    H227082   1.438   7.201   1.801
 9047TIP3   OH227083   2.079   3.822   0.707
 9047TIP3    H127084   2.167   3.820   0.669
 9047TIP3    H227085   2.020   3.806   0.634
 9048TIP3   OH227086   3.619   0.593   4.107
 9048TIP3    H127087   3.615   0.618   4.014
 9048TIP3    H227088   3.687   0.526   4.111
 9049TIP3   OH227089   7.116   4.295   2.787
 9049TIP3    H127090   7.185   4.295   2.854
 9049TIP3    H227091   7.124   4.210   2.745
 9050TIP3   OH227092   0.602   0.919   6.298
 9050TIP3    H127093   0.539   0.953   6.362
 9050TIP3    H227094   0.637   0.997   6.254
 9051TIP3   OH227095   2.415   6.385   0.844
 9051TIP3    H127096   2.418   6.300   0.798
 9051TIP3    H227097   2.492   6.385   0.900
 9052TIP3   OH227098   2.942   5.407   3.654
 9052TIP3    H127099   2.906   5.387   3.567
 9052TIP3    H227100   3.027   5.447   3.636
 9053TIP3   OH227101   1.262   7.017   1.313
 9053TIP3    H127102   1.192   6.955   1.332
 9053TIP3    H227103   1.334   6.989   1.370
 9054TIP3   OH227104   2.705   3.777   1.937
 9054TIP3    H127105   2.660   3.850   1.979
 9054TIP3    H227106   2.781   3.761   1.993
 9055TIP3   OH227107   4.595   7.637   4.844
 9055TIP3    H127108   4.520   7.663   4.897
 9055TIP3    H227109   4.665   7.696   4.871
 9056TIP3   OH227110   8.202   3.475   2.230
 9056TIP3    H127111   8.152   3.556   2.218
 9056TIP3    H227112   8.270   3.478   2.163
 9057TIP3   OH227113   0.422   2.738   0.801
 9057TIP3    H127114   0.415   2.646   0.775
 9057TIP3    H227115   0.509   2.765   0.771
 9058TIP3   OH227116   3.887   3.097   5.149
 9058TIP3    H127117   3.804   3.102   5.102
 9058TIP3    H227118   3.874   3.028   5.214
 9059TIP3   OH227119   1.867   5.460   1.255
 9059TIP3    H127120   1.894   5.419   1.337
 9059TIP3    H227121   1.772   5.469   1.262
 9060TIP3   OH227122   4.833   4.004   3.108
 9060TIP3    H127123   4.848   4.096   3.087
 9060TIP3    H227124   4.779   4.005   3.187
 9061TIP3   OH227125   1.071   5.143   5.779
 9061TIP3    H127126   1.025   5.176   5.856
 9061TIP3    H227127   1.157   5.118   5.811
 9062TIP3   OH227128   2.683   7.336   1.677
 9062TIP3    H127129   2.597   7.356   1.640
 9062TIP3    H227130   2.673   7.249   1.715
 9063TIP3   OH227131   7.238   5.319   6.646
 9063TIP3    H127132   7.269   5.368   6.722
 9063TIP3    H227133   7.228   5.229   6.679
 9064TIP3   OH227134   4.248   3.412   2.206
 9064TIP3    H127135   4.267   3.500   2.173
 9064TIP3    H227136   4.165   3.421   2.252
 9065TIP3   OH227137   3.752   6.591   4.981
 9065TIP3    H127138   3.799   6.645   4.918
 9065TIP3    H227139   3.683   6.649   5.014
 9066TIP3   OH227140   7.340   0.904   4.737
 9066TIP3    H127141   7.422   0.880   4.694
 9066TIP3    H227142   7.353   0.995   4.765
 9067TIP3   OH227143   5.675   6.301   5.710
 9067TIP3    H127144   5.647   6.332   5.624
 9067TIP3    H227145   5.767   6.280   5.700
 9068TIP3   OH227146   0.060   6.186   2.556
 9068TIP3    H127147   0.154   6.199   2.540
 9068TIP3    H227148   0.032   6.267   2.599
 9069TIP3   OH227149   1.303   4.376   0.875
 9069TIP3    H127150   1.295   4.343   0.965
 9069TIP3    H227151   1.387   4.342   0.844
 9070TIP3   OH227152   2.289   4.132   3.664
 9070TIP3    H127153   2.231   4.187   3.611
 9070TIP3    H227154   2.246   4.124   3.748
 9071TIP3   OH227155   3.351   6.428   2.119
 9071TIP3    H127156   3.366   6.499   2.056
 9071TIP3    H227157   3.257   6.433   2.137
 9072TIP3   OH227158   8.282   3.002   2.942
 9072TIP3    H127159   8.229   3.057   3.000
 9072TIP3    H227160   8.372   3.032   2.957
 9073TIP3   OH227161   6.361   4.616   2.933
 9073TIP3    H127162   6.344   4.617   2.838
 9073TIP3    H227163   6.274   4.621   2.973
 9074TIP3   OH227164   8.331   2.360   3.313
 9074TIP3    H127165   8.390   2.307   3.366
 9074TIP3    H227166   8.368   2.449   3.318
 9075TIP3   OH227167   2.562   7.089   0.057
 9075TIP3    H127168   2.520   7.064  -0.025
 9075TIP3    H227169   2.491   7.127   0.110
 9076TIP3   OH227170   2.727   2.909   4.607
 9076TIP3    H127171   2.677   2.951   4.537
 9076TIP3    H227172   2.682   2.934   4.688
 9077TIP3   OH227173   0.206   1.377   6.555
 9077TIP3    H127174   0.230   1.430   6.632
 9077TIP3    H227175   0.131   1.423   6.517
 9078TIP3   OH227176   7.955   7.713   3.634
 9078TIP3    H127177   7.877   7.689   3.584
 9078TIP3    H227178   7.925   7.717   3.725
 9079TIP3   OH227179   4.929   2.042   6.450
 9079TIP3    H127180   4.963   2.089   6.374
 9079TIP3    H227181   5.007   2.008   6.494
 9080TIP3   OH227182   4.855   4.565   0.352
 9080TIP3    H127183   4.946   4.541   0.365
 9080TIP3    H227184   4.836   4.628   0.422
 9081TIP3   OH227185   2.692   2.485   3.799
 9081TIP3    H127186   2.782   2.510   3.779
 9081TIP3    H227187   2.642   2.517   3.724
 9082TIP3   OH227188   2.451   0.204   0.296
 9082TIP3    H127189   2.358   0.195   0.318
 9082TIP3    H227190   2.459   0.163   0.210
 9083TIP3   OH227191   0.594   2.882   2.768
 9083TIP3    H127192   0.650   2.927   2.704
 9083TIP3    H227193   0.558   2.808   2.719
 9084TIP3   OH227194   7.924   0.204   3.829
 9084TIP3    H127195   7.846   0.216   3.774
 9084TIP3    H227196   7.911   0.118   3.870
 9085TIP3   OH227197   6.576   5.024   1.723
 9085TIP3    H127198   6.504   5.084   1.703
 9085TIP3    H227199   6.644   5.046   1.659
 9086TIP3   OH227200   4.131   0.409   5.377
 9086TIP3    H127201   4.057   0.379   5.430
 9086TIP3    H227202   4.131   0.504   5.388
 9087TIP3   OH227203   5.725   3.255   6.734
 9087TIP3    H127204   5.706   3.269   6.641
 9087TIP3    H227205   5.794   3.319   6.754
 9088TIP3   OH227206   6.178   0.202   3.711
 9088TIP3    H127207   6.159   0.164   3.625
 9088TIP3    H227208   6.263   0.245   3.700
 9089TIP3   OH227209   6.663   0.699   3.940
 9089TIP3    H127210   6.719   0.638   3.987
 9089TIP3    H227211   6.600   0.729   4.005
 9090TIP3   OH227212   0.947   0.054   5.554
 9090TIP3    H127213   1.035   0.029   5.524
 9090TIP3    H227214   0.888  -0.002   5.504
 9091TIP3   OH227215   3.530   0.974   1.313
 9091TIP3    H127216   3.560   0.939   1.398
 9091TIP3    H227217   3.523   1.068   1.327
 9092TIP3   OH227218   5.277   1.404   1.042
 9092TIP3    H127219   5.214   1.455   1.093
 9092TIP3    H227220   5.362   1.440   1.065
 9093TIP3   OH227221   7.482   6.161   0.534
 9093TIP3    H127222   7.405   6.188   0.583
 9093TIP3    H227223   7.450   6.150   0.444
 9094TIP3   OH227224   2.578   1.076   6.278
 9094TIP3    H127225   2.568   1.049   6.370
 9094TIP3    H227226   2.662   1.039   6.252
 9095TIP3   OH227227   3.203   1.230   0.181
 9095TIP3    H127228   3.179   1.272   0.099
 9095TIP3    H227229   3.265   1.162   0.156
 9096TIP3   OH227230   7.887   0.812   1.151
 9096TIP3    H127231   7.872   0.906   1.143
 9096TIP3    H227232   7.865   0.792   1.242
 9097TIP3   OH227233   6.909   2.114   1.264
 9097TIP3    H127234   6.923   2.027   1.225
 9097TIP3    H227235   6.983   2.126   1.323
 9098TIP3   OH227236   3.313   1.562   0.449
 9098TIP3    H127237   3.289   1.485   0.500
 9098TIP3    H227238   3.383   1.532   0.391
 9099TIP3   OH227239   2.166   1.916   4.474
 9099TIP3    H127240   2.147   1.901   4.567
 9099TIP3    H227241   2.245   1.864   4.457
 9100TIP3   OH227242   2.060   1.206   0.392
 9100TIP3    H127243   2.035   1.282   0.340
 9100TIP3    H227244   1.977   1.162   0.411
 9101TIP3   OH227245   0.259   4.351   0.543
 9101TIP3    H127246   0.281   4.440   0.571
 9101TIP3    H227247   0.282   4.296   0.618
 9102TIP3   OH227248   4.079   7.101   0.973
 9102TIP3    H127249   4.002   7.145   0.937
 9102TIP3    H227250   4.078   7.122   1.066
 9103TIP3   OH227251   1.933   2.809   4.315
 9103TIP3    H127252   1.910   2.771   4.231
 9103TIP3    H227253   2.026   2.833   4.307
 9104TIP3   OH227254   1.520   5.676   6.531
 9104TIP3    H127255   1.578   5.698   6.604
 9104TIP3    H227256   1.551   5.591   6.501
 9105TIP3   OH227257   3.002   2.303   1.240
 9105TIP3    H127258   3.029   2.375   1.184
 9105TIP3    H227259   2.970   2.345   1.320
 9106TIP3   OH227260   1.333   4.439   1.452
 9106TIP3    H127261   1.379   4.356   1.464
 9106TIP3    H227262   1.327   4.476   1.539
 9107TIP3   OH227263   6.457   3.675   2.550
 9107TIP3    H127264   6.471   3.637   2.464
 9107TIP3    H227265   6.375   3.724   2.542
 9108TIP3   OH227266   0.711   2.671   6.062
 9108TIP3    H127267   0.625   2.635   6.084
 9108TIP3    H227268   0.706   2.691   5.968
 9109TIP3   OH227269   4.661   3.769   5.715
 9109TIP3    H127270   4.569   3.780   5.690
 9109TIP3    H227271   4.673   3.674   5.720
 9110TIP3   OH227272   3.656   3.743   0.397
 9110TIP3    H127273   3.567   3.719   0.421
 9110TIP3    H227274   3.648   3.829   0.357
 9111TIP3   OH227275   8.166   1.111   2.413
 9111TIP3    H127276   8.164   1.205   2.399
 9111TIP3    H227277   8.257   1.092   2.437
 9112TIP3   OH227278   2.853   0.741   6.379
 9112TIP3    H127279   2.912   0.670   6.402
 9112TIP3    H227280   2.903   0.820   6.395
 9113TIP3   OH227281   6.753   7.646   0.024
 9113TIP3    H127282   6.673   7.594   0.035
 9113TIP3    H227283   6.789   7.653   0.113
 9114TIP3   OH227284   4.083   3.841   4.368
 9114TIP3    H127285   4.145   3.798   4.426
 9114TIP3    H227286   4.102   3.805   4.281
 9115TIP3   OH227287   1.021   7.127   2.549
 9115TIP3    H127288   0.965   7.202   2.570
 9115TIP3    H227289   1.026   7.128   2.453
 9116TIP3   OH227290   6.295   5.816   0.920
 9116TIP3    H127291   6.221   5.832   0.978
 9116TIP3    H227292   6.255   5.797   0.835
 9117TIP3   OH227293   1.761   6.360   2.218
 9117TIP3    H127294   1.695   6.295   2.243
 9117TIP3    H227295   1.757   6.363   2.123
 9118TIP3   OH227296   4.926   4.256   4.744
 9118TIP3    H127297   4.961   4.171   4.717
 9118TIP3    H227298   4.864   4.279   4.674
 9119TIP3   OH227299   5.374   3.583   3.569
 9119TIP3    H127300   5.434   3.623   3.632
 9119TIP3    H227301   5.302   3.549   3.623
 9120TIP3   OH227302   4.347   3.540   3.147
 9120TIP3    H127303   4.296   3.606   3.194
 9120TIP3    H227304   4.430   3.584   3.126
 9121TIP3   OH227305   3.349   5.595   5.466
 9121TIP3    H127306   3.342   5.515   5.414
 9121TIP3    H227307   3.409   5.572   5.538
 9122TIP3   OH227308   6.982   6.190   6.294
 9122TIP3    H127309   6.922   6.131   6.247
 9122TIP3    H227310   7.059   6.195   6.237
 9123TIP3   OH227311   1.102   0.413   4.009
 9123TIP3    H127312   1.189   0.396   4.045
 9123TIP3    H227313   1.046   0.347   4.050
 9124TIP3   OH227314   5.506   0.759   3.876
 9124TIP3    H127315   5.418   0.794   3.862
 9124TIP3    H227316   5.507   0.734   3.968
 9125TIP3   OH227317   2.907   6.857   5.040
 9125TIP3    H127318   2.921   6.942   5.081
 9125TIP3    H227319   2.855   6.808   5.103
 9126TIP3   OH227320   2.971   5.630   3.475
 9126TIP3    H127321   2.986   5.717   3.438
 9126TIP3    H227322   2.945   5.577   3.399
 9127TIP3   OH227323   3.112   5.889   0.309
 9127TIP3    H127324   3.042   5.833   0.276
 9127TIP3    H227325   3.069   5.946   0.373
 9128TIP3   OH227326   0.853   3.261   2.548
 9128TIP3    H127327   0.933   3.269   2.497
 9128TIP3    H227328   0.819   3.350   2.555
 9129TIP3   OH227329   6.000   7.365   5.308
 9129TIP3    H127330   5.943   7.296   5.273
 9129TIP3    H227331   5.991   7.437   5.246
 9130TIP3   OH227332   1.405   7.258   3.191
 9130TIP3    H127333   1.342   7.288   3.256
 9130TIP3    H227334   1.491   7.277   3.230
 9131TIP3   OH227335   4.977   4.655   2.146
 9131TIP3    H127336   4.899   4.602   2.130
 9131TIP3    H227337   4.944   4.732   2.193
 9132TIP3   OH227338   5.246   1.952   2.007
 9132TIP3    H127339   5.177   1.975   2.069
 9132TIP3    H227340   5.246   2.023   1.943
 9133TIP3   OH227341   4.497   5.617   3.547
 9133TIP3    H127342   4.412   5.602   3.506
 9133TIP3    H227343   4.557   5.556   3.504
 9134TIP3   OH227344   4.819   7.518   0.921
 9134TIP3    H127345   4.908   7.523   0.885
 9134TIP3    H227346   4.763   7.504   0.844
 9135TIP3   OH227347   6.579   7.569   3.954
 9135TIP3    H127348   6.496   7.524   3.968
 9135TIP3    H227349   6.618   7.576   4.041
 9136TIP3   OH227350   3.521   3.250   4.241
 9136TIP3    H127351   3.583   3.319   4.219
 9136TIP3    H227352   3.467   3.288   4.311
 9137TIP3   OH227353   3.141   4.040   1.757
 9137TIP3    H127354   3.136   3.946   1.740
 9137TIP3    H227355   3.052   4.071   1.742
 9138TIP3   OH227356   0.411   5.251   3.699
 9138TIP3    H127357   0.367   5.198   3.766
 9138TIP3    H227358   0.420   5.337   3.739
 9139TIP3   OH227359   5.088   5.592   4.562
 9139TIP3    H127360   5.011   5.586   4.617
 9139TIP3    H227361   5.086   5.681   4.527
 9140TIP3   OH227362   4.567   7.437   2.394
 9140TIP3    H127363   4.545   7.411   2.305
 9140TIP3    H227364   4.649   7.391   2.413
 9141TIP3   OH227365   8.144   0.121   6.374
 9141TIP3    H127366   8.149   0.101   6.468
 9141TIP3    H227367   8.151   0.036   6.331
 9142TIP3   OH227368   1.926   7.216   3.818
 9142TIP3    H127369   1.944   7.240   3.727
 9142TIP3    H227370   1.925   7.120   3.817
 9143TIP3   OH227371   3.593   4.510   6.198
 9143TIP3    H127372   3.518   4.544   6.149
 9143TIP3    H227373   3.618   4.430   6.151
 9144TIP3   OH227374   0.019   2.706   3.227
 9144TIP3    H127375   0.030   2.791   3.185
 9144TIP3    H227376   0.100   2.693   3.276
 9145TIP3   OH227377   1.342   2.763   0.229
 9145TIP3    H127378   1.325   2.673   0.256
 9145TIP3    H227379   1.358   2.758   0.135
 9146TIP3   OH227380   4.120   1.523   3.028
 9146TIP3    H127381   4.147   1.560   2.944
 9146TIP3    H227382   4.182   1.452   3.044
 9147TIP3   OH227383   7.501   5.876   1.134
 9147TIP3    H127384   7.501   5.808   1.201
 9147TIP3    H227385   7.425   5.931   1.155
 9148TIP3   OH227386   1.462   4.172   5.328
 9148TIP3    H127387   1.516   4.244   5.296
 9148TIP3    H227388   1.495   4.095   5.281
 9149TIP3   OH227389   6.005   5.026   4.829
 9149TIP3    H127390   6.086   4.976   4.815
 9149TIP3    H227391   5.987   5.065   4.744
 9150TIP3   OH227392   1.348   3.273   4.909
 9150TIP3    H127393   1.411   3.206   4.881
 9150TIP3    H227394   1.384   3.355   4.876
 9151TIP3   OH227395   3.410   4.473   5.426
 9151TIP3    H127396   3.399   4.415   5.350
 9151TIP3    H227397   3.445   4.554   5.390
 9152TIP3   OH227398   3.575   3.797   5.358
 9152TIP3    H127399   3.514   3.800   5.284
 9152TIP3    H227400   3.540   3.727   5.415
 9153TIP3   OH227401   2.212   5.646   1.100
 9153TIP3    H127402   2.283   5.636   1.037
 9153TIP3    H227403   2.150   5.705   1.056
 9154TIP3   OH227404   0.590   7.181   6.461
 9154TIP3    H127405   0.609   7.275   6.462
 9154TIP3    H227406   0.658   7.142   6.516
 9155TIP3   OH227407   2.710   2.729   4.997
 9155TIP3    H127408   2.638   2.775   5.040
 9155TIP3    H227409   2.786   2.744   5.054
 9156TIP3   OH227410   0.698   1.740   0.142
 9156TIP3    H127411   0.785   1.738   0.180
 9156TIP3    H227412   0.676   1.647   0.129
 9157TIP3   OH227413   2.069   1.347   3.873
 9157TIP3    H127414   2.022   1.429   3.882
 9157TIP3    H227415   2.011   1.281   3.911
 9158TIP3   OH227416   0.397   5.472   0.906
 9158TIP3    H127417   0.317   5.519   0.930
 9158TIP3    H227418   0.404   5.484   0.812
 9159TIP3   OH227419   0.284   3.992   1.821
 9159TIP3    H127420   0.328   4.077   1.821
 9159TIP3    H227421   0.313   3.950   1.741
 9160TIP3   OH227422   5.691   0.260   5.886
 9160TIP3    H127423   5.684   0.192   5.953
 9160TIP3    H227424   5.619   0.320   5.906
 9161TIP3   OH227425   3.580   5.909   5.171
 9161TIP3    H127426   3.647   5.937   5.110
 9161TIP3    H227427   3.510   5.974   5.162
 9162TIP3   OH227428   1.762   0.791   5.978
 9162TIP3    H127429   1.831   0.844   5.937
 9162TIP3    H227430   1.776   0.703   5.944
 9163TIP3   OH227431   1.857   2.438   4.569
 9163TIP3    H127432   1.949   2.464   4.560
 9163TIP3    H227433   1.824   2.494   4.640
 9164TIP3   OH227434   0.075   5.197   4.742
 9164TIP3    H127435  -0.015   5.218   4.770
 9164TIP3    H227436   0.108   5.140   4.812
 9165TIP3   OH227437   4.202   2.058   1.816
 9165TIP3    H127438   4.230   2.122   1.751
 9165TIP3    H227439   4.274   2.053   1.878
 9166TIP3   OH227440   0.230   0.772   4.916
 9166TIP3    H127441   0.325   0.768   4.926
 9166TIP3    H227442   0.200   0.684   4.938
 9167TIP3   OH227443   6.640   6.797   2.534
 9167TIP3    H127444   6.726   6.757   2.548
 9167TIP3    H227445   6.658   6.875   2.481
 9168TIP3   OH227446   4.599   7.670   0.199
 9168TIP3    H127447   4.647   7.681   0.281
 9168TIP3    H227448   4.638   7.734   0.140
 9169TIP3   OH227449   3.615   7.348   1.844
 9169TIP3    H127450   3.533   7.347   1.793
 9169TIP3    H227451   3.607   7.425   1.900
 9170TIP3   OH227452   0.646   5.430   4.648
 9170TIP3    H127453   0.643   5.480   4.730
 9170TIP3    H227454   0.738   5.405   4.640
 9171TIP3   OH227455   5.485   2.933   4.439
 9171TIP3    H127456   5.457   2.851   4.480
 9171TIP3    H227457   5.404   2.978   4.417
 9172TIP3   OH227458   3.750   4.511   1.782
 9172TIP3    H127459   3.811   4.463   1.839
 9172TIP3    H227460   3.806   4.559   1.721
 9173TIP3   OH227461   3.588   6.075   0.767
 9173TIP3    H127462   3.670   6.124   0.770
 9173TIP3    H227463   3.605   6.004   0.705
 9174TIP3   OH227464   7.736   5.442   5.084
 9174TIP3    H127465   7.642   5.450   5.068
 9174TIP3    H227466   7.766   5.380   5.018
 9175TIP3   OH227467   1.470   3.076   4.765
 9175TIP3    H127468   1.537   3.106   4.704
 9175TIP3    H227469   1.387   3.092   4.719
 9176TIP3   OH227470   5.516   5.491   1.275
 9176TIP3    H127471   5.543   5.530   1.192
 9176TIP3    H227472   5.441   5.543   1.303
 9177TIP3   OH227473   7.976   0.164   5.455
 9177TIP3    H127474   8.009   0.159   5.365
 9177TIP3    H227475   8.036   0.224   5.499
 9178TIP3   OH227476   5.737   7.038   6.265
 9178TIP3    H127477   5.754   7.128   6.235
 9178TIP3    H227478   5.759   6.983   6.190
 9179TIP3   OH227479   7.107   5.290   1.182
 9179TIP3    H127480   7.109   5.301   1.277
 9179TIP3    H227481   7.191   5.327   1.152
 9180TIP3   OH227482   6.558   5.383   2.033
 9180TIP3    H127483   6.499   5.458   2.032
 9180TIP3    H227484   6.586   5.373   1.942
 9181TIP3   OH227485   5.117   3.451   5.697
 9181TIP3    H127486   5.195   3.448   5.752
 9181TIP3    H227487   5.102   3.360   5.670
 9182TIP3   OH227488   4.878   6.098   5.400
 9182TIP3    H127489   4.883   6.053   5.316
 9182TIP3    H227490   4.932   6.176   5.389
 9183TIP3   OH227491   0.058   2.438   4.895
 9183TIP3    H127492  -0.017   2.494   4.873
 9183TIP3    H227493   0.079   2.461   4.985
 9184TIP3   OH227494   1.234   6.669   5.059
 9184TIP3    H127495   1.305   6.726   5.031
 9184TIP3    H227496   1.246   6.589   5.009
 9185TIP3   OH227497   7.268   2.037   4.350
 9185TIP3    H127498   7.299   2.122   4.318
 9185TIP3    H227499   7.310   1.973   4.293
 9186TIP3   OH227500   4.063  -0.011   2.095
 9186TIP3    H127501   4.076   0.022   2.006
 9186TIP3    H227502   4.090   0.062   2.152
 9187TIP3   OH227503   0.027   1.213   3.289
 9187TIP3    H127504   0.118   1.184   3.278
 9187TIP3    H227505   0.019   1.287   3.230
 9188TIP3   OH227506   2.526   2.969   2.601
 9188TIP3    H127507   2.491   2.880   2.604
 9188TIP3    H227508   2.520   3.000   2.692
 9189TIP3   OH227509   1.860   4.565   0.836
 9189TIP3    H127510   1.850   4.656   0.865
 9189TIP3    H227511   1.908   4.571   0.754
 9190TIP3   OH227512   3.444   6.557   1.880
 9190TIP3    H127513   3.489   6.638   1.857
 9190TIP3    H227514   3.354   6.570   1.850
 9191TIP3   OH227515   3.619   4.824   6.016
 9191TIP3    H127516   3.683   4.861   6.076
 9191TIP3    H227517   3.539   4.874   6.033
 9192TIP3   OH227518   6.950   4.492   2.727
 9192TIP3    H127519   6.888   4.500   2.799
 9192TIP3    H227520   6.999   4.412   2.746
 9193TIP3   OH227521   0.468   7.601   0.895
 9193TIP3    H127522   0.438   7.624   0.983
 9193TIP3    H227523   0.460   7.682   0.846
 9194TIP3   OH227524   1.326   7.575   0.417
 9194TIP3    H127525   1.258   7.581   0.484
 9194TIP3    H227526   1.389   7.512   0.452
 9195TIP3   OH227527   2.967   1.485   0.770
 9195TIP3    H127528   2.993   1.559   0.715
 9195TIP3    H227529   2.951   1.414   0.708
 9196TIP3   OH227530   3.632   1.493   0.732
 9196TIP3    H127531   3.663   1.551   0.662
 9196TIP3    H227532   3.586   1.551   0.792
 9197TIP3   OH227533   2.087   2.449   1.148
 9197TIP3    H127534   2.109   2.426   1.058
 9197TIP3    H227535   2.076   2.544   1.147
 9198TIP3   OH227536   0.606   3.883   5.778
 9198TIP3    H127537   0.530   3.824   5.770
 9198TIP3    H227538   0.577   3.949   5.841
 9199TIP3   OH227539   6.317   5.095   6.699
 9199TIP3    H127540   6.271   5.169   6.660
 9199TIP3    H227541   6.377   5.065   6.630
 9200TIP3   OH227542   7.429   4.217   1.420
 9200TIP3    H127543   7.412   4.134   1.375
 9200TIP3    H227544   7.489   4.194   1.491
 9201TIP3   OH227545   0.757   0.241   5.594
 9201TIP3    H127546   0.799   0.290   5.665
 9201TIP3    H227547   0.801   0.156   5.595
 9202TIP3   OH227548   5.320   4.428   0.195
 9202TIP3    H127549   5.328   4.368   0.120
 9202TIP3    H227550   5.375   4.389   0.263
 9203TIP3   OH227551   4.222   4.537   0.296
 9203TIP3    H127552   4.314   4.523   0.316
 9203TIP3    H227553   4.180   4.453   0.312
 9204TIP3   OH227554   0.864   5.469   1.483
 9204TIP3    H127555   0.804   5.496   1.414
 9204TIP3    H227556   0.854   5.535   1.551
 9205TIP3   OH227557   7.708   4.872   1.649
 9205TIP3    H127558   7.630   4.823   1.621
 9205TIP3    H227559   7.763   4.876   1.570
 9206TIP3   OH227560   7.317   7.297   0.620
 9206TIP3    H127561   7.294   7.234   0.551
 9206TIP3    H227562   7.406   7.324   0.597
 9207TIP3   OH227563   2.248   4.318   0.684
 9207TIP3    H127564   2.317   4.322   0.618
 9207TIP3    H227565   2.168   4.307   0.633
 9208TIP3   OH227566   2.178   7.172   3.240
 9208TIP3    H127567   2.154   7.262   3.216
 9208TIP3    H227568   2.258   7.155   3.190
 9209TIP3   OH227569   1.328   5.136   6.168
 9209TIP3    H127570   1.408   5.083   6.175
 9209TIP3    H227571   1.257   5.075   6.188
 9210TIP3   OH227572   7.066   2.366   1.850
 9210TIP3    H127573   7.045   2.282   1.890
 9210TIP3    H227574   7.002   2.375   1.779
 9211TIP3   OH227575   6.132   1.351   2.177
 9211TIP3    H127576   6.174   1.310   2.252
 9211TIP3    H227577   6.188   1.426   2.156
 9212TIP3   OH227578   0.716   4.364   3.703
 9212TIP3    H127579   0.732   4.447   3.659
 9212TIP3    H227580   0.704   4.301   3.632
 9213TIP3   OH227581   5.025   5.851   3.897
 9213TIP3    H127582   5.071   5.895   3.826
 9213TIP3    H227583   4.933   5.852   3.870
 9214TIP3   OH227584   3.883   6.385   4.099
 9214TIP3    H127585   3.915   6.417   4.183
 9214TIP3    H227586   3.836   6.459   4.061
 9215TIP3   OH227587   3.241   3.771   2.151
 9215TIP3    H127588   3.224   3.802   2.240
 9215TIP3    H227589   3.327   3.728   2.156
 9216TIP3   OH227590   3.601   7.239   4.889
 9216TIP3    H127591   3.628   7.302   4.823
 9216TIP3    H227592   3.591   7.291   4.969
 9217TIP3   OH227593   3.154   5.418   5.656
 9217TIP3    H127594   3.083   5.477   5.679
 9217TIP3    H227595   3.131   5.386   5.569
 9218TIP3   OH227596   0.852   7.645   5.010
 9218TIP3    H127597   0.810   7.575   5.060
 9218TIP3    H227598   0.813   7.726   5.044
 9219TIP3   OH227599   2.166   6.124   0.361
 9219TIP3    H127600   2.211   6.054   0.313
 9219TIP3    H227601   2.236   6.179   0.396
 9220TIP3   OH227602   3.469   3.342   1.128
 9220TIP3    H127603   3.559   3.364   1.153
 9220TIP3    H227604   3.414   3.400   1.181
 9221TIP3   OH227605   0.850   3.943   0.772
 9221TIP3    H127606   0.905   3.973   0.699
 9221TIP3    H227607   0.830   3.852   0.751
 9222TIP3   OH227608   2.943   1.512   3.666
 9222TIP3    H127609   2.878   1.453   3.705
 9222TIP3    H227610   2.918   1.518   3.574
 9223TIP3   OH227611   8.014   3.462   3.844
 9223TIP3    H127612   8.050   3.485   3.758
 9223TIP3    H227613   8.090   3.456   3.901
 9224TIP3   OH227614   3.118   0.163   3.896
 9224TIP3    H127615   3.065   0.213   3.834
 9224TIP3    H227616   3.092   0.072   3.880
 9225TIP3   OH227617   4.214   7.217   4.575
 9225TIP3    H127618   4.294   7.247   4.618
 9225TIP3    H227619   4.145   7.271   4.613
 9226TIP3   OH227620   2.521   3.909   5.747
 9226TIP3    H127621   2.509   4.002   5.730
 9226TIP3    H227622   2.493   3.897   5.838
 9227TIP3   OH227623   3.963   0.392   2.215
 9227TIP3    H127624   3.871   0.398   2.193
 9227TIP3    H227625   3.986   0.479   2.249
 9228TIP3   OH227626   3.733   1.816   3.982
 9228TIP3    H127627   3.702   1.866   3.907
 9228TIP3    H227628   3.817   1.779   3.954
 9229TIP3   OH227629   2.754   6.174   6.356
 9229TIP3    H127630   2.795   6.122   6.425
 9229TIP3    H227631   2.779   6.265   6.377
 9230TIP3   OH227632   3.986   4.190   2.691
 9230TIP3    H127633   4.016   4.280   2.701
 9230TIP3    H227634   4.058   4.144   2.648
 9231TIP3   OH227635   1.556   5.174   3.429
 9231TIP3    H127636   1.557   5.099   3.490
 9231TIP3    H227637   1.625   5.232   3.462
 9232TIP3   OH227638   1.337   0.382   6.124
 9232TIP3    H127639   1.353   0.474   6.103
 9232TIP3    H227640   1.246   0.379   6.153
 9233TIP3   OH227641   7.609   2.068   1.123
 9233TIP3    H127642   7.668   1.995   1.103
 9233TIP3    H227643   7.662   2.146   1.109
 9234TIP3   OH227644   2.049   2.881   0.836
 9234TIP3    H127645   2.133   2.874   0.882
 9234TIP3    H227646   2.071   2.918   0.751
 9235TIP3   OH227647   4.095   3.349   3.195
 9235TIP3    H127648   4.122   3.353   3.287
 9235TIP3    H227649   4.032   3.420   3.186
 9236TIP3   OH227650   2.155   0.456   1.161
 9236TIP3    H127651   2.244   0.421   1.153
 9236TIP3    H227652   2.106   0.414   1.091
 9237TIP3   OH227653   3.174   2.332   0.137
 9237TIP3    H127654   3.257   2.369   0.168
 9237TIP3    H227655   3.117   2.336   0.214
 9238TIP3   OH227656   3.732   3.386   6.636
 9238TIP3    H127657   3.650   3.435   6.646
 9238TIP3    H227658   3.799   3.453   6.626
 9239TIP3   OH227659   4.153   6.807   0.309
 9239TIP3    H127660   4.166   6.731   0.366
 9239TIP3    H227661   4.239   6.824   0.270
 9240TIP3   OH227662   6.065   4.983   2.480
 9240TIP3    H127663   6.139   5.042   2.493
 9240TIP3    H227664   6.023   5.015   2.401
 9241TIP3   OH227665   4.010   2.663   1.757
 9241TIP3    H127666   4.069   2.644   1.831
 9241TIP3    H227667   3.949   2.728   1.791
 9242TIP3   OH227668   7.272   0.761   2.870
 9242TIP3    H127669   7.311   0.688   2.821
 9242TIP3    H227670   7.217   0.806   2.807
 9243TIP3   OH227671   0.238   5.449   1.419
 9243TIP3    H127672   0.244   5.356   1.442
 9243TIP3    H227673   0.219   5.493   1.503
 9244TIP3   OH227674   6.713   1.221   3.875
 9244TIP3    H127675   6.680   1.310   3.878
 9244TIP3    H227676   6.689   1.184   3.960
 9245TIP3   OH227677   5.789   7.671   6.706
 9245TIP3    H127678   5.814   7.730   6.635
 9245TIP3    H227679   5.694   7.662   6.697
 9246TIP3   OH227680   6.353   0.254   1.052
 9246TIP3    H127681   6.312   0.196   1.117
 9246TIP3    H227682   6.442   0.267   1.083
 9247TIP3   OH227683   4.620   3.873   1.804
 9247TIP3    H127684   4.672   3.926   1.743
 9247TIP3    H227685   4.678   3.860   1.879
 9248TIP3   OH227686   3.804   3.621   3.520
 9248TIP3    H127687   3.833   3.674   3.594
 9248TIP3    H227688   3.709   3.630   3.518
 9249TIP3   OH227689   1.385   3.519   4.750
 9249TIP3    H127690   1.443   3.547   4.821
 9249TIP3    H227691   1.392   3.587   4.684
 9250TIP3   OH227692   3.031   7.565   0.176
 9250TIP3    H127693   3.062   7.503   0.110
 9250TIP3    H227694   3.053   7.524   0.259
 9251TIP3   OH227695   8.120   6.058   2.689
 9251TIP3    H127696   8.130   6.154   2.688
 9251TIP3    H227697   8.208   6.026   2.708
 9252TIP3   OH227698   0.233   5.421   4.798
 9252TIP3    H127699   0.173   5.351   4.774
 9252TIP3    H227700   0.301   5.419   4.731
 9253TIP3   OH227701   2.285   4.092   2.028
 9253TIP3    H127702   2.283   4.147   2.107
 9253TIP3    H227703   2.242   4.146   1.961
 9254TIP3   OH227704   5.092   6.316   4.786
 9254TIP3    H127705   5.132   6.341   4.702
 9254TIP3    H227706   5.159   6.337   4.851
 9255TIP3   OH227707   3.851   6.559   1.386
 9255TIP3    H127708   3.859   6.501   1.462
 9255TIP3    H227709   3.770   6.607   1.400
 9256TIP3   OH227710   0.647   4.142   6.340
 9256TIP3    H127711   0.552   4.148   6.337
 9256TIP3    H227712   0.666   4.089   6.417
 9257TIP3   OH227713   1.369   4.822   0.253
 9257TIP3    H127714   1.446   4.874   0.230
 9257TIP3    H227715   1.401   4.757   0.316
 9258TIP3   OH227716   3.668   7.510   2.793
 9258TIP3    H127717   3.609   7.574   2.755
 9258TIP3    H227718   3.626   7.426   2.776
 9259TIP3   OH227719   6.925   0.469   4.415
 9259TIP3    H127720   6.903   0.399   4.477
 9259TIP3    H227721   6.923   0.548   4.468
 9260TIP3   OH227722   1.542   3.019   5.092
 9260TIP3    H127723   1.493   3.052   5.016
 9260TIP3    H227724   1.634   3.038   5.071
 9261TIP3   OH227725   2.248   2.233   5.480
 9261TIP3    H127726   2.200   2.289   5.542
 9261TIP3    H227727   2.313   2.291   5.441
 9262TIP3   OH227728   3.706   1.297   3.158
 9262TIP3    H127729   3.678   1.271   3.246
 9262TIP3    H227730   3.732   1.389   3.167
 9263TIP3   OH227731   4.501   7.750   5.362
 9263TIP3    H127732   4.580   7.791   5.326
 9263TIP3    H227733   4.451   7.823   5.398
 9264TIP3   OH227734   8.107   1.581   3.083
 9264TIP3    H127735   8.025   1.548   3.046
 9264TIP3    H227736   8.086   1.670   3.112
 9265TIP3   OH227737   7.751   2.006   6.639
 9265TIP3    H127738   7.819   1.994   6.705
 9265TIP3    H227739   7.795   2.056   6.569
 9266TIP3   OH227740   4.788   5.681   3.080
 9266TIP3    H127741   4.796   5.716   3.169
 9266TIP3    H227742   4.856   5.727   3.030
 9267TIP3   OH227743   0.262   0.122   2.172
 9267TIP3    H127744   0.334   0.141   2.232
 9267TIP3    H227745   0.234   0.208   2.141
 9268TIP3   OH227746   0.402   6.079   2.807
 9268TIP3    H127747   0.340   6.144   2.839
 9268TIP3    H227748   0.476   6.084   2.869
 9269TIP3   OH227749   1.129   5.138   4.195
 9269TIP3    H127750   1.136   5.110   4.103
 9269TIP3    H227751   1.092   5.226   4.191
 9270TIP3   OH227752   5.887   2.128   6.290
 9270TIP3    H127753   5.972   2.149   6.251
 9270TIP3    H227754   5.908   2.102   6.380
 9271TIP3   OH227755   1.544   7.685   1.926
 9271TIP3    H127756   1.491   7.630   1.983
 9271TIP3    H227757   1.633   7.679   1.962
 9272TIP3   OH227758   0.237   0.576   5.881
 9272TIP3    H127759   0.197   0.638   5.942
 9272TIP3    H227760   0.305   0.626   5.837
 9273TIP3   OH227761   6.123   2.650   0.381
 9273TIP3    H127762   6.204   2.602   0.397
 9273TIP3    H227763   6.067   2.628   0.455
 9274TIP3   OH227764   7.127   2.138   2.001
 9274TIP3    H127765   7.044   2.110   2.039
 9274TIP3    H227766   7.187   2.066   2.017
 9275TIP3   OH227767   1.165   0.951   4.618
 9275TIP3    H127768   1.234   0.979   4.558
 9275TIP3    H227769   1.143   1.030   4.667
 9276TIP3   OH227770   1.107   7.191   4.653
 9276TIP3    H127771   1.034   7.130   4.665
 9276TIP3    H227772   1.175   7.139   4.611
 9277TIP3   OH227773   5.974   6.291   0.341
 9277TIP3    H127774   5.935   6.377   0.353
 9277TIP3    H227775   6.012   6.270   0.427
 9278TIP3   OH227776   7.601   7.333   6.055
 9278TIP3    H127777   7.663   7.404   6.036
 9278TIP3    H227778   7.526   7.353   5.999
 9279TIP3   OH227779   8.091   3.350   4.176
 9279TIP3    H127780   8.122   3.426   4.127
 9279TIP3    H227781   8.104   3.373   4.268
 9280TIP3   OH227782   0.641   5.659   1.135
 9280TIP3    H127783   0.587   5.626   1.207
 9280TIP3    H227784   0.723   5.610   1.141
 9281TIP3   OH227785   3.236   0.051   1.640
 9281TIP3    H127786   3.304   0.109   1.675
 9281TIP3    H227787   3.154   0.086   1.675
 9282TIP3   OH227788   1.557   4.689   2.935
 9282TIP3    H127789   1.564   4.759   3.001
 9282TIP3    H227790   1.465   4.665   2.935
 9283TIP3   OH227791   2.035   0.959   1.360
 9283TIP3    H127792   2.087   0.935   1.436
 9283TIP3    H227793   2.004   0.876   1.325
 9284TIP3   OH227794   6.007   7.735   0.136
 9284TIP3    H127795   5.993   7.699   0.049
 9284TIP3    H227796   6.085   7.789   0.127
 9285TIP3   OH227797   2.166   7.447   2.905
 9285TIP3    H127798   2.243   7.489   2.867
 9285TIP3    H227799   2.172   7.356   2.877
 9286TIP3   OH227800   1.078   1.672   6.440
 9286TIP3    H127801   1.063   1.586   6.480
 9286TIP3    H227802   1.142   1.714   6.497
 9287TIP3   OH227803   4.543   0.897   6.617
 9287TIP3    H127804   4.475   0.912   6.683
 9287TIP3    H227805   4.524   0.961   6.548
 9288TIP3   OH227806   7.401   1.061   5.657
 9288TIP3    H127807   7.486   1.099   5.636
 9288TIP3    H227808   7.350   1.068   5.576
 9289TIP3   OH227809   2.351   3.275   5.124
 9289TIP3    H127810   2.435   3.290   5.081
 9289TIP3    H227811   2.286   3.310   5.063
 9290TIP3   OH227812   7.003   7.657   4.242
 9290TIP3    H127813   7.074   7.717   4.264
 9290TIP3    H227814   7.036   7.605   4.169
 9291TIP3   OH227815   3.460   5.967   2.355
 9291TIP3    H127816   3.482   6.017   2.277
 9291TIP3    H227817   3.421   5.886   2.321
 9292TIP3   OH227818   7.021   2.496   4.677
 9292TIP3    H127819   6.987   2.437   4.609
 9292TIP3    H227820   7.098   2.450   4.711
 9293TIP3   OH227821   2.424   2.024   5.301
 9293TIP3    H127822   2.394   1.946   5.255
 9293TIP3    H227823   2.354   2.043   5.363
 9294TIP3   OH227824   3.744   6.541   0.553
 9294TIP3    H127825   3.663   6.522   0.504
 9294TIP3    H227826   3.800   6.586   0.489
 9295TIP3   OH227827   3.381   4.493   4.404
 9295TIP3    H127828   3.461   4.524   4.446
 9295TIP3    H227829   3.400   4.403   4.378
 9296TIP3   OH227830   6.692   7.824   4.986
 9296TIP3    H127831   6.754   7.752   4.973
 9296TIP3    H227832   6.745   7.897   5.016
 9297TIP3   OH227833   3.899   1.163   2.089
 9297TIP3    H127834   3.904   1.126   2.001
 9297TIP3    H227835   3.805   1.177   2.104
 9298TIP3   OH227836   5.128   6.956   3.185
 9298TIP3    H127837   5.067   7.028   3.202
 9298TIP3    H227838   5.081   6.898   3.126
 9299TIP3   OH227839   5.010   0.624   0.967
 9299TIP3    H127840   5.030   0.718   0.959
 9299TIP3    H227841   5.033   0.588   0.881
 9300TIP3   OH227842   1.672   4.439   1.427
 9300TIP3    H127843   1.642   4.453   1.337
 9300TIP3    H227844   1.690   4.527   1.460
 9301TIP3   OH227845   1.203   1.022   5.225
 9301TIP3    H127846   1.126   1.021   5.168
 9301TIP3    H227847   1.261   1.088   5.186
 9302TIP3   OH227848   7.910   0.155   0.834
 9302TIP3    H127849   7.925   0.249   0.828
 9302TIP3    H227850   7.829   0.146   0.883
 9303TIP3   OH227851   6.936   7.302   4.388
 9303TIP3    H127852   6.956   7.265   4.302
 9303TIP3    H227853   6.861   7.359   4.373
 9304TIP3   OH227854   6.564   0.223   2.621
 9304TIP3    H127855   6.600   0.238   2.534
 9304TIP3    H227856   6.607   0.288   2.677
 9305TIP3   OH227857   6.395   2.552   4.677
 9305TIP3    H127858   6.448   2.473   4.685
 9305TIP3    H227859   6.307   2.525   4.703
 9306TIP3   OH227860   8.105   5.054   4.249
 9306TIP3    H127861   8.089   5.146   4.272
 9306TIP3    H227862   8.166   5.058   4.175
 9307TIP3   OH227863   1.518   6.760   2.842
 9307TIP3    H127864   1.560   6.722   2.918
 9307TIP3    H227865   1.424   6.759   2.863
 9308TIP3   OH227866   2.989   5.111   1.559
 9308TIP3    H127867   2.940   5.181   1.516
 9308TIP3    H227868   3.012   5.050   1.488
 9309TIP3   OH227869   1.334   4.730   6.657
 9309TIP3    H127870   1.333   4.810   6.710
 9309TIP3    H227871   1.426   4.715   6.638
 9310TIP3   OH227872   0.292   3.845   2.429
 9310TIP3    H127873   0.303   3.891   2.513
 9310TIP3    H227874   0.343   3.897   2.367
 9311TIP3   OH227875   6.070   6.631   4.509
 9311TIP3    H127876   6.013   6.617   4.433
 9311TIP3    H227877   6.083   6.543   4.545
 9312TIP3   OH227878   7.585   2.592   4.405
 9312TIP3    H127879   7.578   2.549   4.490
 9312TIP3    H227880   7.494   2.604   4.376
 9313TIP3   OH227881   2.257   1.260   2.335
 9313TIP3    H127882   2.221   1.321   2.270
 9313TIP3    H227883   2.184   1.201   2.355
 9314TIP3   OH227884   7.834   5.457   2.410
 9314TIP3    H127885   7.846   5.552   2.406
 9314TIP3    H227886   7.917   5.421   2.381
 9315TIP3   OH227887   7.984   1.454   0.446
 9315TIP3    H127888   7.990   1.403   0.365
 9315TIP3    H227889   8.073   1.453   0.482
 9316TIP3   OH227890   4.567   1.144   3.155
 9316TIP3    H127891   4.612   1.222   3.188
 9316TIP3    H227892   4.537   1.170   3.067
 9317TIP3   OH227893   5.588   7.582   5.899
 9317TIP3    H127894   5.524   7.519   5.865
 9317TIP3    H227895   5.570   7.587   5.992
 9318TIP3   OH227896   2.268   2.485   3.820
 9318TIP3    H127897   2.295   2.462   3.731
 9318TIP3    H227898   2.180   2.447   3.829
 9319TIP3   OH227899   7.552   7.183   4.278
 9319TIP3    H127900   7.511   7.097   4.276
 9319TIP3    H227901   7.481   7.244   4.297
 9320TIP3   OH227902   0.021   2.240   6.328
 9320TIP3    H127903   0.110   2.236   6.294
 9320TIP3    H227904   0.031   2.239   6.423
 9321TIP3   OH227905   7.270   6.769   2.075
 9321TIP3    H127906   7.347   6.716   2.096
 9321TIP3    H227907   7.212   6.710   2.029
 9322TIP3   OH227908   6.575   0.085   1.428
 9322TIP3    H127909   6.524   0.164   1.412
 9322TIP3    H227910   6.611   0.061   1.343
 9323TIP3   OH227911   5.503   0.995   6.340
 9323TIP3    H127912   5.525   1.007   6.433
 9323TIP3    H227913   5.486   1.084   6.309
 9324TIP3   OH227914   4.010   4.557   5.567
 9324TIP3    H127915   4.080   4.622   5.564
 9324TIP3    H227916   4.004   4.523   5.478
 9325TIP3   OH227917   5.325   2.764   5.026
 9325TIP3    H127918   5.352   2.835   4.967
 9325TIP3    H227919   5.249   2.799   5.072
 9326TIP3   OH227920   0.752   5.544   5.720
 9326TIP3    H127921   0.724   5.556   5.811
 9326TIP3    H227922   0.708   5.616   5.673
 9327TIP3   OH227923   2.036   1.587   3.607
 9327TIP3    H127924   2.112   1.641   3.589
 9327TIP3    H227925   2.020   1.597   3.701
 9328TIP3   OH227926   1.533   4.458   3.678
 9328TIP3    H127927   1.485   4.399   3.619
 9328TIP3    H227928   1.482   4.457   3.759
 9329TIP3   OH227929   6.556   1.551   2.675
 9329TIP3    H127930   6.485   1.509   2.724
 9329TIP3    H227931   6.636   1.520   2.717
 9330TIP3   OH227932   5.668   0.662   6.110
 9330TIP3    H127933   5.644   0.625   6.195
 9330TIP3    H227934   5.634   0.599   6.046
 9331TIP3   OH227935   6.042   5.635   4.852
 9331TIP3    H127936   6.064   5.683   4.932
 9331TIP3    H227937   6.123   5.638   4.801
 9332TIP3   OH227938   3.739   7.536   5.592
 9332TIP3    H127939   3.736   7.608   5.656
 9332TIP3    H227940   3.820   7.551   5.544
 9333TIP3   OH227941   4.571   5.016   1.293
 9333TIP3    H127942   4.480   4.987   1.293
 9333TIP3    H227943   4.578   5.071   1.215
 9334TIP3   OH227944   6.142   0.885   5.695
 9334TIP3    H127945   6.118   0.975   5.671
 9334TIP3    H227946   6.067   0.853   5.745
 9335TIP3   OH227947   0.697   2.808   3.699
 9335TIP3    H127948   0.691   2.713   3.686
 9335TIP3    H227949   0.789   2.829   3.682
 9336TIP3   OH227950   4.223   2.760   6.520
 9336TIP3    H127951   4.284   2.790   6.452
 9336TIP3    H227952   4.242   2.667   6.529
 9337TIP3   OH227953   2.500   3.770   3.469
 9337TIP3    H127954   2.544   3.846   3.429
 9337TIP3    H227955   2.522   3.776   3.562
 9338TIP3   OH227956   4.196   0.070   5.712
 9338TIP3    H127957   4.234   0.012   5.779
 9338TIP3    H227958   4.147   0.135   5.762
 9339TIP3   OH227959   7.427   7.694   3.325
 9339TIP3    H127960   7.497   7.693   3.390
 9339TIP3    H227961   7.406   7.786   3.313
 9340TIP3   OH227962   7.151   1.041   1.009
 9340TIP3    H127963   7.071   0.996   1.037
 9340TIP3    H227964   7.152   1.122   1.060
 9341TIP3   OH227965   5.427   3.078   1.571
 9341TIP3    H127966   5.360   3.103   1.635
 9341TIP3    H227967   5.396   2.996   1.533
 9342TIP3   OH227968   8.171   5.643   4.873
 9342TIP3    H127969   8.116   5.651   4.951
 9342TIP3    H227970   8.177   5.732   4.838
 9343TIP3   OH227971   8.111   0.885   5.150
 9343TIP3    H127972   8.084   0.976   5.140
 9343TIP3    H227973   8.087   0.844   5.067
 9344TIP3   OH227974   3.945   0.724   5.548
 9344TIP3    H127975   4.018   0.726   5.486
 9344TIP3    H227976   3.867   0.727   5.493
 9345TIP3   OH227977   3.411   3.793   5.138
 9345TIP3    H127978   3.395   3.881   5.104
 9345TIP3    H227979   3.352   3.736   5.087
 9346TIP3   OH227980   4.096   0.773   0.230
 9346TIP3    H127981   4.050   0.789   0.148
 9346TIP3    H227982   4.182   0.740   0.205
 9347TIP3   OH227983   2.376   2.095   4.721
 9347TIP3    H127984   2.442   2.142   4.772
 9347TIP3    H227985   2.305   2.159   4.710
 9348TIP3   OH227986   0.524   3.921   0.631
 9348TIP3    H127987   0.569   3.937   0.548
 9348TIP3    H227988   0.431   3.919   0.608
 9349TIP3   OH227989   7.826   5.525   4.674
 9349TIP3    H127990   7.921   5.539   4.678
 9349TIP3    H227991   7.807   5.510   4.582
 9350TIP3   OH227992   1.926   0.743   4.664
 9350TIP3    H127993   1.906   0.650   4.673
 9350TIP3    H227994   2.022   0.747   4.661
 9351TIP3   OH227995   0.386   1.983   4.413
 9351TIP3    H127996   0.367   2.046   4.482
 9351TIP3    H227997   0.320   1.999   4.346
 9352TIP3   OH227998   3.994   5.366   3.873
 9352TIP3    H127999   3.999   5.453   3.832
 9352TIP3    H228000   3.920   5.373   3.934
 9353TIP3   OH228001   2.822   5.895   4.796
 9353TIP3    H128002   2.908   5.882   4.757
 9353TIP3    H228003   2.794   5.981   4.765
 9354TIP3   OH228004   5.226   6.392   5.476
 9354TIP3    H128005   5.281   6.454   5.524
 9354TIP3    H228006   5.271   6.308   5.486
 9355TIP3   OH228007   6.791   1.919   2.469
 9355TIP3    H128008   6.776   1.854   2.401
 9355TIP3    H228009   6.769   1.875   2.551
 9356TIP3   OH228010   4.793   1.958   5.856
 9356TIP3    H128011   4.816   1.984   5.767
 9356TIP3    H228012   4.698   1.973   5.861
 9357TIP3   OH228013   0.317   4.037   6.118
 9357TIP3    H128014   0.229   4.014   6.087
 9357TIP3    H228015   0.315   4.018   6.212
 9358TIP3   OH228016   0.210   5.076   6.002
 9358TIP3    H128017   0.191   5.119   6.085
 9358TIP3    H228018   0.162   4.994   6.006
 9359TIP3   OH228019   4.889   7.560   4.665
 9359TIP3    H128020   4.838   7.501   4.609
 9359TIP3    H228021   4.968   7.510   4.687
 9360TIP3   OH228022   6.561   7.808   2.934
 9360TIP3    H128023   6.619   7.782   3.005
 9360TIP3    H228024   6.488   7.746   2.939
 9361TIP3   OH228025   4.217   2.810   5.792
 9361TIP3    H128026   4.145   2.765   5.837
 9361TIP3    H228027   4.174   2.874   5.735
 9362TIP3   OH228028   5.005   1.533   0.018
 9362TIP3    H128029   4.963   1.552   0.102
 9362TIP3    H228030   5.090   1.496   0.042
 9363TIP3   OH228031   5.043   3.295   4.130
 9363TIP3    H128032   5.035   3.381   4.088
 9363TIP3    H228033   5.032   3.232   4.059
 9364TIP3   OH228034   4.135   4.036   3.893
 9364TIP3    H128035   4.221   4.047   3.854
 9364TIP3    H228036   4.150   3.979   3.969
 9365TIP3   OH228037   2.873   4.783   6.711
 9365TIP3    H128038   2.934   4.727   6.759
 9365TIP3    H228039   2.928   4.853   6.676
 9366TIP3   OH228040   3.688   3.341   5.962
 9366TIP3    H128041   3.707   3.424   6.004
 9366TIP3    H228042   3.715   3.275   6.025
 9367TIP3   OH228043   2.893   6.951   2.285
 9367TIP3    H128044   2.806   6.986   2.266
 9367TIP3    H228045   2.904   6.964   2.379
 9368TIP3   OH228046   4.182   3.776   4.738
 9368TIP3    H128047   4.230   3.736   4.811
 9368TIP3    H228048   4.148   3.702   4.688
 9369TIP3   OH228049   3.238   4.072   2.235
 9369TIP3    H128050   3.313   4.079   2.177
 9369TIP3    H228051   3.173   4.024   2.184
 9370TIP3   OH228052   7.031   0.648   6.478
 9370TIP3    H128053   6.956   0.707   6.470
 9370TIP3    H228054   7.104   0.706   6.501
 9371TIP3   OH228055   5.068   7.731   6.107
 9371TIP3    H128056   4.980   7.770   6.108
 9371TIP3    H228057   5.081   7.699   6.196
 9372TIP3   OH228058   3.043   5.067   3.153
 9372TIP3    H128059   3.032   4.991   3.095
 9372TIP3    H228060   3.000   5.138   3.107
 9373TIP3   OH228061   0.502   0.078   6.193
 9373TIP3    H128062   0.508   0.174   6.184
 9373TIP3    H228063   0.567   0.056   6.259
 9374TIP3   OH228064   2.972   0.846   2.748
 9374TIP3    H128065   2.909   0.839   2.820
 9374TIP3    H228066   2.999   0.756   2.732
 9375TIP3   OH228067   5.014   4.896   3.371
 9375TIP3    H128068   4.990   4.947   3.449
 9375TIP3    H228069   5.101   4.861   3.391
 9376TIP3   OH228070   6.999   2.773   4.316
 9376TIP3    H128071   7.016   2.698   4.259
 9376TIP3    H228072   6.995   2.848   4.256
 9377TIP3   OH228073   2.564   5.744   3.831
 9377TIP3    H128074   2.497   5.700   3.779
 9377TIP3    H228075   2.623   5.674   3.859
 9378TIP3   OH228076   7.041   7.317   4.639
 9378TIP3    H128077   7.049   7.301   4.545
 9378TIP3    H228078   7.097   7.251   4.679
 9379TIP3   OH228079   1.450   7.705   3.789
 9379TIP3    H128080   1.527   7.750   3.756
 9379TIP3    H228081   1.436   7.741   3.876
 9380TIP3   OH228082   2.432   5.080   2.685
 9380TIP3    H128083   2.511   5.133   2.678
 9380TIP3    H228084   2.363   5.134   2.646
 9381TIP3   OH228085   7.791   1.986   4.436
 9381TIP3    H128086   7.884   1.966   4.451
 9381TIP3    H228087   7.767   1.933   4.360
 9382TIP3   OH228088   6.938   1.254   4.194
 9382TIP3    H128089   6.982   1.313   4.255
 9382TIP3    H228090   6.850   1.291   4.183
 9383TIP3   OH228091   4.370   6.139   6.188
 9383TIP3    H128092   4.431   6.155   6.115
 9383TIP3    H228093   4.402   6.058   6.228
 9384TIP3   OH228094   3.454   0.374   1.622
 9384TIP3    H128095   3.494   0.297   1.582
 9384TIP3    H228096   3.369   0.382   1.579
 9385TIP3   OH228097   1.411   7.596   1.211
 9385TIP3    H128098   1.440   7.602   1.120
 9385TIP3    H228099   1.325   7.554   1.205
 9386TIP3   OH228100   3.739   5.925   0.583
 9386TIP3    H128101   3.790   6.005   0.576
 9386TIP3    H228102   3.804   5.855   0.593
 9387TIP3   OH228103   4.829   5.085   5.222
 9387TIP3    H128104   4.905   5.095   5.164
 9387TIP3    H228105   4.754   5.080   5.163
 9388TIP3   OH228106   3.053   5.256   0.240
 9388TIP3    H128107   3.121   5.285   0.302
 9388TIP3    H228108   2.971   5.267   0.288
 9389TIP3   OH228109   1.123   2.199   5.487
 9389TIP3    H128110   1.197   2.231   5.538
 9389TIP3    H228111   1.139   2.229   5.398
 9390TIP3   OH228112   4.758   0.557   0.196
 9390TIP3    H128113   4.793   0.632   0.244
 9390TIP3    H228114   4.681   0.531   0.245
 9391TIP3   OH228115   2.818   3.675   0.390
 9391TIP3    H128116   2.787   3.671   0.300
 9391TIP3    H228117   2.754   3.626   0.441
 9392TIP3   OH228118   6.660   1.340   4.665
 9392TIP3    H128119   6.673   1.282   4.590
 9392TIP3    H228120   6.588   1.300   4.714
 9393TIP3   OH228121   5.069   1.974   2.228
 9393TIP3    H128122   5.109   2.029   2.296
 9393TIP3    H228123   5.046   1.893   2.274
 9394TIP3   OH228124   6.703   6.081   4.753
 9394TIP3    H128125   6.786   6.124   4.732
 9394TIP3    H228126   6.652   6.147   4.799
 9395TIP3   OH228127   1.338   2.647   1.833
 9395TIP3    H128128   1.377   2.577   1.884
 9395TIP3    H228129   1.396   2.722   1.846
 9396TIP3   OH228130   4.271   0.502   0.271
 9396TIP3    H128131   4.212   0.549   0.330
 9396TIP3    H228132   4.219   0.486   0.192
 9397TIP3   OH228133   8.029   4.915   6.553
 9397TIP3    H128134   8.124   4.911   6.561
 9397TIP3    H228135   7.997   4.915   6.643
 9398TIP3   OH228136   0.244   4.834   3.919
 9398TIP3    H128137   0.150   4.831   3.937
 9398TIP3    H228138   0.274   4.744   3.933
 9399TIP3   OH228139   7.237   7.779   2.069
 9399TIP3    H128140   7.190   7.706   2.028
 9399TIP3    H228141   7.270   7.744   2.151
 9400TIP3   OH228142   2.436   7.792   2.954
 9400TIP3    H128143   2.369   7.755   3.011
 9400TIP3    H228144   2.476   7.862   3.006
 9401TIP3   OH228145   6.458   0.564   6.076
 9401TIP3    H128146   6.397   0.502   6.117
 9401TIP3    H228147   6.490   0.519   5.998
 9402TIP3   OH228148   0.403   4.044   1.222
 9402TIP3    H128149   0.373   3.954   1.212
 9402TIP3    H228150   0.327   4.091   1.257
 9403TIP3   OH228151   3.865   0.875   4.476
 9403TIP3    H128152   3.869   0.843   4.387
 9403TIP3    H228153   3.842   0.798   4.529
 9404TIP3   OH228154   4.230   7.554   4.701
 9404TIP3    H128155   4.175   7.507   4.763
 9404TIP3    H228156   4.319   7.534   4.726
 9405TIP3   OH228157   3.676   0.489   3.019
 9405TIP3    H128158   3.708   0.578   3.008
 9405TIP3    H228159   3.642   0.487   3.109
 9406TIP3   OH228160   1.549   4.228   0.825
 9406TIP3    H128161   1.592   4.168   0.886
 9406TIP3    H228162   1.607   4.304   0.821
 9407TIP3   OH228163   7.776   6.420   1.069
 9407TIP3    H128164   7.774   6.500   1.017
 9407TIP3    H228165   7.815   6.355   1.011
 9408TIP3   OH228166   1.531   1.617   4.272
 9408TIP3    H128167   1.583   1.592   4.349
 9408TIP3    H228168   1.587   1.681   4.226
 9409TIP3   OH228169   0.655   3.973   6.569
 9409TIP3    H128170   0.561   3.984   6.584
 9409TIP3    H228171   0.665   3.882   6.541
 9410TIP3   OH228172   0.817   1.441   6.192
 9410TIP3    H128173   0.797   1.456   6.100
 9410TIP3    H228174   0.795   1.523   6.236
 9411TIP3   OH228175   4.081   2.022   2.941
 9411TIP3    H128176   4.010   2.036   2.879
 9411TIP3    H228177   4.157   1.999   2.886
 9412TIP3   OH228178   4.159   6.491   5.450
 9412TIP3    H128179   4.224   6.516   5.515
 9412TIP3    H228180   4.106   6.570   5.436
 9413TIP3   OH228181   3.858   7.082   0.491
 9413TIP3    H128182   3.902   7.162   0.519
 9413TIP3    H228183   3.823   7.102   0.404
 9414TIP3   OH228184   0.629   7.558   4.392
 9414TIP3    H128185   0.657   7.643   4.426
 9414TIP3    H228186   0.559   7.531   4.450
 9415TIP3   OH228187   4.693   1.356   3.314
 9415TIP3    H128188   4.644   1.437   3.331
 9415TIP3    H228189   4.670   1.299   3.387
 9416TIP3   OH228190   2.288   4.876   0.774
 9416TIP3    H128191   2.310   4.931   0.850
 9416TIP3    H228192   2.291   4.787   0.808
 9417TIP3   OH228193   3.029   7.204   5.001
 9417TIP3    H128194   3.082   7.278   5.030
 9417TIP3    H228195   2.978   7.238   4.928
 9418TIP3   OH228196   2.059   7.320   2.403
 9418TIP3    H128197   2.142   7.368   2.410
 9418TIP3    H228198   2.007   7.371   2.341
 9419TIP3   OH228199   6.135   7.525   5.990
 9419TIP3    H128200   6.063   7.576   6.027
 9419TIP3    H228201   6.111   7.434   6.007
 9420TIP3   OH228202   8.100   2.730   2.298
 9420TIP3    H128203   8.114   2.812   2.346
 9420TIP3    H228204   8.121   2.752   2.207
 9421TIP3   OH228205   0.122   5.025   5.507
 9421TIP3    H128206   0.086   5.084   5.441
 9421TIP3    H228207   0.064   4.949   5.505
 9422TIP3   OH228208   7.563   1.728   3.926
 9422TIP3    H128209   7.475   1.721   3.962
 9422TIP3    H228210   7.571   1.655   3.866
 9423TIP3   OH228211   4.700   4.818   6.709
 9423TIP3    H128212   4.780   4.866   6.687
 9423TIP3    H228213   4.630   4.883   6.701
 9424TIP3   OH228214   4.224   2.256   4.008
 9424TIP3    H128215   4.163   2.228   4.076
 9424TIP3    H228216   4.195   2.344   3.985
 9425TIP3   OH228217   4.800   6.436   4.942
 9425TIP3    H128218   4.764   6.522   4.962
 9425TIP3    H228219   4.823   6.441   4.849
 9426TIP3   OH228220   6.920   4.116   3.125
 9426TIP3    H128221   6.899   4.193   3.072
 9426TIP3    H228222   6.987   4.071   3.075
 9427TIP3   OH228223   0.240   4.816   0.229
 9427TIP3    H128224   0.317   4.813   0.287
 9427TIP3    H228225   0.187   4.741   0.256
 9428TIP3   OH228226   5.853   2.026   0.243
 9428TIP3    H128227   5.802   2.080   0.184
 9428TIP3    H228228   5.929   1.998   0.191
 9429TIP3   OH228229   5.650   5.638   0.130
 9429TIP3    H128230   5.665   5.577   0.059
 9429TIP3    H228231   5.722   5.701   0.123
 9430TIP3   OH228232   0.270   5.793   5.148
 9430TIP3    H128233   0.265   5.764   5.056
 9430TIP3    H228234   0.295   5.714   5.196
 9431TIP3   OH228235   7.182   0.738   0.650
 9431TIP3    H128236   7.271   0.758   0.622
 9431TIP3    H228237   7.133   0.723   0.569
 9432TIP3   OH228238   2.907   2.641   5.649
 9432TIP3    H128239   2.958   2.689   5.584
 9432TIP3    H228240   2.967   2.627   5.721
 9433TIP3   OH228241   2.531   2.441   2.901
 9433TIP3    H128242   2.619   2.457   2.868
 9433TIP3    H228243   2.480   2.419   2.823
 9434TIP3   OH228244   4.939   1.251   2.073
 9434TIP3    H128245   4.921   1.271   2.165
 9434TIP3    H228246   4.854   1.233   2.035
 9435TIP3   OH228247   2.223   6.174   1.250
 9435TIP3    H128248   2.199   6.095   1.299
 9435TIP3    H228249   2.301   6.148   1.200
 9436TIP3   OH228250   4.712   6.226   3.139
 9436TIP3    H128251   4.636   6.282   3.151
 9436TIP3    H228252   4.730   6.230   3.045
 9437TIP3   OH228253   4.708   2.100   6.626
 9437TIP3    H128254   4.710   2.189   6.590
 9437TIP3    H228255   4.778   2.054   6.581
 9438TIP3   OH228256   4.967   3.951   5.447
 9438TIP3    H128257   4.905   4.017   5.475
 9438TIP3    H228258   4.969   3.888   5.519
 9439TIP3   OH228259   6.361   6.629   1.861
 9439TIP3    H128260   6.415   6.572   1.806
 9439TIP3    H228261   6.397   6.620   1.949
 9440TIP3   OH228262   1.032   4.164   2.552
 9440TIP3    H128263   0.944   4.184   2.583
 9440TIP3    H228264   1.066   4.248   2.519
 9441TIP3   OH228265   6.302   0.770   0.724
 9441TIP3    H128266   6.328   0.799   0.811
 9441TIP3    H228267   6.268   0.681   0.737
 9442TIP3   OH228268   6.270   4.243   0.091
 9442TIP3    H128269   6.352   4.289   0.107
 9442TIP3    H228270   6.275   4.213   0.000
 9443TIP3   OH228271   5.571   1.582   1.517
 9443TIP3    H128272   5.573   1.624   1.431
 9443TIP3    H228273   5.602   1.493   1.501
 9444TIP3   OH228274   4.781   0.222   2.969
 9444TIP3    H128275   4.709   0.226   2.906
 9444TIP3    H228276   4.858   0.200   2.917
 9445TIP3   OH228277   2.915   5.827   0.780
 9445TIP3    H128278   2.978   5.875   0.727
 9445TIP3    H228279   2.944   5.841   0.870
 9446TIP3   OH228280   5.113   3.670   5.928
 9446TIP3    H128281   5.179   3.721   5.880
 9446TIP3    H228282   5.096   3.594   5.872
 9447TIP3   OH228283   3.781   2.858   6.609
 9447TIP3    H128284   3.795   2.832   6.518
 9447TIP3    H228285   3.858   2.911   6.631
 9448TIP3   OH228286   0.671   0.712   4.340
 9448TIP3    H128287   0.728   0.665   4.278
 9448TIP3    H228288   0.661   0.652   4.414
 9449TIP3   OH228289   6.941   1.086   3.090
 9449TIP3    H128290   7.007   1.047   3.033
 9449TIP3    H228291   6.906   1.160   3.040
 9450TIP3   OH228292   0.683   3.404   0.657
 9450TIP3    H128293   0.752   3.359   0.608
 9450TIP3    H228294   0.604   3.353   0.639
 9451TIP3   OH228295   4.188   2.342   5.643
 9451TIP3    H128296   4.165   2.281   5.574
 9451TIP3    H228297   4.109   2.394   5.657
 9452TIP3   OH228298   0.696   7.151   0.638
 9452TIP3    H128299   0.616   7.166   0.689
 9452TIP3    H228300   0.691   7.060   0.610
 9453TIP3   OH228301   2.849   7.331   4.822
 9453TIP3    H128302   2.760   7.365   4.827
 9453TIP3    H228303   2.902   7.404   4.790
 9454TIP3   OH228304   2.827   6.411   4.905
 9454TIP3    H128305   2.909   6.434   4.859
 9454TIP3    H228306   2.819   6.477   4.974
 9455TIP3   OH228307   6.006   0.592   5.574
 9455TIP3    H128308   5.925   0.564   5.532
 9455TIP3    H228309   5.979   0.656   5.639
 9456TIP3   OH228310   7.374   0.014   2.672
 9456TIP3    H128311   7.300  -0.001   2.730
 9456TIP3    H228312   7.371  -0.058   2.609
 9457TIP3   OH228313   7.075   2.356   5.558
 9457TIP3    H128314   7.157   2.403   5.574
 9457TIP3    H228315   7.097   2.264   5.575
 9458TIP3   OH228316   1.582   3.397   2.352
 9458TIP3    H128317   1.562   3.338   2.425
 9458TIP3    H228318   1.507   3.390   2.294
 9459TIP3   OH228319   0.977   7.532   3.690
 9459TIP3    H128320   0.993   7.610   3.638
 9459TIP3    H228321   1.045   7.470   3.662
 9460TIP3   OH228322   4.622   3.783   2.259
 9460TIP3    H128323   4.601   3.873   2.284
 9460TIP3    H228324   4.628   3.785   2.163
 9461TIP3   OH228325   2.142   6.052   0.855
 9461TIP3    H128326   2.116   6.135   0.897
 9461TIP3    H228327   2.190   6.005   0.924
 9462TIP3   OH228328   1.902   2.806   0.500
 9462TIP3    H128329   1.817   2.843   0.524
 9462TIP3    H228330   1.880   2.736   0.438
 9463TIP3   OH228331   7.670   4.102   1.137
 9463TIP3    H128332   7.652   4.008   1.142
 9463TIP3    H228333   7.723   4.121   1.214
 9464TIP3   OH228334   6.505   3.971   0.806
 9464TIP3    H128335   6.437   3.904   0.792
 9464TIP3    H228336   6.457   4.051   0.825
 9465TIP3   OH228337   0.717   0.432   2.493
 9465TIP3    H128338   0.797   0.461   2.449
 9465TIP3    H228339   0.748   0.372   2.561
 9466TIP3   OH228340   4.728   3.174   6.567
 9466TIP3    H128341   4.648   3.121   6.568
 9466TIP3    H228342   4.742   3.194   6.475
 9467TIP3   OH228343   2.358   5.434   5.660
 9467TIP3    H128344   2.335   5.517   5.703
 9467TIP3    H228345   2.389   5.378   5.730
 9468TIP3   OH228346   1.839   6.472   4.050
 9468TIP3    H128347   1.900   6.452   4.121
 9468TIP3    H228348   1.788   6.546   4.082
 9469TIP3   OH228349   0.115   6.875   4.824
 9469TIP3    H128350   0.122   6.969   4.808
 9469TIP3    H228351   0.078   6.840   4.743
 9470TIP3   OH228352   3.491   2.731   0.289
 9470TIP3    H128353   3.579   2.700   0.266
 9470TIP3    H228354   3.504   2.821   0.319
 9471TIP3   OH228355   4.372   0.920   2.883
 9471TIP3    H128356   4.416   0.999   2.850
 9471TIP3    H228357   4.323   0.887   2.808
 9472TIP3   OH228358   1.580   7.036   4.692
 9472TIP3    H128359   1.534   7.076   4.619
 9472TIP3    H228360   1.557   7.089   4.768
 9473TIP3   OH228361   3.931   3.095   3.088
 9473TIP3    H128362   3.893   3.084   3.176
 9473TIP3    H228363   4.022   3.120   3.104
 9474TIP3   OH228364   8.204   1.853   4.129
 9474TIP3    H128365   8.283   1.804   4.154
 9474TIP3    H228366   8.232   1.905   4.053
 9475TIP3   OH228367   0.101   5.309   5.883
 9475TIP3    H128368   0.063   5.343   5.964
 9475TIP3    H228369   0.173   5.253   5.912
 9476TIP3   OH228370   1.921   3.732   0.377
 9476TIP3    H128371   1.943   3.668   0.445
 9476TIP3    H228372   1.826   3.741   0.383
 9477TIP3   OH228373   4.657   2.366   3.849
 9477TIP3    H128374   4.689   2.453   3.872
 9477TIP3    H228375   4.585   2.382   3.788
 9478TIP3   OH228376   3.547   6.112   6.721
 9478TIP3    H128377   3.641   6.093   6.723
 9478TIP3    H228378   3.518   6.075   6.637
 9479TIP3   OH228379   4.446   4.856   4.958
 9479TIP3    H128380   4.379   4.924   4.946
 9479TIP3    H228381   4.398   4.783   4.997
 9480TIP3   OH228382   1.684   5.785   4.183
 9480TIP3    H128383   1.593   5.763   4.163
 9480TIP3    H228384   1.732   5.762   4.103
 9481TIP3   OH228385   1.545   3.616   6.362
 9481TIP3    H128386   1.629   3.571   6.360
 9481TIP3    H228387   1.496   3.577   6.290
 9482TIP3   OH228388   6.747   0.425   2.147
 9482TIP3    H128389   6.809   0.364   2.107
 9482TIP3    H228390   6.680   0.438   2.079
 9483TIP3   OH228391   4.638   3.022   5.270
 9483TIP3    H128392   4.542   3.022   5.264
 9483TIP3    H228393   4.666   3.083   5.202
 9484TIP3   OH228394   3.625   5.192   6.047
 9484TIP3    H128395   3.605   5.155   5.961
 9484TIP3    H228396   3.615   5.119   6.107
 9485TIP3   OH228397   0.195   2.933   5.431
 9485TIP3    H128398   0.141   3.007   5.404
 9485TIP3    H228399   0.142   2.856   5.414
 9486TIP3   OH228400   5.773   0.605   3.226
 9486TIP3    H128401   5.748   0.697   3.223
 9486TIP3    H228402   5.691   0.558   3.240
 9487TIP3   OH228403   6.507   6.446   1.723
 9487TIP3    H128404   6.591   6.493   1.721
 9487TIP3    H228405   6.507   6.395   1.643
 9488TIP3   OH228406   6.485   5.843   2.074
 9488TIP3    H128407   6.408   5.873   2.122
 9488TIP3    H228408   6.455   5.766   2.026
 9489TIP3   OH228409   4.294   5.138   0.808
 9489TIP3    H128410   4.382   5.113   0.837
 9489TIP3    H228411   4.242   5.139   0.889
 9490TIP3   OH228412   7.908   4.084   5.608
 9490TIP3    H128413   7.849   4.117   5.541
 9490TIP3    H228414   7.994   4.080   5.564
 9491TIP3   OH228415   0.449   5.262   4.582
 9491TIP3    H128416   0.452   5.206   4.659
 9491TIP3    H228417   0.525   5.319   4.590
 9492TIP3   OH228418   4.777   6.875   4.886
 9492TIP3    H128419   4.833   6.836   4.819
 9492TIP3    H228420   4.728   6.801   4.922
 9493TIP3   OH228421   6.844   0.792   4.280
 9493TIP3    H128422   6.763   0.840   4.262
 9493TIP3    H228423   6.830   0.754   4.367
 9494TIP3   OH228424   4.006   5.103   0.361
 9494TIP3    H128425   4.056   5.060   0.430
 9494TIP3    H228426   3.924   5.054   0.356
 9495TIP3   OH228427   6.217   0.181   1.896
 9495TIP3    H128428   6.156   0.128   1.844
 9495TIP3    H228429   6.168   0.261   1.915
 9496TIP3   OH228430   2.952   2.883   5.070
 9496TIP3    H128431   2.892   2.959   5.074
 9496TIP3    H228432   2.944   2.843   5.157
 9497TIP3   OH228433   3.964   7.791   0.348
 9497TIP3    H128434   4.025   7.841   0.294
 9497TIP3    H228435   4.017   7.722   0.388
 9498TIP3   OH228436   2.063   0.509   6.730
 9498TIP3    H128437   2.075   0.424   6.773
 9498TIP3    H228438   1.974   0.506   6.696
 9499TIP3   OH228439   5.240   4.459   0.905
 9499TIP3    H128440   5.153   4.470   0.866
 9499TIP3    H228441   5.257   4.542   0.949
 9500TIP3   OH228442   7.553   3.739   4.490
 9500TIP3    H128443   7.631   3.783   4.458
 9500TIP3    H228444   7.566   3.731   4.585
 9501TIP3   OH228445   1.658   7.813   4.194
 9501TIP3    H128446   1.712   7.791   4.270
 9501TIP3    H228447   1.675   7.742   4.132
 9502TIP3   OH228448   7.169   6.670   4.253
 9502TIP3    H128449   7.091   6.660   4.198
 9502TIP3    H228450   7.233   6.610   4.216
 9503TIP3   OH228451   7.735   2.333   2.760
 9503TIP3    H128452   7.793   2.258   2.747
 9503TIP3    H228453   7.769   2.400   2.700
 9504TIP3   OH228454   5.505   2.075   4.515
 9504TIP3    H128455   5.531   2.122   4.595
 9504TIP3    H228456   5.587   2.040   4.480
 9505TIP3   OH228457   2.415   0.941   4.318
 9505TIP3    H128458   2.344   0.955   4.255
 9505TIP3    H228459   2.392   0.997   4.392
 9506TIP3   OH228460   0.782   0.323   3.515
 9506TIP3    H128461   0.700   0.371   3.514
 9506TIP3    H228462   0.849   0.391   3.524
 9507TIP3   OH228463   5.403   3.340   1.079
 9507TIP3    H128464   5.478   3.380   1.122
 9507TIP3    H228465   5.440   3.294   1.004
 9508TIP3   OH228466   4.027   6.072   0.281
 9508TIP3    H128467   4.022   6.137   0.210
 9508TIP3    H228468   4.117   6.078   0.313
 9509TIP3   OH228469   0.375   6.900   2.681
 9509TIP3    H128470   0.399   6.971   2.741
 9509TIP3    H228471   0.440   6.905   2.611
 9510TIP3   OH228472   7.263   2.328   1.380
 9510TIP3    H128473   7.215   2.396   1.426
 9510TIP3    H228474   7.355   2.349   1.396
 9511TIP3   OH228475   1.313   0.314   5.852
 9511TIP3    H128476   1.401   0.334   5.818
 9511TIP3    H228477   1.325   0.311   5.947
 9512TIP3   OH228478   5.614   2.270   5.326
 9512TIP3    H128479   5.558   2.192   5.317
 9512TIP3    H228480   5.635   2.294   5.236
 9513TIP3   OH228481   2.614   6.201   2.917
 9513TIP3    H128482   2.643   6.228   3.004
 9513TIP3    H228483   2.602   6.107   2.923
 9514TIP3   OH228484   4.239   7.141   6.360
 9514TIP3    H128485   4.190   7.061   6.340
 9514TIP3    H228486   4.325   7.111   6.389
 9515TIP3   OH228487   3.959   4.824   6.094
 9515TIP3    H128488   3.901   4.891   6.130
 9515TIP3    H228489   3.909   4.785   6.023
 9516TIP3   OH228490   1.609   6.030   0.161
 9516TIP3    H128491   1.652   6.033   0.075
 9516TIP3    H228492   1.584   5.938   0.172
 9517TIP3   OH228493   1.229   3.601   0.076
 9517TIP3    H128494   1.166   3.529   0.076
 9517TIP3    H228495   1.192   3.666   0.017
 9518TIP3   OH228496   8.038   7.038   3.897
 9518TIP3    H128497   8.125   7.064   3.870
 9518TIP3    H228498   7.980   7.072   3.829
 9519TIP3   OH228499   7.989   1.545   1.734
 9519TIP3    H128500   8.076   1.583   1.749
 9519TIP3    H228501   7.929   1.610   1.772
 9520TIP3   OH228502   1.883   4.388   4.949
 9520TIP3    H128503   1.821   4.416   5.016
 9520TIP3    H228504   1.841   4.314   4.906
 9521TIP3   OH228505   5.795   7.149   3.549
 9521TIP3    H128506   5.755   7.136   3.634
 9521TIP3    H228507   5.872   7.204   3.566
 9522TIP3   OH228508   5.159   7.604   1.355
 9522TIP3    H128509   5.199   7.678   1.309
 9522TIP3    H228510   5.069   7.634   1.373
 9523TIP3   OH228511   0.806   2.297   6.096
 9523TIP3    H128512   0.881   2.237   6.090
 9523TIP3    H228513   0.845   2.384   6.105
 9524TIP3   OH228514   4.180   2.889   4.402
 9524TIP3    H128515   4.238   2.878   4.326
 9524TIP3    H228516   4.234   2.936   4.465
 9525TIP3   OH228517   0.409   6.422   5.041
 9525TIP3    H128518   0.427   6.334   5.073
 9525TIP3    H228519   0.489   6.472   5.059
 9526TIP3   OH228520   4.239   5.786   4.258
 9526TIP3    H128521   4.246   5.749   4.346
 9526TIP3    H228522   4.217   5.712   4.202
 9527TIP3   OH228523   4.667   7.753   0.702
 9527TIP3    H128524   4.586   7.709   0.728
 9527TIP3    H228525   4.667   7.835   0.751
 9528TIP3   OH228526   5.542   6.561   1.432
 9528TIP3    H128527   5.521   6.629   1.369
 9528TIP3    H228528   5.577   6.608   1.508
 9529TIP3   OH228529   5.080   5.464   2.460
 9529TIP3    H128530   5.103   5.384   2.413
 9529TIP3    H228531   5.005   5.499   2.413
 9530TIP3   OH228532   1.081   3.241   4.882
 9530TIP3    H128533   1.161   3.285   4.912
 9530TIP3    H228534   1.013   3.271   4.943
 9531TIP3   OH228535   8.103   6.922   2.009
 9531TIP3    H128536   8.117   7.010   1.973
 9531TIP3    H228537   8.123   6.863   1.937
 9532TIP3   OH228538   0.570   5.900   6.250
 9532TIP3    H128539   0.608   5.956   6.182
 9532TIP3    H228540   0.640   5.839   6.273
 9533TIP3   OH228541   0.920   3.391   2.271
 9533TIP3    H128542   0.990   3.408   2.334
 9533TIP3    H228543   0.966   3.372   2.189
 9534TIP3   OH228544   3.127   4.819   6.080
 9534TIP3    H128545   3.039   4.785   6.093
 9534TIP3    H228546   3.120   4.876   6.003
 9535TIP3   OH228547   5.139   7.297   2.627
 9535TIP3    H128548   5.172   7.371   2.678
 9535TIP3    H228549   5.066   7.262   2.678
 9536TIP3   OH228550   6.171   6.506   0.689
 9536TIP3    H128551   6.205   6.560   0.617
 9536TIP3    H228552   6.115   6.441   0.646
 9537TIP3   OH228553   3.697   2.084   4.720
 9537TIP3    H128554   3.643   2.042   4.787
 9537TIP3    H228555   3.653   2.065   4.638
 9538TIP3   OH228556   5.478   0.527   0.124
 9538TIP3    H128557   5.462   0.474   0.202
 9538TIP3    H228558   5.438   0.478   0.053
 9539TIP3   OH228559   0.539   5.296   2.799
 9539TIP3    H128560   0.564   5.249   2.878
 9539TIP3    H228561   0.608   5.361   2.787
 9540TIP3   OH228562   2.265   4.471   3.387
 9540TIP3    H128563   2.234   4.395   3.436
 9540TIP3    H228564   2.244   4.546   3.442
 9541TIP3   OH228565   5.464   0.492   1.427
 9541TIP3    H128566   5.477   0.400   1.406
 9541TIP3    H228567   5.388   0.517   1.375
 9542TIP3   OH228568   5.745   1.976   1.203
 9542TIP3    H128569   5.733   1.895   1.153
 9542TIP3    H228570   5.675   2.034   1.172
 9543TIP3   OH228571   1.887   3.499   6.731
 9543TIP3    H128572   1.897   3.405   6.715
 9543TIP3    H228573   1.968   3.524   6.776
 9544TIP3   OH228574   3.876   0.009   6.181
 9544TIP3    H128575   3.841   0.096   6.200
 9544TIP3    H228576   3.965   0.011   6.214
 9545TIP3   OH228577   7.481   5.369   6.448
 9545TIP3    H128578   7.440   5.394   6.365
 9545TIP3    H228579   7.410   5.371   6.511
 9546TIP3   OH228580   7.141   3.428   4.924
 9546TIP3    H128581   7.210   3.378   4.880
 9546TIP3    H228582   7.130   3.506   4.870
 9547TIP3   OH228583   3.202   3.098   0.334
 9547TIP3    H128584   3.248   3.179   0.356
 9547TIP3    H228585   3.175   3.110   0.243
 9548TIP3   OH228586   5.793   7.575   3.108
 9548TIP3    H128587   5.727   7.611   3.167
 9548TIP3    H228588   5.820   7.493   3.148
 9549TIP3   OH228589   4.446   2.563   4.170
 9549TIP3    H128590   4.360   2.602   4.155
 9549TIP3    H228591   4.427   2.480   4.214
 9550TIP3   OH228592   6.608   4.505   1.099
 9550TIP3    H128593   6.691   4.458   1.106
 9550TIP3    H228594   6.633   4.596   1.086
 9551TIP3   OH228595   3.815   4.895   2.930
 9551TIP3    H128596   3.774   4.979   2.910
 9551TIP3    H228597   3.741   4.833   2.934
 9552TIP3   OH228598   6.123   6.012   4.559
 9552TIP3    H128599   6.152   6.026   4.469
 9552TIP3    H228600   6.050   5.950   4.551
 9553TIP3   OH228601   4.342   6.021   2.727
 9553TIP3    H128602   4.380   5.954   2.784
 9553TIP3    H228603   4.284   6.071   2.783
 9554TIP3   OH228604   6.058   5.692   5.432
 9554TIP3    H128605   5.967   5.669   5.409
 9554TIP3    H228606   6.110   5.654   5.362
 9555TIP3   OH228607   1.833   5.277   5.760
 9555TIP3    H128608   1.906   5.268   5.821
 9555TIP3    H228609   1.768   5.213   5.790
 9556TIP3   OH228610   2.263   7.481   1.842
 9556TIP3    H128611   2.236   7.573   1.847
 9556TIP3    H228612   2.293   7.460   1.931
 9557TIP3   OH228613   1.129   4.400   5.812
 9557TIP3    H128614   1.137   4.433   5.902
 9557TIP3    H228615   1.054   4.340   5.815
 9558TIP3   OH228616   5.274   0.060   3.193
 9558TIP3    H128617   5.236   0.070   3.280
 9558TIP3    H228618   5.310  -0.029   3.194
 9559TIP3   OH228619   3.422   1.643   5.313
 9559TIP3    H128620   3.384   1.559   5.337
 9559TIP3    H228621   3.347   1.697   5.289
 9560TIP3   OH228622   4.704   0.891   2.114
 9560TIP3    H128623   4.798   0.895   2.096
 9560TIP3    H228624   4.679   0.982   2.131
 9561TIP3   OH228625   0.148   4.993   0.705
 9561TIP3    H128626   0.164   5.036   0.789
 9561TIP3    H228627   0.073   5.040   0.669
 9562TIP3   OH228628   0.606   2.473   0.265
 9562TIP3    H128629   0.683   2.420   0.242
 9562TIP3    H228630   0.534   2.409   0.268
 9563TIP3   OH228631   6.976   1.575   1.051
 9563TIP3    H128632   6.927   1.598   1.130
 9563TIP3    H228633   6.966   1.481   1.043
 9564TIP3   OH228634   6.003   5.385   4.391
 9564TIP3    H128635   6.027   5.468   4.350
 9564TIP3    H228636   5.978   5.408   4.480
 9565TIP3   OH228637   4.393   4.965   1.857
 9565TIP3    H128638   4.468   5.018   1.886
 9565TIP3    H228639   4.416   4.938   1.768
 9566TIP3   OH228640   4.651   6.846   5.820
 9566TIP3    H128641   4.649   6.932   5.779
 9566TIP3    H228642   4.633   6.864   5.913
 9567TIP3   OH228643   1.680   7.296   3.262
 9567TIP3    H128644   1.745   7.275   3.195
 9567TIP3    H228645   1.704   7.384   3.291
 9568TIP3   OH228646   2.158   7.092   2.190
 9568TIP3    H128647   2.169   7.147   2.268
 9568TIP3    H228648   2.245   7.056   2.175
 9569TIP3   OH228649   5.708   3.913   6.040
 9569TIP3    H128650   5.617   3.887   6.026
 9569TIP3    H228651   5.759   3.851   5.989
 9570TIP3   OH228652   0.675   4.966   4.275
 9570TIP3    H128653   0.684   4.983   4.182
 9570TIP3    H228654   0.673   5.053   4.316
 9571TIP3   OH228655   3.451   0.660   5.764
 9571TIP3    H128656   3.502   0.727   5.810
 9571TIP3    H228657   3.365   0.662   5.805
 9572TIP3   OH228658   2.773   4.212   0.937
 9572TIP3    H128659   2.821   4.147   0.887
 9572TIP3    H228660   2.683   4.206   0.905
 9573TIP3   OH228661   3.179   7.336   0.085
 9573TIP3    H128662   3.162   7.250   0.123
 9573TIP3    H228663   3.211   7.317  -0.004
 9574TIP3   OH228664   5.050  -0.025   4.493
 9574TIP3    H128665   4.973  -0.020   4.549
 9574TIP3    H228666   5.123  -0.039   4.553
 9575TIP3   OH228667   0.809   1.103   5.225
 9575TIP3    H128668   0.853   1.163   5.285
 9575TIP3    H228669   0.719   1.099   5.258
 9576TIP3   OH228670   6.817   0.526   6.338
 9576TIP3    H128671   6.904   0.541   6.375
 9576TIP3    H228672   6.761   0.509   6.414
 9577TIP3   OH228673   5.954   6.422   5.101
 9577TIP3    H128674   6.043   6.435   5.135
 9577TIP3    H228675   5.957   6.336   5.059
 9578TIP3   OH228676   5.395   2.284   1.378
 9578TIP3    H128677   5.404   2.342   1.303
 9578TIP3    H228678   5.301   2.280   1.394
 9579TIP3   OH228679   6.045   5.276   1.810
 9579TIP3    H128680   6.060   5.223   1.732
 9579TIP3    H228681   6.133   5.288   1.848
 9580TIP3   OH228682   1.348   3.227   6.641
 9580TIP3    H128683   1.260   3.210   6.606
 9580TIP3    H228684   1.361   3.321   6.629
 9581TIP3   OH228685   2.630   4.803   0.902
 9581TIP3    H128686   2.626   4.729   0.962
 9581TIP3    H228687   2.566   4.866   0.938
 9582TIP3   OH228688   4.561   3.408   6.714
 9582TIP3    H128689   4.551   3.494   6.673
 9582TIP3    H228690   4.585   3.349   6.643
 9583TIP3   OH228691   3.298   5.647   2.644
 9583TIP3    H128692   3.328   5.737   2.627
 9583TIP3    H228693   3.363   5.612   2.705
 9584TIP3   OH228694   7.297   5.611   2.356
 9584TIP3    H128695   7.309   5.524   2.319
 9584TIP3    H228696   7.385   5.646   2.366
 9585TIP3   OH228697   4.707   3.463   2.476
 9585TIP3    H128698   4.680   3.398   2.541
 9585TIP3    H228699   4.644   3.534   2.486
 9586TIP3   OH228700   0.933   2.643   3.569
 9586TIP3    H128701   0.994   2.716   3.576
 9586TIP3    H228702   0.899   2.647   3.480
 9587TIP3   OH228703   5.861   3.977   1.349
 9587TIP3    H128704   5.778   3.965   1.303
 9587TIP3    H228705   5.837   4.019   1.432
 9588TIP3   OH228706   1.317   1.496   4.530
 9588TIP3    H128707   1.245   1.437   4.553
 9588TIP3    H228708   1.314   1.502   4.435
 9589TIP3   OH228709   6.451   0.487   6.722
 9589TIP3    H128710   6.480   0.495   6.813
 9589TIP3    H228711   6.380   0.423   6.726
 9590TIP3   OH228712   8.003   3.339   2.548
 9590TIP3    H128713   7.961   3.416   2.510
 9590TIP3    H228714   8.093   3.342   2.516
 9591TIP3   OH228715   7.672   3.711   6.434
 9591TIP3    H128716   7.722   3.643   6.480
 9591TIP3    H228717   7.735   3.781   6.419
 9592TIP3   OH228718   5.332   1.491   2.117
 9592TIP3    H128719   5.288   1.411   2.086
 9592TIP3    H228720   5.324   1.553   2.045
 9593TIP3   OH228721   0.361   7.552   3.258
 9593TIP3    H128722   0.405   7.625   3.213
 9593TIP3    H228723   0.332   7.589   3.341
 9594TIP3   OH228724   7.920   2.626   1.349
 9594TIP3    H128725   7.868   2.551   1.378
 9594TIP3    H228726   7.961   2.597   1.267
 9595TIP3   OH228727   1.587   4.112   6.720
 9595TIP3    H128728   1.512   4.173   6.716
 9595TIP3    H228729   1.657   4.157   6.673
 9596TIP3   OH228730   1.660   2.557   3.568
 9596TIP3    H128731   1.704   2.561   3.483
 9596TIP3    H228732   1.608   2.638   3.572
 9597TIP3   OH228733   5.781   5.368   2.114
 9597TIP3    H128734   5.798   5.426   2.188
 9597TIP3    H228735   5.861   5.371   2.062
 9598TIP3   OH228736   5.163   1.401   5.419
 9598TIP3    H128737   5.191   1.476   5.472
 9598TIP3    H228738   5.209   1.327   5.456
 9599TIP3   OH228739   1.674   7.651   3.951
 9599TIP3    H128740   1.734   7.578   3.966
 9599TIP3    H228741   1.606   7.616   3.894
 9600TIP3   OH228742   3.345   1.994   6.537
 9600TIP3    H128743   3.434   1.990   6.570
 9600TIP3    H228744   3.304   2.066   6.585
 9601TIP3   OH228745   5.117   6.674   1.616
 9601TIP3    H128746   5.068   6.622   1.680
 9601TIP3    H228747   5.124   6.616   1.539
 9602TIP3   OH228748   7.890   5.078   5.026
 9602TIP3    H128749   7.882   5.151   4.964
 9602TIP3    H228750   7.810   5.028   5.015
 9603TIP3   OH228751   8.052   6.048   6.238
 9603TIP3    H128752   8.141   6.072   6.262
 9603TIP3    H228753   8.061   5.987   6.165
 9604TIP3   OH228754   4.268   7.232   3.641
 9604TIP3    H128755   4.241   7.279   3.562
 9604TIP3    H228756   4.227   7.146   3.634
 9605TIP3   OH228757   1.855   1.968   2.091
 9605TIP3    H128758   1.903   2.045   2.062
 9605TIP3    H228759   1.772   2.002   2.122
 9606TIP3   OH228760   2.192   2.804   6.406
 9606TIP3    H128761   2.181   2.765   6.493
 9606TIP3    H228762   2.242   2.884   6.422
 9607TIP3   OH228763   0.840   2.184   2.742
 9607TIP3    H128764   0.807   2.154   2.826
 9607TIP3    H228765   0.802   2.124   2.678
 9608TIP3   OH228766   6.050   4.464   5.941
 9608TIP3    H128767   6.090   4.395   5.888
 9608TIP3    H228768   5.976   4.494   5.888
 9609TIP3   OH228769   8.141   4.236   6.034
 9609TIP3    H128770   8.067   4.285   6.070
 9609TIP3    H228771   8.209   4.244   6.102
 9610TIP3   OH228772   3.033   5.240   5.140
 9610TIP3    H128773   2.945   5.245   5.176
 9610TIP3    H228774   3.021   5.205   5.051
 9611TIP3   OH228775   2.454   4.368   1.980
 9611TIP3    H128776   2.478   4.460   1.970
 9611TIP3    H228777   2.372   4.360   1.932
 9612TIP3   OH228778   3.315   4.007   6.603
 9612TIP3    H128779   3.398   3.973   6.637
 9612TIP3    H228780   3.323   4.102   6.610
 9613TIP3   OH228781   3.499   4.027   3.697
 9613TIP3    H128782   3.427   4.083   3.725
 9613TIP3    H228783   3.502   3.957   3.761
 9614TIP3   OH228784   5.466   5.847   4.478
 9614TIP3    H128785   5.406   5.831   4.405
 9614TIP3    H228786   5.497   5.759   4.502
 9615TIP3   OH228787   5.523   0.467   5.910
 9615TIP3    H128788   5.488   0.424   5.832
 9615TIP3    H228789   5.447   0.504   5.954
 9616TIP3   OH228790   3.383   1.263   1.211
 9616TIP3    H128791   3.367   1.275   1.305
 9616TIP3    H228792   3.452   1.326   1.191
 9617TIP3   OH228793   0.395   4.273   4.104
 9617TIP3    H128794   0.392   4.225   4.022
 9617TIP3    H228795   0.340   4.350   4.089
 9618TIP3   OH228796   6.901   4.719   0.681
 9618TIP3    H128797   6.903   4.798   0.735
 9618TIP3    H228798   6.993   4.696   0.667
 9619TIP3   OH228799   0.803   2.655   2.244
 9619TIP3    H128800   0.731   2.654   2.307
 9619TIP3    H228801   0.761   2.661   2.159
 9620TIP3   OH228802   5.281   4.383   1.955
 9620TIP3    H128803   5.276   4.478   1.967
 9620TIP3    H228804   5.195   4.351   1.982
 9621TIP3   OH228805   7.379   5.378   2.181
 9621TIP3    H128806   7.391   5.439   2.108
 9621TIP3    H228807   7.464   5.378   2.225
 9622TIP3   OH228808   0.142   3.183   0.979
 9622TIP3    H128809   0.216   3.152   1.032
 9622TIP3    H228810   0.089   3.234   1.040
 9623TIP3   OH228811   6.937   2.901   4.833
 9623TIP3    H128812   6.954   2.993   4.811
 9623TIP3    H228813   6.960   2.853   4.754
 9624TIP3   OH228814   1.599   2.761   3.001
 9624TIP3    H128815   1.672   2.764   3.063
 9624TIP3    H228816   1.625   2.693   2.938
 9625TIP3   OH228817   3.040   2.156   5.707
 9625TIP3    H128818   3.031   2.069   5.745
 9625TIP3    H228819   3.003   2.148   5.619
 9626TIP3   OH228820   6.239   3.857   2.526
 9626TIP3    H128821   6.144   3.860   2.514
 9626TIP3    H228822   6.263   3.949   2.539
 9627TIP3   OH228823   3.597   7.794   3.312
 9627TIP3    H128824   3.612   7.782   3.218
 9627TIP3    H228825   3.510   7.757   3.327
 9628TIP3   OH228826   1.491   1.224   4.056
 9628TIP3    H128827   1.488   1.318   4.041
 9628TIP3    H228828   1.477   1.214   4.150
 9629TIP3   OH228829   0.639   2.964   1.380
 9629TIP3    H128830   0.567   2.949   1.442
 9629TIP3    H228831   0.598   2.955   1.294
 9630TIP3   OH228832   7.442   6.657   6.601
 9630TIP3    H128833   7.415   6.567   6.616
 9630TIP3    H228834   7.497   6.653   6.522
 9631TIP3   OH228835   4.380   7.091   1.214
 9631TIP3    H128836   4.437   7.111   1.141
 9631TIP3    H228837   4.338   7.174   1.236
 9632TIP3   OH228838   1.972   2.830   2.873
 9632TIP3    H128839   2.067   2.838   2.876
 9632TIP3    H228840   1.940   2.896   2.934
 9633TIP3   OH228841   1.045   5.272   6.737
 9633TIP3    H128842   1.139   5.269   6.721
 9633TIP3    H228843   1.019   5.180   6.747
 9634TIP3   OH228844   6.074   6.854   1.324
 9634TIP3    H128845   5.986   6.831   1.354
 9634TIP3    H228846   6.080   6.817   1.236
 9635TIP3   OH228847   5.117   6.949   2.768
 9635TIP3    H128848   5.068   6.958   2.686
 9635TIP3    H228849   5.052   6.915   2.830
 9636TIP3   OH228850   0.701   6.165   0.827
 9636TIP3    H128851   0.767   6.120   0.774
 9636TIP3    H228852   0.701   6.116   0.910
 9637TIP3   OH228853   0.214   4.100   4.292
 9637TIP3    H128854   0.288   4.160   4.299
 9637TIP3    H228855   0.160   4.136   4.223
 9638TIP3   OH228856   2.185   1.171   6.264
 9638TIP3    H128857   2.097   1.142   6.238
 9638TIP3    H228858   2.175   1.264   6.284
 9639TIP3   OH228859   7.917   2.356   5.459
 9639TIP3    H128860   7.861   2.383   5.532
 9639TIP3    H228861   7.911   2.260   5.458
 9640TIP3   OH228862   2.819   4.088   3.604
 9640TIP3    H128863   2.895   4.097   3.545
 9640TIP3    H228864   2.744   4.091   3.545
 9641TIP3   OH228865   4.337   0.304   0.542
 9641TIP3    H128866   4.367   0.294   0.633
 9641TIP3    H228867   4.409   0.348   0.498
 9642TIP3   OH228868   5.778   7.313   2.066
 9642TIP3    H128869   5.701   7.360   2.035
 9642TIP3    H228870   5.808   7.363   2.142
 9643TIP3   OH228871   0.494   1.719   6.732
 9643TIP3    H128872   0.487   1.814   6.736
 9643TIP3    H228873   0.513   1.692   6.822
 9644TIP3   OH228874   0.026   3.987   4.483
 9644TIP3    H128875   0.062   4.046   4.418
 9644TIP3    H228876   0.094   3.920   4.495
 9645TIP3   OH228877   1.814   3.382   4.934
 9645TIP3    H128878   1.897   3.424   4.910
 9645TIP3    H228879   1.790   3.423   5.017
 9646TIP3   OH228880   5.998   7.807   4.048
 9646TIP3    H128881   6.093   7.815   4.038
 9646TIP3    H228882   5.971   7.886   4.094
 9647TIP3   OH228883   2.955   2.304   3.652
 9647TIP3    H128884   2.975   2.222   3.697
 9647TIP3    H228885   2.902   2.278   3.577
 9648TIP3   OH228886   1.711   2.519   4.813
 9648TIP3    H128887   1.727   2.425   4.821
 9648TIP3    H228888   1.623   2.531   4.848
 9649TIP3   OH228889   7.090   3.037   3.374
 9649TIP3    H128890   7.077   3.061   3.466
 9649TIP3    H228891   7.064   3.115   3.325
 9650TIP3   OH228892   2.493   2.482   6.171
 9650TIP3    H128893   2.538   2.531   6.103
 9650TIP3    H228894   2.534   2.395   6.169
 9651TIP3   OH228895   4.228   6.342   3.649
 9651TIP3    H128896   4.155   6.352   3.710
 9651TIP3    H228897   4.306   6.343   3.705
 9652TIP3   OH228898   2.918   5.905   1.866
 9652TIP3    H128899   2.922   5.894   1.961
 9652TIP3    H228900   2.845   5.965   1.852
 9653TIP3   OH228901   6.131   1.101   5.082
 9653TIP3    H128902   6.193   1.119   5.153
 9653TIP3    H228903   6.089   1.185   5.064
 9654TIP3   OH228904   2.742   2.276   2.068
 9654TIP3    H128905   2.767   2.293   2.158
 9654TIP3    H228906   2.647   2.266   2.070
 9655TIP3   OH228907   4.646   4.183   1.316
 9655TIP3    H128908   4.729   4.178   1.364
 9655TIP3    H228909   4.668   4.156   1.227
 9656TIP3   OH228910   1.994   3.985   0.264
 9656TIP3    H128911   1.948   3.919   0.213
 9656TIP3    H228912   2.041   3.936   0.331
 9657TIP3   OH228913   2.867   0.946   2.063
 9657TIP3    H128914   2.861   1.038   2.088
 9657TIP3    H228915   2.781   0.925   2.028
 9658TIP3   OH228916   5.370   6.473   1.211
 9658TIP3    H128917   5.423   6.416   1.156
 9658TIP3    H228918   5.424   6.551   1.226
 9659TIP3   OH228919   4.674   1.504   5.787
 9659TIP3    H128920   4.769   1.497   5.775
 9659TIP3    H228921   4.642   1.541   5.705
 9660TIP3   OH228922   6.265   1.862   3.300
 9660TIP3    H128923   6.341   1.826   3.254
 9660TIP3    H228924   6.246   1.798   3.369
 9661TIP3   OH228925   4.570   7.281   2.147
 9661TIP3    H128926   4.596   7.261   2.057
 9661TIP3    H228927   4.576   7.198   2.194
 9662TIP3   OH228928   1.503   5.192   1.228
 9662TIP3    H128929   1.571   5.153   1.283
 9662TIP3    H228930   1.458   5.255   1.285
 9663TIP3   OH228931   5.031   6.397   3.952
 9663TIP3    H128932   5.005   6.431   3.866
 9663TIP3    H228933   4.957   6.343   3.979
 9664TIP3   OH228934   4.260   5.186   1.418
 9664TIP3    H128935   4.261   5.095   1.386
 9664TIP3    H228936   4.325   5.231   1.364
 9665TIP3   OH228937   6.782   1.759   2.693
 9665TIP3    H128938   6.699   1.767   2.739
 9665TIP3    H228939   6.844   1.810   2.746
 9666TIP3   OH228940   4.512   6.295   5.584
 9666TIP3    H128941   4.493   6.248   5.502
 9666TIP3    H228942   4.581   6.357   5.560
 9667TIP3   OH228943   8.022   2.722   3.399
 9667TIP3    H128944   8.039   2.658   3.330
 9667TIP3    H228945   8.081   2.794   3.380
 9668TIP3   OH228946   6.156   5.073   3.224
 9668TIP3    H128947   6.072   5.027   3.234
 9668TIP3    H228948   6.136   5.164   3.245
 9669TIP3   OH228949   3.375   0.786   2.133
 9669TIP3    H128950   3.409   0.705   2.094
 9669TIP3    H228951   3.315   0.821   2.068
 9670TIP3   OH228952   1.109   7.581   3.250
 9670TIP3    H128953   1.162   7.652   3.286
 9670TIP3    H228954   1.142   7.502   3.293
 9671TIP3   OH228955   5.778   1.626   6.168
 9671TIP3    H128956   5.770   1.544   6.216
 9671TIP3    H228957   5.754   1.694   6.231
 9672TIP3   OH228958   3.026   4.590   4.452
 9672TIP3    H128959   2.983   4.562   4.372
 9672TIP3    H228960   3.098   4.528   4.464
 9673TIP3   OH228961   0.845   6.104   5.803
 9673TIP3    H128962   0.901   6.035   5.767
 9673TIP3    H228963   0.850   6.174   5.738
 9674TIP3   OH228964   3.296   7.496   3.870
 9674TIP3    H128965   3.273   7.420   3.923
 9674TIP3    H228966   3.280   7.571   3.928
 9675TIP3   OH228967   6.612   0.697   2.470
 9675TIP3    H128968   6.563   0.773   2.438
 9675TIP3    H228969   6.704   0.725   2.466
 9676TIP3   OH228970   7.785   5.191   6.664
 9676TIP3    H128971   7.752   5.281   6.667
 9676TIP3    H228972   7.874   5.197   6.698
 9677TIP3   OH228973   3.127   0.779   2.318
 9677TIP3    H128974   3.084   0.693   2.314
 9677TIP3    H228975   3.164   0.792   2.231
 9678TIP3   OH228976   2.210   5.013   1.740
 9678TIP3    H128977   2.229   5.039   1.650
 9678TIP3    H228978   2.280   4.952   1.763
 9679TIP3   OH228979   6.052   7.213   3.846
 9679TIP3    H128980   6.070   7.202   3.753
 9679TIP3    H228981   6.009   7.299   3.853
 9680TIP3   OH228982   7.978   1.434   2.642
 9680TIP3    H128983   8.029   1.411   2.564
 9680TIP3    H228984   8.044   1.462   2.706
 9681TIP3   OH228985   2.482   1.922   5.988
 9681TIP3    H128986   2.457   1.906   6.079
 9681TIP3    H228987   2.474   2.017   5.977
 9682TIP3   OH228988   4.703   3.706   3.628
 9682TIP3    H128989   4.707   3.762   3.705
 9682TIP3    H228990   4.790   3.713   3.588
 9683TIP3   OH228991   7.735   4.362   0.556
 9683TIP3    H128992   7.816   4.345   0.605
 9683TIP3    H228993   7.723   4.456   0.561
 9684TIP3   OH228994   7.408   6.484   2.348
 9684TIP3    H128995   7.375   6.409   2.298
 9684TIP3    H228996   7.383   6.465   2.439
 9685TIP3   OH228997   1.448   5.751   5.005
 9685TIP3    H128998   1.440   5.660   5.033
 9685TIP3    H228999   1.512   5.750   4.935
 9686TIP3   OH229000   2.414   3.108   5.753
 9686TIP3    H129001   2.343   3.063   5.799
 9686TIP3    H229002   2.405   3.080   5.662
 9687TIP3   OH229003   3.995   4.945   1.378
 9687TIP3    H129004   3.971   4.862   1.336
 9687TIP3    H229005   4.089   4.953   1.363
 9688TIP3   OH229006   8.016   0.414   4.000
 9688TIP3    H129007   7.997   0.341   4.059
 9688TIP3    H229008   7.993   0.382   3.913
 9689TIP3   OH229009   3.229   5.864   0.715
 9689TIP3    H129010   3.190   5.945   0.750
 9689TIP3    H229011   3.268   5.891   0.632
 9690TIP3   OH229012   0.946   4.581   2.561
 9690TIP3    H129013   0.871   4.636   2.539
 9690TIP3    H229014   0.963   4.600   2.654
 9691TIP3   OH229015   7.654   1.286   1.136
 9691TIP3    H129016   7.648   1.382   1.136
 9691TIP3    H229017   7.604   1.259   1.059
 9692TIP3   OH229018   7.620   5.042   3.254
 9692TIP3    H129019   7.561   5.081   3.319
 9692TIP3    H229020   7.673   5.116   3.223
 9693TIP3   OH229021   4.529   6.812   6.097
 9693TIP3    H129022   4.503   6.904   6.108
 9693TIP3    H229023   4.503   6.770   6.179
 9694TIP3   OH229024   2.303   2.277   3.279
 9694TIP3    H129025   2.371   2.244   3.220
 9694TIP3    H229026   2.323   2.370   3.289
 9695TIP3   OH229027   7.169   3.816   6.359
 9695TIP3    H129028   7.240   3.766   6.320
 9695TIP3    H229029   7.198   3.907   6.353
 9696TIP3   OH229030   1.722   1.772   2.944
 9696TIP3    H129031   1.697   1.680   2.941
 9696TIP3    H229032   1.806   1.773   2.991
 9697TIP3   OH229033   7.025   5.676   1.850
 9697TIP3    H129034   6.952   5.676   1.912
 9697TIP3    H229035   7.019   5.591   1.806
 9698TIP3   OH229036   8.269   4.127   0.550
 9698TIP3    H129037   8.355   4.126   0.593
 9698TIP3    H229038   8.244   4.220   0.549
 9699TIP3   OH229039   0.608   4.267   5.853
 9699TIP3    H129040   0.695   4.285   5.889
 9699TIP3    H229041   0.616   4.181   5.812
 9700TIP3   OH229042   8.078   1.296   1.955
 9700TIP3    H129043   8.147   1.232   1.971
 9700TIP3    H229044   8.049   1.278   1.865
 9701TIP3   OH229045   0.266   5.833   0.543
 9701TIP3    H129046   0.278   5.796   0.630
 9701TIP3    H229047   0.311   5.772   0.484
 9702TIP3   OH229048   0.146   7.218   1.677
 9702TIP3    H129049   0.168   7.297   1.629
 9702TIP3    H229050   0.051   7.224   1.689
 9703TIP3   OH229051   0.871   1.548   4.138
 9703TIP3    H129052   0.826   1.629   4.163
 9703TIP3    H229053   0.945   1.578   4.084
 9704TIP3   OH229054   0.873   1.026   2.596
 9704TIP3    H129055   0.842   1.030   2.506
 9704TIP3    H229056   0.963   1.059   2.592
 9705TIP3   OH229057   5.259   6.796   1.842
 9705TIP3    H129058   5.174   6.759   1.818
 9705TIP3    H229059   5.270   6.871   1.784
 9706TIP3   OH229060   4.129   3.052   2.321
 9706TIP3    H129061   4.054   2.996   2.345
 9706TIP3    H229062   4.112   3.076   2.230
 9707TIP3   OH229063   5.593   3.965   0.709
 9707TIP3    H129064   5.566   3.885   0.664
 9707TIP3    H229065   5.661   3.936   0.770
 9708TIP3   OH229066   7.455   2.438   6.158
 9708TIP3    H129067   7.534   2.430   6.211
 9708TIP3    H229068   7.485   2.472   6.074
 9709TIP3   OH229069   5.830   7.318   0.820
 9709TIP3    H129070   5.866   7.405   0.836
 9709TIP3    H229071   5.906   7.262   0.804
 9710TIP3   OH229072   2.988   7.772   3.750
 9710TIP3    H129073   2.984   7.860   3.786
 9710TIP3    H229074   2.915   7.768   3.688
 9711TIP3   OH229075   7.924   1.425   1.003
 9711TIP3    H129076   7.831   1.434   0.980
 9711TIP3    H229077   7.930   1.455   1.093
 9712TIP3   OH229078   7.308   1.967   3.642
 9712TIP3    H129079   7.366   1.972   3.718
 9712TIP3    H229080   7.265   2.052   3.639
 9713TIP3   OH229081   4.941   7.662   4.231
 9713TIP3    H129082   4.858   7.620   4.256
 9713TIP3    H229083   4.915   7.750   4.204
 9714TIP3   OH229084   0.115   7.527   5.531
 9714TIP3    H129085   0.184   7.537   5.465
 9714TIP3    H229086   0.066   7.451   5.503
 9715TIP3   OH229087   5.811   1.146   2.733
 9715TIP3    H129088   5.816   1.212   2.802
 9715TIP3    H229089   5.747   1.082   2.766
 9716TIP3   OH229090   6.310   3.991   1.561
 9716TIP3    H129091   6.382   3.935   1.587
 9716TIP3    H229092   6.351   4.076   1.542
 9717TIP3   OH229093   7.795   6.889   0.635
 9717TIP3    H129094   7.864   6.833   0.671
 9717TIP3    H229095   7.841   6.967   0.606
 9718TIP3   OH229096   3.363   0.830   5.243
 9718TIP3    H129097   3.272   0.860   5.253
 9718TIP3    H229098   3.374   0.765   5.312
 9719TIP3   OH229099   3.180   5.995   5.367
 9719TIP3    H129100   3.174   6.089   5.385
 9719TIP3    H229101   3.245   5.988   5.298
 9720TIP3   OH229102   0.951   2.472   1.608
 9720TIP3    H129103   1.035   2.463   1.562
 9720TIP3    H229104   0.915   2.555   1.578
 9721TIP3   OH229105   3.867   3.456   5.011
 9721TIP3    H129106   3.896   3.539   4.973
 9721TIP3    H229107   3.817   3.482   5.088
 9722TIP3   OH229108   4.109   0.444   3.387
 9722TIP3    H129109   4.055   0.442   3.308
 9722TIP3    H229110   4.085   0.364   3.434
 9723TIP3   OH229111   5.519   5.221   1.230
 9723TIP3    H129112   5.506   5.313   1.252
 9723TIP3    H229113   5.606   5.217   1.190
 9724TIP3   OH229114   7.525   1.675   0.071
 9724TIP3    H129115   7.503   1.768   0.072
 9724TIP3    H229116   7.583   1.662   0.146
 9725TIP3   OH229117   0.474   2.088   5.017
 9725TIP3    H129118   0.495   2.008   4.967
 9725TIP3    H229119   0.543   2.150   4.993
 9726TIP3   OH229120   1.913   1.100   2.881
 9726TIP3    H129121   1.961   1.024   2.912
 9726TIP3    H229122   1.967   1.175   2.906
 9727TIP3   OH229123   5.641   0.030   5.717
 9727TIP3    H129124   5.665   0.064   5.631
 9727TIP3    H229125   5.654   0.103   5.777
 9728TIP3   OH229126   1.225   3.313   0.482
 9728TIP3    H129127   1.314   3.347   0.493
 9728TIP3    H229128   1.203   3.276   0.567
 9729TIP3   OH229129   1.875   1.540   5.902
 9729TIP3    H129130   1.915   1.548   5.815
 9729TIP3    H229131   1.805   1.476   5.890
 9730TIP3   OH229132   6.560   6.102   6.300
 9730TIP3    H129133   6.520   6.189   6.292
 9730TIP3    H229134   6.518   6.050   6.232
 9731TIP3   OH229135   3.837   1.979   1.738
 9731TIP3    H129136   3.888   1.899   1.747
 9731TIP3    H229137   3.774   1.975   1.810
 9732TIP3   OH229138   0.682   4.012   4.654
 9732TIP3    H129139   0.651   3.922   4.664
 9732TIP3    H229140   0.608   4.066   4.683
 9733TIP3   OH229141   7.490   1.807   0.335
 9733TIP3    H129142   7.441   1.873   0.287
 9733TIP3    H229143   7.558   1.856   0.381
 9734TIP3   OH229144   4.615   5.218   4.129
 9734TIP3    H129145   4.698   5.264   4.118
 9734TIP3    H229146   4.591   5.232   4.221
 9735TIP3   OH229147   6.572   5.222   6.423
 9735TIP3    H129148   6.642   5.163   6.398
 9735TIP3    H229149   6.589   5.302   6.374
 9736TIP3   OH229150   4.070   4.114   0.574
 9736TIP3    H129151   4.135   4.048   0.597
 9736TIP3    H229152   4.045   4.093   0.484
 9737TIP3   OH229153   2.450   3.432   5.641
 9737TIP3    H129154   2.532   3.465   5.605
 9737TIP3    H229155   2.461   3.437   5.736
 9738TIP3   OH229156   2.386   4.794   5.734
 9738TIP3    H129157   2.355   4.768   5.821
 9738TIP3    H229158   2.388   4.712   5.684
 9739TIP3   OH229159   3.321   0.091   4.127
 9739TIP3    H129160   3.366   0.165   4.169
 9739TIP3    H229161   3.324   0.112   4.033
 9740TIP3   OH229162   1.874   2.052   1.616
 9740TIP3    H129163   1.965   2.083   1.620
 9740TIP3    H229164   1.874   1.987   1.545
 9741TIP3   OH229165   0.987   1.685   1.381
 9741TIP3    H129166   0.972   1.776   1.358
 9741TIP3    H229167   0.926   1.635   1.326
 9742TIP3   OH229168   5.700   3.213   2.966
 9742TIP3    H129169   5.641   3.233   3.039
 9742TIP3    H229170   5.711   3.118   2.970
 9743TIP3   OH229171   8.160   7.479   6.646
 9743TIP3    H129172   8.148   7.426   6.567
 9743TIP3    H229173   8.076   7.523   6.658
 9744TIP3   OH229174   2.905   4.621   3.839
 9744TIP3    H129175   3.000   4.620   3.851
 9744TIP3    H229176   2.883   4.530   3.818
 9745TIP3   OH229177   0.055   5.813   3.862
 9745TIP3    H129178   0.129   5.753   3.862
 9745TIP3    H229179   0.010   5.795   3.780
 9746TIP3   OH229180   1.102   4.945   5.387
 9746TIP3    H129181   1.033   4.987   5.439
 9746TIP3    H229182   1.060   4.925   5.303
 9747TIP3   OH229183   8.173   0.146   3.962
 9747TIP3    H129184   8.098   0.092   3.937
 9747TIP3    H229185   8.167   0.223   3.905
 9748TIP3   OH229186   8.122   5.187   1.596
 9748TIP3    H129187   8.102   5.281   1.602
 9748TIP3    H229188   8.088   5.150   1.677
 9749TIP3   OH229189   0.654   6.447   4.728
 9749TIP3    H129190   0.633   6.358   4.757
 9749TIP3    H229191   0.613   6.504   4.793
 9750TIP3   OH229192  -0.023   0.398   0.176
 9750TIP3    H129193  -0.005   0.404   0.269
 9750TIP3    H229194  -0.041   0.489   0.149
 9751TIP3   OH229195   4.088   0.337   3.936
 9751TIP3    H129196   4.169   0.286   3.938
 9751TIP3    H229197   4.021   0.273   3.909
 9752TIP3   OH229198   8.112   6.619   2.447
 9752TIP3    H129199   8.056   6.615   2.370
 9752TIP3    H229200   8.064   6.572   2.514
 9753TIP3   OH229201   5.448   5.918   3.145
 9753TIP3    H129202   5.446   6.003   3.189
 9753TIP3    H229203   5.516   5.928   3.078
 9754TIP3   OH229204   6.184   4.813   4.229
 9754TIP3    H129205   6.238   4.786   4.303
 9754TIP3    H229206   6.099   4.835   4.267
 9755TIP3   OH229207   7.709   1.062   1.803
 9755TIP3    H129208   7.729   1.119   1.728
 9755TIP3    H229209   7.785   1.071   1.860
 9756TIP3   OH229210   8.175   0.399   6.340
 9756TIP3    H129211   8.194   0.306   6.335
 9756TIP3    H229212   8.167   0.427   6.249
 9757TIP3   OH229213   3.784   0.143   2.642
 9757TIP3    H129214   3.745   0.214   2.692
 9757TIP3    H229215   3.871   0.131   2.681
 9758TIP3   OH229216   5.778   6.510   4.784
 9758TIP3    H129217   5.819   6.589   4.819
 9758TIP3    H229218   5.821   6.438   4.831
 9759TIP3   OH229219   6.682   0.476   5.562
 9759TIP3    H129220   6.755   0.539   5.562
 9759TIP3    H229221   6.712   0.404   5.616
 9760TIP3   OH229222   4.532   1.678   2.808
 9760TIP3    H129223   4.620   1.698   2.777
 9760TIP3    H229224   4.478   1.675   2.729
 9761TIP3   OH229225   0.616   3.678   6.582
 9761TIP3    H129226   0.605   3.711   6.671
 9761TIP3    H229227   0.526   3.664   6.551
 9762TIP3   OH229228   5.727   2.693   5.759
 9762TIP3    H129229   5.667   2.624   5.786
 9762TIP3    H229230   5.780   2.652   5.689
 9763TIP3   OH229231   7.517   1.362   1.916
 9763TIP3    H129232   7.470   1.326   1.841
 9763TIP3    H229233   7.542   1.286   1.968
 9764TIP3   OH229234   7.439   1.840   6.063
 9764TIP3    H129235   7.531   1.841   6.035
 9764TIP3    H229236   7.391   1.810   5.986
 9765TIP3   OH229237   2.487   6.148   1.164
 9765TIP3    H129238   2.542   6.205   1.109
 9765TIP3    H229239   2.530   6.147   1.249
 9766TIP3   OH229240   0.516   3.695   4.715
 9766TIP3    H129241   0.502   3.615   4.765
 9766TIP3    H229242   0.468   3.763   4.762
 9767TIP3   OH229243   0.908   7.770   0.136
 9767TIP3    H129244   0.939   7.680   0.136
 9767TIP3    H229245   0.929   7.803   0.223
 9768TIP3   OH229246   3.325   3.516   1.297
 9768TIP3    H129247   3.234   3.508   1.327
 9768TIP3    H229248   3.319   3.562   1.214
 9769TIP3   OH229249   4.807   6.961   1.713
 9769TIP3    H129250   4.796   6.929   1.624
 9769TIP3    H229251   4.889   7.010   1.711
 9770TIP3   OH229252   5.396   3.575   3.288
 9770TIP3    H129253   5.464   3.511   3.269
 9770TIP3    H229254   5.386   3.572   3.383
 9771TIP3   OH229255   0.452   1.849   5.220
 9771TIP3    H129256   0.436   1.865   5.313
 9771TIP3    H229257   0.445   1.936   5.179
 9772TIP3   OH229258   7.118   3.987   1.112
 9772TIP3    H129259   7.027   4.000   1.138
 9772TIP3    H229260   7.112   3.942   1.027
 9773TIP3   OH229261   6.942   0.059   2.285
 9773TIP3    H129262   6.984   0.130   2.333
 9773TIP3    H229263   6.949  -0.017   2.343
 9774TIP3   OH229264   5.895   3.743   3.457
 9774TIP3    H129265   5.800   3.742   3.451
 9774TIP3    H229266   5.925   3.754   3.367
 9775TIP3   OH229267   5.652   3.829   1.809
 9775TIP3    H129268   5.641   3.923   1.824
 9775TIP3    H229269   5.617   3.788   1.889
 9776TIP3   OH229270   2.430   7.060   0.630
 9776TIP3    H129271   2.342   7.031   0.606
 9776TIP3    H229272   2.482   7.048   0.550
 9777TIP3   OH229273   1.716   6.349   0.853
 9777TIP3    H129274   1.768   6.374   0.777
 9777TIP3    H229275   1.746   6.260   0.874
 9778TIP3   OH229276   3.607   7.785   1.561
 9778TIP3    H129277   3.665   7.820   1.494
 9778TIP3    H229278   3.656   7.712   1.600
 9779TIP3   OH229279   5.896   5.045   3.898
 9779TIP3    H129280   5.832   4.984   3.861
 9779TIP3    H229281   5.907   5.112   3.831
 9780TIP3   OH229282   5.320   7.240   0.460
 9780TIP3    H129283   5.380   7.171   0.433
 9780TIP3    H229284   5.313   7.298   0.384
 9781TIP3   OH229285   3.584   2.068   3.412
 9781TIP3    H129286   3.600   2.061   3.318
 9781TIP3    H229287   3.671   2.083   3.449
 9782TIP3   OH229288   5.193   6.294   4.512
 9782TIP3    H129289   5.101   6.269   4.507
 9782TIP3    H229290   5.238   6.215   4.542
 9783TIP3   OH229291   7.525   0.610   0.740
 9783TIP3    H129292   7.480   0.688   0.707
 9783TIP3    H229293   7.462   0.570   0.800
 9784TIP3   OH229294   8.177   5.927   4.787
 9784TIP3    H129295   8.166   5.977   4.706
 9784TIP3    H229296   8.158   5.989   4.857
 9785TIP3   OH229297   2.963   0.087   0.874
 9785TIP3    H129298   3.019   0.067   0.799
 9785TIP3    H229299   3.024   0.104   0.946
 9786TIP3   OH229300   7.313   7.374   4.162
 9786TIP3    H129301   7.297   7.430   4.239
 9786TIP3    H229302   7.359   7.431   4.100
 9787TIP3   OH229303   5.856   0.315   2.140
 9787TIP3    H129304   5.941   0.319   2.183
 9787TIP3    H229305   5.803   0.381   2.185
 9788TIP3   OH229306   0.898   1.317   5.781
 9788TIP3    H129307   0.853   1.385   5.830
 9788TIP3    H229308   0.965   1.284   5.841
 9789TIP3   OH229309   6.908   6.643   2.613
 9789TIP3    H129310   6.975   6.581   2.583
 9789TIP3    H229311   6.937   6.728   2.579
 9790TIP3   OH229312   0.122   1.715   4.191
 9790TIP3    H129313   0.132   1.668   4.108
 9790TIP3    H229314   0.156   1.654   4.257
 9791TIP3   OH229315   2.123   4.108   3.904
 9791TIP3    H129316   2.045   4.055   3.891
 9791TIP3    H229317   2.168   4.067   3.979
 9792TIP3   OH229318   6.890   2.028   3.398
 9792TIP3    H129319   6.965   2.088   3.395
 9792TIP3    H229320   6.928   1.941   3.393
 9793TIP3   OH229321   4.960   2.984   0.884
 9793TIP3    H129322   4.924   2.941   0.806
 9793TIP3    H229323   4.923   3.072   0.883
 9794TIP3   OH229324   5.228   2.010   5.137
 9794TIP3    H129325   5.252   2.090   5.090
 9794TIP3    H229326   5.238   1.940   5.072
 9795TIP3   OH229327   5.782   5.116   2.779
 9795TIP3    H129328   5.693   5.080   2.781
 9795TIP3    H229329   5.774   5.202   2.821
 9796TIP3   OH229330   4.626   5.937   1.080
 9796TIP3    H129331   4.573   5.994   1.025
 9796TIP3    H229332   4.616   5.850   1.042
 9797TIP3   OH229333   4.332   2.790   2.174
 9797TIP3    H129334   4.317   2.828   2.260
 9797TIP3    H229335   4.421   2.754   2.178
 9798TIP3   OH229336   1.337   5.159   0.250
 9798TIP3    H129337   1.373   5.242   0.216
 9798TIP3    H229338   1.408   5.122   0.302
 9799TIP3   OH229339   6.908   6.837   3.215
 9799TIP3    H129340   6.996   6.800   3.202
 9799TIP3    H229341   6.879   6.803   3.299
 9800TIP3   OH229342   1.838   0.445   6.213
 9800TIP3    H129343   1.757   0.491   6.235
 9800TIP3    H229344   1.810   0.356   6.190
 9801TIP3   OH229345   1.380   7.319   4.567
 9801TIP3    H129346   1.285   7.335   4.562
 9801TIP3    H229347   1.399   7.262   4.493
 9802TIP3   OH229348   4.189   1.832   4.545
 9802TIP3    H129349   4.097   1.820   4.568
 9802TIP3    H229350   4.199   1.926   4.533
 9803TIP3   OH229351   4.878   4.266   3.091
 9803TIP3    H129352   4.857   4.312   3.172
 9803TIP3    H229353   4.935   4.327   3.043
 9804TIP3   OH229354   2.962   3.368   5.670
 9804TIP3    H129355   2.890   3.315   5.635
 9804TIP3    H229356   2.957   3.355   5.765
 9805TIP3   OH229357   1.517   7.708   6.003
 9805TIP3    H129358   1.575   7.784   6.006
 9805TIP3    H229359   1.437   7.740   5.962
 9806TIP3   OH229360   2.456   3.670   4.815
 9806TIP3    H129361   2.407   3.638   4.891
 9806TIP3    H229362   2.392   3.721   4.765
 9807TIP3   OH229363   3.057   0.758   6.107
 9807TIP3    H129364   3.107   0.716   6.177
 9807TIP3    H229365   3.075   0.852   6.117
 9808TIP3   OH229366   7.202   2.188   3.853
 9808TIP3    H129367   7.235   2.122   3.914
 9808TIP3    H229368   7.108   2.170   3.847
 9809TIP3   OH229369   2.166   2.316   0.872
 9809TIP3    H129370   2.252   2.338   0.906
 9809TIP3    H229371   2.160   2.220   0.880
 9810TIP3   OH229372   1.200   0.423   5.019
 9810TIP3    H129373   1.292   0.427   5.046
 9810TIP3    H229374   1.157   0.370   5.086
 9811TIP3   OH229375   2.257   4.121   1.396
 9811TIP3    H129376   2.316   4.051   1.422
 9811TIP3    H229377   2.315   4.192   1.368
 9812TIP3   OH229378   5.376   7.161   3.978
 9812TIP3    H129379   5.326   7.101   4.034
 9812TIP3    H229380   5.464   7.160   4.015
 9813TIP3   OH229381   5.723   1.759   4.184
 9813TIP3    H129382   5.693   1.707   4.259
 9813TIP3    H229383   5.674   1.725   4.109
 9814TIP3   OH229384   2.391   7.629   3.779
 9814TIP3    H129385   2.460   7.687   3.746
 9814TIP3    H229386   2.391   7.644   3.874
 9815TIP3   OH229387   3.936   1.883   0.294
 9815TIP3    H129388   3.854   1.892   0.341
 9815TIP3    H229389   3.942   1.789   0.275
 9816TIP3   OH229390   6.588   3.783   6.632
 9816TIP3    H129391   6.574   3.864   6.681
 9816TIP3    H229392   6.602   3.717   6.700
 9817TIP3   OH229393   2.898   7.279   3.534
 9817TIP3    H129394   2.904   7.352   3.594
 9817TIP3    H229395   2.880   7.203   3.589
 9818TIP3   OH229396   4.654   1.736   5.009
 9818TIP3    H129397   4.717   1.803   4.983
 9818TIP3    H229398   4.649   1.745   5.105
 9819TIP3   OH229399   5.888   6.179   0.722
 9819TIP3    H129400   5.865   6.168   0.814
 9819TIP3    H229401   5.857   6.098   0.680
 9820TIP3   OH229402   4.633   0.978   5.141
 9820TIP3    H129403   4.581   1.058   5.138
 9820TIP3    H229404   4.666   0.968   5.052
 9821TIP3   OH229405   5.727   4.830   0.529
 9821TIP3    H129406   5.701   4.740   0.508
 9821TIP3    H229407   5.764   4.864   0.448
 9822TIP3   OH229408   6.519   4.603   0.583
 9822TIP3    H129409   6.592   4.543   0.590
 9822TIP3    H229410   6.493   4.600   0.491
 9823TIP3   OH229411   5.396   3.209   2.416
 9823TIP3    H129412   5.443   3.161   2.485
 9823TIP3    H229413   5.449   3.196   2.337
 9824TIP3   OH229414   5.366   7.383   0.235
 9824TIP3    H129415   5.405   7.325   0.170
 9824TIP3    H229416   5.435   7.445   0.256
 9825TIP3   OH229417   1.835   1.059   3.582
 9825TIP3    H129418   1.833   0.973   3.540
 9825TIP3    H229419   1.928   1.082   3.585
 9826TIP3   OH229420   5.120   2.927   2.708
 9826TIP3    H129421   5.190   2.930   2.774
 9826TIP3    H229422   5.120   2.836   2.679
 9827TIP3   OH229423   7.544   5.952   4.802
 9827TIP3    H129424   7.542   5.909   4.717
 9827TIP3    H229425   7.632   5.988   4.809
 9828TIP3   OH229426   1.503   0.407   1.735
 9828TIP3    H129427   1.534   0.434   1.822
 9828TIP3    H229428   1.465   0.487   1.698
 9829TIP3   OH229429   1.624   5.197   2.340
 9829TIP3    H129430   1.690   5.220   2.406
 9829TIP3    H229431   1.670   5.208   2.256
 9830TIP3   OH229432   4.868   7.382   1.957
 9830TIP3    H129433   4.882   7.309   2.018
 9830TIP3    H229434   4.934   7.370   1.889
 9831TIP3   OH229435   2.510   0.487   1.074
 9831TIP3    H129436   2.573   0.524   1.136
 9831TIP3    H229437   2.434   0.545   1.080
 9832TIP3   OH229438   1.043   7.068   1.141
 9832TIP3    H129439   0.994   7.078   1.060
 9832TIP3    H229440   1.120   7.016   1.117
 9833TIP3   OH229441   0.941   0.491   6.599
 9833TIP3    H129442   0.898   0.426   6.544
 9833TIP3    H229443   1.029   0.499   6.562
 9834TIP3   OH229444   8.177   5.478   6.454
 9834TIP3    H129445   8.109   5.431   6.502
 9834TIP3    H229446   8.207   5.415   6.388
 9835TIP3   OH229447   0.076   0.541   1.949
 9835TIP3    H129448  -0.009   0.571   1.915
 9835TIP3    H229449   0.097   0.603   2.019
 9836TIP3   OH229450   2.551   4.702   4.834
 9836TIP3    H129451   2.610   4.629   4.856
 9836TIP3    H229452   2.586   4.777   4.882
 9837TIP3   OH229453   6.626   5.055   3.173
 9837TIP3    H129454   6.624   5.024   3.082
 9837TIP3    H229455   6.544   5.024   3.211
 9838TIP3   OH229456   2.162   3.251   6.697
 9838TIP3    H129457   2.188   3.213   6.613
 9838TIP3    H229458   2.066   3.242   6.699
 9839TIP3   OH229459   4.233   5.022   4.966
 9839TIP3    H129460   4.188   5.107   4.963
 9839TIP3    H229461   4.163   4.958   4.977
 9840TIP3   OH229462   4.944   5.263   3.775
 9840TIP3    H129463   4.902   5.328   3.719
 9840TIP3    H229464   4.871   5.211   3.809
 9841TIP3   OH229465   5.313   7.680   0.475
 9841TIP3    H129466   5.306   7.766   0.517
 9841TIP3    H229467   5.227   7.640   0.488
 9842TIP3   OH229468   3.811   2.039   1.447
 9842TIP3    H129469   3.832   2.128   1.419
 9842TIP3    H229470   3.861   2.027   1.528
 9843TIP3   OH229471   2.272   3.721   2.328
 9843TIP3    H129472   2.347   3.665   2.309
 9843TIP3    H229473   2.211   3.665   2.376
 9844TIP3   OH229474   3.395   3.700   0.452
 9844TIP3    H129475   3.369   3.690   0.360
 9844TIP3    H229476   3.352   3.628   0.497
 9845TIP3   OH229477   1.628   2.527   4.440
 9845TIP3    H129478   1.637   2.609   4.489
 9845TIP3    H229479   1.701   2.473   4.471
 9846TIP3   OH229480   5.192   0.273   5.358
 9846TIP3    H129481   5.167   0.364   5.343
 9846TIP3    H229482   5.282   0.267   5.326
 9847TIP3   OH229483   6.681   7.427   5.281
 9847TIP3    H129484   6.773   7.416   5.254
 9847TIP3    H229485   6.654   7.339   5.308
 9848TIP3   OH229486   3.569   2.173   5.979
 9848TIP3    H129487   3.569   2.131   5.893
 9848TIP3    H229488   3.528   2.109   6.037
 9849TIP3   OH229489   5.307   6.871   5.353
 9849TIP3    H129490   5.274   6.882   5.442
 9849TIP3    H229491   5.275   6.785   5.326
 9850TIP3   OH229492   3.335   3.977   4.588
 9850TIP3    H129493   3.359   3.942   4.673
 9850TIP3    H229494   3.281   3.909   4.548
 9851TIP3   OH229495   1.237   0.240   1.231
 9851TIP3    H129496   1.241   0.333   1.212
 9851TIP3    H229497   1.183   0.203   1.162
 9852TIP3   OH229498   6.565   6.920   6.332
 9852TIP3    H129499   6.501   6.959   6.271
 9852TIP3    H229500   6.620   6.993   6.359
 9853TIP3   OH229501   3.920   1.115   2.341
 9853TIP3    H129502   3.889   1.199   2.376
 9853TIP3    H229503   3.915   1.125   2.246
 9854TIP3   OH229504   0.227   5.282   4.158
 9854TIP3    H129505   0.226   5.224   4.234
 9854TIP3    H229506   0.278   5.358   4.186
 9855TIP3   OH229507   2.807   0.148   5.153
 9855TIP3    H129508   2.803   0.140   5.249
 9855TIP3    H229509   2.729   0.101   5.122
 9856TIP3   OH229510   4.096   3.349   5.437
 9856TIP3    H129511   4.190   3.369   5.446
 9856TIP3    H229512   4.084   3.331   5.344
 9857TIP3   OH229513   7.496   3.495   1.035
 9857TIP3    H129514   7.536   3.429   0.980
 9857TIP3    H229515   7.452   3.554   0.973
 9858TIP3   OH229516   7.702   4.142   0.781
 9858TIP3    H129517   7.746   4.143   0.696
 9858TIP3    H229518   7.726   4.058   0.820
 9859TIP3   OH229519   2.384   4.581   4.645
 9859TIP3    H129520   2.463   4.633   4.661
 9859TIP3    H229521   2.313   4.632   4.684
 9860TIP3   OH229522   3.401   6.762   6.320
 9860TIP3    H129523   3.372   6.796   6.236
 9860TIP3    H229524   3.436   6.838   6.366
 9861TIP3   OH229525   6.115   1.270   2.792
 9861TIP3    H129526   6.168   1.194   2.818
 9861TIP3    H229527   6.059   1.237   2.721
 9862TIP3   OH229528   0.365   3.578   5.934
 9862TIP3    H129529   0.346   3.620   6.018
 9862TIP3    H229530   0.459   3.592   5.921
 9863TIP3   OH229531   0.871   3.797   0.447
 9863TIP3    H129532   0.961   3.791   0.476
 9863TIP3    H229533   0.819   3.772   0.523
 9864TIP3   OH229534   2.555   4.029   4.723
 9864TIP3    H129535   2.474   4.073   4.746
 9864TIP3    H229536   2.528   3.942   4.693
 9865TIP3   OH229537   7.702   4.741   3.638
 9865TIP3    H129538   7.615   4.753   3.676
 9865TIP3    H229539   7.735   4.831   3.626
 9866TIP3   OH229540   5.018   7.403   4.361
 9866TIP3    H129541   5.008   7.491   4.325
 9866TIP3    H229542   4.980   7.346   4.295
 9867TIP3   OH229543   1.229   3.136   2.778
 9867TIP3    H129544   1.228   3.221   2.734
 9867TIP3    H229545   1.280   3.150   2.857
 9868TIP3   OH229546   2.753   7.456   5.604
 9868TIP3    H129547   2.714   7.396   5.668
 9868TIP3    H229548   2.826   7.497   5.650
 9869TIP3   OH229549   4.596   6.225   4.912
 9869TIP3    H129550   4.676   6.274   4.894
 9869TIP3    H229551   4.623   6.157   4.974
 9870TIP3   OH229552   5.686   7.042   0.283
 9870TIP3    H129553   5.718   7.074   0.198
 9870TIP3    H229554   5.737   6.962   0.299
 9871TIP3   OH229555   6.010   1.131   5.649
 9871TIP3    H129556   5.941   1.081   5.693
 9871TIP3    H229557   5.970   1.160   5.567
 9872TIP3   OH229558   4.521   5.648   4.350
 9872TIP3    H129559   4.582   5.577   4.369
 9872TIP3    H229560   4.456   5.609   4.291
 9873TIP3   OH229561   1.883   4.552   5.843
 9873TIP3    H129562   1.882   4.528   5.936
 9873TIP3    H229563   1.794   4.533   5.812
 9874TIP3   OH229564   5.569   3.299   1.470
 9874TIP3    H129565   5.614   3.357   1.531
 9874TIP3    H229566   5.527   3.234   1.526
 9875TIP3   OH229567   2.010   6.438   1.896
 9875TIP3    H129568   2.061   6.381   1.953
 9875TIP3    H229569   2.065   6.516   1.885
 9876TIP3   OH229570   3.450   4.429   0.717
 9876TIP3    H129571   3.515   4.371   0.756
 9876TIP3    H229572   3.459   4.511   0.766
 9877TIP3   OH229573   7.831   2.075   5.529
 9877TIP3    H129574   7.743   2.038   5.524
 9877TIP3    H229575   7.883   2.021   5.469
 9878TIP3   OH229576   3.603   5.362   0.272
 9878TIP3    H129577   3.559   5.280   0.249
 9878TIP3    H229578   3.664   5.337   0.342
 9879TIP3   OH229579   0.922   1.903   0.916
 9879TIP3    H129580   0.898   1.813   0.937
 9879TIP3    H229581   0.887   1.918   0.828
 9880TIP3   OH229582   3.282   5.016   4.343
 9880TIP3    H129583   3.364   5.039   4.299
 9880TIP3    H229584   3.215   5.026   4.275
 9881TIP3   OH229585   0.865   5.675   4.364
 9881TIP3    H129586   0.826   5.655   4.279
 9881TIP3    H229587   0.836   5.603   4.421
 9882TIP3   OH229588   4.191   7.521   1.624
 9882TIP3    H129589   4.197   7.455   1.693
 9882TIP3    H229590   4.280   7.528   1.589
 9883TIP3   OH229591   5.307   1.150   4.808
 9883TIP3    H129592   5.229   1.184   4.853
 9883TIP3    H229593   5.369   1.132   4.879
 9884TIP3   OH229594   3.481   6.998   6.429
 9884TIP3    H129595   3.536   6.953   6.494
 9884TIP3    H229596   3.507   7.090   6.435
 9885TIP3   OH229597   1.213   2.480   1.490
 9885TIP3    H129598   1.233   2.572   1.472
 9885TIP3    H229599   1.214   2.438   1.404
 9886TIP3   OH229600   4.380   5.290   2.660
 9886TIP3    H129601   4.368   5.377   2.697
 9886TIP3    H229602   4.348   5.297   2.570
 9887TIP3   OH229603   7.794   4.093   6.297
 9887TIP3    H129604   7.741   4.130   6.227
 9887TIP3    H229605   7.824   4.169   6.348
 9888TIP3   OH229606   2.715   6.983   4.593
 9888TIP3    H129607   2.681   6.915   4.535
 9888TIP3    H229608   2.687   6.956   4.681
 9889TIP3   OH229609   1.584   3.350   4.499
 9889TIP3    H129610   1.624   3.436   4.508
 9889TIP3    H229611   1.611   3.319   4.413
 9890TIP3   OH229612   3.445   5.743   1.454
 9890TIP3    H129613   3.488   5.731   1.539
 9890TIP3    H229614   3.517   5.761   1.394
 9891TIP3   OH229615   0.440   6.976   4.771
 9891TIP3    H129616   0.346   6.966   4.789
 9891TIP3    H229617   0.479   6.895   4.805
 9892TIP3   OH229618   0.373   5.202   0.092
 9892TIP3    H129619   0.426   5.147   0.035
 9892TIP3    H229620   0.316   5.250   0.032
 9893TIP3   OH229621   2.452   3.437   3.119
 9893TIP3    H129622   2.380   3.455   3.059
 9893TIP3    H229623   2.479   3.523   3.151
 9894TIP3   OH229624   6.093  -0.018   2.100
 9894TIP3    H129625   6.150  -0.050   2.030
 9894TIP3    H229626   6.039   0.048   2.058
 9895TIP3   OH229627   1.174   2.000   6.346
 9895TIP3    H129628   1.102   1.990   6.408
 9895TIP3    H229629   1.232   1.927   6.365
 9896TIP3   OH229630   6.270   1.256   5.545
 9896TIP3    H129631   6.323   1.179   5.562
 9896TIP3    H229632   6.183   1.233   5.579
 9897TIP3   OH229633   6.854   6.174   4.334
 9897TIP3    H129634   6.919   6.125   4.283
 9897TIP3    H229635   6.824   6.244   4.275
 9898TIP3   OH229636   5.413   1.477   0.779
 9898TIP3    H129637   5.369   1.485   0.864
 9898TIP3    H229638   5.353   1.424   0.726
 9899TIP3   OH229639   2.585   1.757   5.429
 9899TIP3    H129640   2.679   1.761   5.449
 9899TIP3    H229641   2.567   1.840   5.385
 9900TIP3   OH229642   1.518   3.737   3.158
 9900TIP3    H129643   1.432   3.699   3.140
 9900TIP3    H229644   1.569   3.719   3.079
 9901TIP3   OH229645   0.269   0.930   5.670
 9901TIP3    H129646   0.362   0.925   5.692
 9901TIP3    H229647   0.267   0.954   5.577
 9902TIP3   OH229648   2.434   4.139   0.233
 9902TIP3    H129649   2.500   4.206   0.251
 9902TIP3    H229650   2.351   4.179   0.259
 9903TIP3   OH229651   8.289   6.508   4.696
 9903TIP3    H129652   8.212   6.489   4.643
 9903TIP3    H229653   8.347   6.433   4.682
 9904TIP3   OH229654   7.059   6.742   1.653
 9904TIP3    H129655   7.004   6.734   1.576
 9904TIP3    H229656   7.091   6.832   1.651
 9905TIP3   OH229657   8.264   4.682   5.268
 9905TIP3    H129658   8.171   4.665   5.285
 9905TIP3    H229659   8.303   4.595   5.262
 9906TIP3   OH229660   7.809   2.695   5.489
 9906TIP3    H129661   7.808   2.619   5.547
 9906TIP3    H229662   7.873   2.754   5.527
 9907TIP3   OH229663   3.111   4.518   2.184
 9907TIP3    H129664   3.069   4.547   2.102
 9907TIP3    H229665   3.168   4.590   2.209
 9908TIP3   OH229666   3.323   4.888   2.896
 9908TIP3    H129667   3.398   4.948   2.898
 9908TIP3    H229668   3.325   4.845   2.981
 9909TIP3   OH229669   7.482   6.306   5.672
 9909TIP3    H129670   7.547   6.369   5.641
 9909TIP3    H229671   7.462   6.333   5.761
 9910TIP3   OH229672   1.683   1.887   3.594
 9910TIP3    H129673   1.610   1.924   3.545
 9910TIP3    H229674   1.649   1.805   3.630
 9911TIP3   OH229675   3.959   5.208   3.645
 9911TIP3    H129676   3.885   5.233   3.590
 9911TIP3    H229677   3.941   5.247   3.730
 9912TIP3   OH229678   1.433   0.999   1.352
 9912TIP3    H129679   1.475   0.931   1.299
 9912TIP3    H229680   1.507   1.048   1.389
 9913TIP3   OH229681   1.787   1.120   1.990
 9913TIP3    H129682   1.692   1.109   1.997
 9913TIP3    H229683   1.801   1.160   1.905
 9914TIP3   OH229684   5.380   4.504   5.263
 9914TIP3    H129685   5.342   4.477   5.347
 9914TIP3    H229686   5.336   4.448   5.198
 9915TIP3   OH229687   5.403   2.811   2.934
 9915TIP3    H129688   5.392   2.885   2.994
 9915TIP3    H229689   5.483   2.832   2.885
 9916TIP3   OH229690   2.345   6.340   1.433
 9916TIP3    H129691   2.337   6.435   1.435
 9916TIP3    H229692   2.326   6.316   1.342
 9917TIP3   OH229693   3.663   2.574   2.781
 9917TIP3    H129694   3.709   2.625   2.715
 9917TIP3    H229695   3.703   2.599   2.864
 9918TIP3   OH229696   6.592   7.511   6.401
 9918TIP3    H129697   6.540   7.575   6.450
 9918TIP3    H229698   6.668   7.494   6.457
 9919TIP3   OH229699   7.173   5.393   3.429
 9919TIP3    H129700   7.109   5.457   3.460
 9919TIP3    H229701   7.123   5.312   3.421
 9920TIP3   OH229702   3.949   3.068   6.397
 9920TIP3    H129703   3.912   2.988   6.361
 9920TIP3    H229704   3.873   3.124   6.413
 9921TIP3   OH229705   7.487   6.971   0.614
 9921TIP3    H129706   7.433   7.038   0.571
 9921TIP3    H229707   7.514   7.012   0.696
 9922TIP3   OH229708   6.416   6.852   0.319
 9922TIP3    H129709   6.494   6.816   0.278
 9922TIP3    H229710   6.417   6.945   0.297
 9923TIP3   OH229711   6.050   0.156   3.469
 9923TIP3    H129712   5.964   0.165   3.428
 9923TIP3    H229713   6.075   0.065   3.452
 9924TIP3   OH229714   6.307   7.651   3.753
 9924TIP3    H129715   6.383   7.704   3.729
 9924TIP3    H229716   6.278   7.686   3.837
 9925TIP3   OH229717   2.479   7.033   6.019
 9925TIP3    H129718   2.470   6.976   6.094
 9925TIP3    H229719   2.442   7.117   6.048
 9926TIP3   OH229720   2.743   1.835   5.886
 9926TIP3    H129721   2.649   1.846   5.874
 9926TIP3    H229722   2.780   1.846   5.798
 9927TIP3   OH229723   3.518   2.225   6.674
 9927TIP3    H129724   3.533   2.187   6.587
 9927TIP3    H229725   3.602   2.264   6.698
 9928TIP3   OH229726   1.492   0.882   0.659
 9928TIP3    H129727   1.493   0.957   0.718
 9928TIP3    H229728   1.522   0.917   0.575
 9929TIP3   OH229729   1.785   0.398   1.211
 9929TIP3    H129730   1.746   0.466   1.265
 9929TIP3    H229731   1.799   0.439   1.126
 9930TIP3   OH229732   6.643   2.934   2.245
 9930TIP3    H129733   6.713   2.916   2.307
 9930TIP3    H229734   6.565   2.944   2.299
 9931TIP3   OH229735   1.845   4.892   3.633
 9931TIP3    H129736   1.778   4.917   3.697
 9931TIP3    H229737   1.797   4.854   3.560
 9932TIP3   OH229738   5.400   1.390   0.382
 9932TIP3    H129739   5.439   1.459   0.435
 9932TIP3    H229740   5.460   1.379   0.308
 9933TIP3   OH229741   7.402   1.601   0.881
 9933TIP3    H129742   7.330   1.551   0.842
 9933TIP3    H229743   7.386   1.691   0.852
 9934TIP3   OH229744   4.938   7.222   6.602
 9934TIP3    H129745   4.977   7.172   6.530
 9934TIP3    H229746   4.999   7.211   6.675
 9935TIP3   OH229747   6.977   3.263   2.225
 9935TIP3    H129748   6.954   3.320   2.152
 9935TIP3    H229749   7.054   3.305   2.265
 9936TIP3   OH229750   7.610   7.534   0.888
 9936TIP3    H129751   7.592   7.572   0.803
 9936TIP3    H229752   7.561   7.588   0.950
 9937TIP3   OH229753   1.108   2.641   6.404
 9937TIP3    H129754   1.026   2.670   6.363
 9937TIP3    H229755   1.149   2.584   6.339
 9938TIP3   OH229756   2.621   3.341   6.199
 9938TIP3    H129757   2.591   3.291   6.123
 9938TIP3    H229758   2.541   3.377   6.237
 9939TIP3   OH229759   6.302   5.711   3.078
 9939TIP3    H129760   6.301   5.615   3.083
 9939TIP3    H229761   6.352   5.730   2.998
 9940TIP3   OH229762   5.298   6.437   4.918
 9940TIP3    H129763   5.221   6.493   4.919
 9940TIP3    H229764   5.326   6.432   5.010
 9941TIP3   OH229765   2.991   5.814   5.515
 9941TIP3    H129766   3.071   5.831   5.465
 9941TIP3    H229767   2.954   5.901   5.530
 9942TIP3   OH229768   1.794   0.467   4.591
 9942TIP3    H129769   1.780   0.524   4.515
 9942TIP3    H229770   1.706   0.447   4.623
 9943TIP3   OH229771   4.461   6.582   6.743
 9943TIP3    H129772   4.476   6.492   6.773
 9943TIP3    H229773   4.370   6.582   6.713
 9944TIP3   OH229774   3.386   3.365   5.354
 9944TIP3    H129775   3.335   3.296   5.396
 9944TIP3    H229776   3.336   3.387   5.275
 9945TIP3   OH229777   0.982   0.529   0.972
 9945TIP3    H129778   1.012   0.509   0.883
 9945TIP3    H229779   0.888   0.514   0.969
 9946TIP3   OH229780   3.116   2.043   4.182
 9946TIP3    H129781   3.021   2.048   4.175
 9946TIP3    H229782   3.140   2.118   4.237
 9947TIP3   OH229783   6.130   5.362   3.221
 9947TIP3    H129784   6.093   5.448   3.201
 9947TIP3    H229785   6.113   5.350   3.314
 9948TIP3   OH229786   7.424   2.092   0.933
 9948TIP3    H129787   7.488   2.052   0.873
 9948TIP3    H229788   7.473   2.103   1.015
 9949TIP3   OH229789   1.145   5.488   4.448
 9949TIP3    H129790   1.066   5.497   4.501
 9949TIP3    H229791   1.164   5.394   4.448
 9950TIP3   OH229792   6.498   7.224   2.513
 9950TIP3    H129793   6.554   7.273   2.453
 9950TIP3    H229794   6.416   7.212   2.465
 9951TIP3   OH229795   2.081   0.045   4.577
 9951TIP3    H129796   2.168   0.084   4.578
 9951TIP3    H229797   2.023   0.114   4.609
 9952TIP3   OH229798   1.466   0.802   2.552
 9952TIP3    H129799   1.438   0.737   2.487
 9952TIP3    H229800   1.388   0.816   2.607
 9953TIP3   OH229801   6.822   4.387   4.267
 9953TIP3    H129802   6.843   4.460   4.208
 9953TIP3    H229803   6.739   4.412   4.308
 9954TIP3   OH229804   5.185   4.644   1.971
 9954TIP3    H129805   5.223   4.732   1.982
 9954TIP3    H229806   5.103   4.647   2.020
 9955TIP3   OH229807   7.930   2.296   5.085
 9955TIP3    H129808   7.835   2.286   5.084
 9955TIP3    H229809   7.947   2.357   5.157
 9956TIP3   OH229810   6.055   1.841   5.362
 9956TIP3    H129811   6.086   1.919   5.315
 9956TIP3    H229812   5.978   1.871   5.410
 9957TIP3   OH229813   2.647   1.913   1.069
 9957TIP3    H129814   2.637   1.860   1.148
 9957TIP3    H229815   2.726   1.880   1.027
 9958TIP3   OH229816   5.532   4.906   6.588
 9958TIP3    H129817   5.598   4.847   6.626
 9958TIP3    H229818   5.455   4.851   6.576
 9959TIP3   OH229819   6.307   7.417   1.376
 9959TIP3    H129820   6.238   7.484   1.375
 9959TIP3    H229821   6.288   7.363   1.299
 9960TIP3   OH229822   3.204   3.997   0.798
 9960TIP3    H129823   3.237   3.974   0.712
 9960TIP3    H229824   3.282   4.018   0.849
 9961TIP3   OH229825   0.120   7.211   4.436
 9961TIP3    H129826   0.144   7.254   4.353
 9961TIP3    H229827   0.181   7.246   4.500
 9962TIP3   OH229828   2.178   5.362   3.434
 9962TIP3    H129829   2.249   5.306   3.464
 9962TIP3    H229830   2.120   5.304   3.385
 9963TIP3   OH229831   1.791   7.307   1.408
 9963TIP3    H129832   1.781   7.401   1.426
 9963TIP3    H229833   1.843   7.274   1.482
 9964TIP3   OH229834   0.453   2.192   1.064
 9964TIP3    H129835   0.536   2.174   1.020
 9964TIP3    H229836   0.386   2.158   1.005
 9965TIP3   OH229837   1.163   2.619   4.190
 9965TIP3    H129838   1.197   2.585   4.273
 9965TIP3    H229839   1.171   2.714   4.198
 9966TIP3   OH229840   2.593   6.119   6.730
 9966TIP3    H129841   2.517   6.062   6.743
 9966TIP3    H229842   2.566   6.180   6.662
 9967TIP3   OH229843   3.661   3.304   0.165
 9967TIP3    H129844   3.742   3.259   0.143
 9967TIP3    H229845   3.602   3.283   0.092
 9968TIP3   OH229846   4.366   1.847   0.350
 9968TIP3    H129847   4.428   1.779   0.377
 9968TIP3    H229848   4.280   1.810   0.370
 9969TIP3   OH229849   6.858   1.499   4.411
 9969TIP3    H129850   6.819   1.415   4.390
 9969TIP3    H229851   6.859   1.547   4.328
 9970TIP3   OH229852   5.173   3.032   4.648
 9970TIP3    H129853   5.079   3.037   4.666
 9970TIP3    H229854   5.179   3.003   4.558
 9971TIP3   OH229855   7.835   7.071   4.673
 9971TIP3    H129856   7.834   7.104   4.583
 9971TIP3    H229857   7.926   7.047   4.689
 9972TIP3   OH229858   8.054   5.263   6.592
 9972TIP3    H129859   8.009   5.209   6.527
 9972TIP3    H229860   8.139   5.220   6.605
 9973TIP3   OH229861   5.842   4.655   4.476
 9973TIP3    H129862   5.916   4.607   4.513
 9973TIP3    H229863   5.817   4.604   4.399
 9974TIP3   OH229864   7.085   2.327   1.006
 9974TIP3    H129865   7.077   2.421   1.021
 9974TIP3    H229866   7.102   2.291   1.093
 9975TIP3   OH229867   0.497   1.313   2.200
 9975TIP3    H129868   0.580   1.301   2.153
 9975TIP3    H229869   0.488   1.233   2.252
 9976TIP3   OH229870   7.743   6.724   2.496
 9976TIP3    H129871   7.720   6.633   2.514
 9976TIP3    H229872   7.711   6.740   2.408
 9977TIP3   OH229873   6.972   2.051   4.687
 9977TIP3    H129874   6.931   1.965   4.696
 9977TIP3    H229875   7.063   2.031   4.667
 9978TIP3   OH229876   3.235   6.733   4.467
 9978TIP3    H129877   3.275   6.650   4.493
 9978TIP3    H229878   3.304   6.798   4.480
 9979TIP3   OH229879   0.699   7.267   3.195
 9979TIP3    H129880   0.739   7.181   3.203
 9979TIP3    H229881   0.608   7.250   3.171
 9980TIP3   OH229882   1.373   2.271   0.523
 9980TIP3    H129883   1.306   2.255   0.457
 9980TIP3    H229884   1.382   2.187   0.569
 9981TIP3   OH229885   2.502   3.307   2.100
 9981TIP3    H129886   2.581   3.289   2.149
 9981TIP3    H229887   2.512   3.398   2.070
 9982TIP3   OH229888   0.149   5.899   4.743
 9982TIP3    H129889   0.056   5.880   4.753
 9982TIP3    H229890   0.193   5.831   4.794
 9983TIP3   OH229891   6.261   7.339   5.178
 9983TIP3    H129892   6.195   7.336   5.247
 9983TIP3    H229893   6.321   7.408   5.205
 9984TIP3   OH229894   0.456   4.073   3.423
 9984TIP3    H129895   0.369   4.093   3.387
 9984TIP3    H229896   0.464   3.978   3.415
 9985TIP3   OH229897   3.115   6.258   6.132
 9985TIP3    H129898   3.204   6.223   6.123
 9985TIP3    H229899   3.058   6.181   6.124
 9986TIP3   OH229900   4.010   3.025   3.505
 9986TIP3    H129901   4.078   2.960   3.518
 9986TIP3    H229902   4.056   3.102   3.473
 9987TIP3   OH229903   3.643   0.395   0.001
 9987TIP3    H129904   3.612   0.479   0.036
 9987TIP3    H229905   3.616   0.331   0.068
 9988TIP3   OH229906   4.584   1.682   5.982
 9988TIP3    H129907   4.611   1.609   5.925
 9988TIP3    H229908   4.666   1.711   6.022
 9989TIP3   OH229909   0.087   5.164   0.933
 9989TIP3    H129910   0.100   5.235   0.996
 9989TIP3    H229911  -0.007   5.149   0.933
 9990TIP3   OH229912   4.024   7.374   0.236
 9990TIP3    H129913   4.067   7.421   0.307
 9990TIP3    H229914   4.073   7.292   0.228
 9991TIP3   OH229915   7.706   7.613   2.123
 9991TIP3    H129916   7.765   7.666   2.176
 9991TIP3    H229917   7.654   7.676   2.074
 9992TIP3   OH229918   7.839   0.985   5.744
 9992TIP3    H129919   7.755   0.945   5.768
 9992TIP3    H229920   7.903   0.944   5.803
 9993TIP3   OH229921   4.914   0.740   5.042
 9993TIP3    H129922   4.871   0.715   5.124
 9993TIP3    H229923   4.857   0.807   5.005
 9994TIP3   OH229924   6.457   3.767   2.926
 9994TIP3    H129925   6.514   3.803   2.858
 9994TIP3    H229926   6.410   3.696   2.883
 9995TIP3   OH229927   4.846   1.060   6.325
 9995TIP3    H129928   4.818   1.005   6.398
 9995TIP3    H229929   4.941   1.058   6.328
 9996TIP3   OH229930   7.236   4.381   1.311
 9996TIP3    H129931   7.173   4.419   1.373
 9996TIP3    H229932   7.289   4.323   1.364
 9997TIP3   OH229933   6.533   3.987   1.859
 9997TIP3    H129934   6.506   4.068   1.814
 9997TIP3    H229935   6.544   3.923   1.788
 9998TIP3   OH229936   1.419   6.187   4.163
 9998TIP3    H129937   1.371   6.106   4.145
 9998TIP3    H229938   1.387   6.215   4.249
 9999TIP3   OH229939   5.237   4.728   5.889
 9999TIP3    H129940   5.207   4.816   5.910
 9999TIP3    H229941   5.156   4.679   5.870
10000TIP3   OH229942   1.877   6.695   2.677
10000TIP3    H129943   1.947   6.634   2.654
10000TIP3    H229944   1.797   6.655   2.641
10001TIP3   OH229945   4.792   7.097   2.964
10001TIP3    H129946   4.745   7.117   3.045
10001TIP3    H229947   4.847   7.022   2.986
10002TIP3   OH229948   4.596   0.189   4.716
10002TIP3    H129949   4.634   0.244   4.648
10002TIP3    H229950   4.551   0.119   4.669
10003TIP3   OH229951   0.240   1.583   5.184
10003TIP3    H129952   0.229   1.645   5.256
10003TIP3    H229953   0.330   1.552   5.192
10004TIP3   OH229954   3.814   6.766   3.946
10004TIP3    H129955   3.749   6.828   3.979
10004TIP3    H229956   3.766   6.684   3.936
10005TIP3   OH229957   3.448   2.179   3.809
10005TIP3    H129958   3.401   2.175   3.726
10005TIP3    H229959   3.384   2.213   3.871
10006TIP3   OH229960   7.093   4.398   6.625
10006TIP3    H129961   7.062   4.354   6.704
10006TIP3    H229962   7.164   4.455   6.655
10007TIP3   OH229963   7.921   1.493   6.391
10007TIP3    H129964   7.968   1.507   6.309
10007TIP3    H229965   7.829   1.491   6.365
10008TIP3   OH229966   5.127   5.049   3.712
10008TIP3    H129967   5.061   5.117   3.721
10008TIP3    H229968   5.137   5.038   3.617
10009TIP3   OH229969   0.998   3.985   1.258
10009TIP3    H129970   1.004   3.894   1.229
10009TIP3    H229971   0.977   4.035   1.178
10010TIP3   OH229972   1.161   2.128   1.361
10010TIP3    H129973   1.189   2.037   1.371
10010TIP3    H229974   1.221   2.178   1.417
10011TIP3   OH229975   4.847   1.096   3.303
10011TIP3    H129976   4.900   1.167   3.266
10011TIP3    H229977   4.762   1.136   3.319
10012TIP3   OH229978   2.833   2.070   4.136
10012TIP3    H129979   2.794   2.043   4.053
10012TIP3    H229980   2.821   1.995   4.194
10013TIP3   OH229981   3.562   3.478   4.978
10013TIP3    H129982   3.559   3.556   5.032
10013TIP3    H229983   3.591   3.408   5.038
10014TIP3   OH229984   5.037   4.584   5.782
10014TIP3    H129985   5.064   4.501   5.742
10014TIP3    H229986   4.971   4.559   5.847
10015TIP3   OH229987   7.269   5.217   4.470
10015TIP3    H129988   7.249   5.150   4.405
10015TIP3    H229989   7.286   5.169   4.550
10016TIP3   OH229990   7.797   1.133   0.811
10016TIP3    H129991   7.755   1.166   0.732
10016TIP3    H229992   7.754   1.049   0.828
10017TIP3   OH229993   5.285   2.079   2.697
10017TIP3    H129994   5.351   2.016   2.725
10017TIP3    H229995   5.302   2.093   2.604
10018TIP3   OH229996   2.128   6.537   3.438
10018TIP3    H129997   2.034   6.520   3.441
10018TIP3    H229998   2.156   6.534   3.530
10019TIP3   OH229999   5.376   7.658   6.323
10019TIP3    H130000   5.442   7.644   6.256
10019TIP3    H230001   5.403   7.601   6.396
10020TIP3   OH230002   6.635   3.741   4.148
10020TIP3    H130003   6.724   3.775   4.144
10020TIP3    H230004   6.644   3.648   4.129
10021TIP3   OH230005   2.168   2.785   4.065
10021TIP3    H130006   2.201   2.707   4.109
10021TIP3    H230007   2.226   2.797   3.990
10022TIP3   OH230008   2.863   0.544   5.845
10022TIP3    H130009   2.859   0.620   5.903
10022TIP3    H230010   2.946   0.502   5.867
10023TIP3   OH230011   0.334   7.732   1.151
10023TIP3    H130012   0.423   7.704   1.170
10023TIP3    H230013   0.341   7.826   1.132
10024TIP3   OH230014   3.992   5.050   2.297
10024TIP3    H130015   3.982   5.144   2.288
10024TIP3    H230016   3.995   5.018   2.207
10025TIP3   OH230017   4.868   1.719   6.082
10025TIP3    H130018   4.874   1.810   6.109
10025TIP3    H230019   4.916   1.715   5.999
10026TIP3   OH230020   5.542   6.367   5.477
10026TIP3    H130021   5.560   6.429   5.406
10026TIP3    H230022   5.567   6.282   5.441
10027TIP3   OH230023   1.616   2.542   2.831
10027TIP3    H130024   1.661   2.484   2.769
10027TIP3    H230025   1.530   2.503   2.842
10028TIP3   OH230026   0.641   6.022   5.093
10028TIP3    H130027   0.652   5.949   5.032
10028TIP3    H230028   0.707   6.008   5.160
10029TIP3   OH230029   6.485   1.871   2.168
10029TIP3    H130030   6.444   1.958   2.172
10029TIP3    H230031   6.452   1.833   2.087
10030TIP3   OH230032   1.686   4.040   3.981
10030TIP3    H130033   1.678   4.098   4.058
10030TIP3    H230034   1.672   4.098   3.906
10031TIP3   OH230035   2.831   3.165   2.609
10031TIP3    H130036   2.887   3.218   2.552
10031TIP3    H230037   2.743   3.201   2.596
10032TIP3   OH230038   1.991   2.623   2.118
10032TIP3    H130039   2.035   2.657   2.196
10032TIP3    H230040   2.057   2.568   2.075
10033TIP3   OH230041   5.446   2.788   0.942
10033TIP3    H130042   5.406   2.784   1.029
10033TIP3    H230043   5.373   2.798   0.881
10034TIP3   OH230044   8.291   2.339   5.746
10034TIP3    H130045   8.213   2.383   5.713
10034TIP3    H230046   8.347   2.409   5.778
10035TIP3   OH230047   3.617   6.851   0.319
10035TIP3    H130048   3.657   6.878   0.237
10035TIP3    H230049   3.684   6.800   0.364
10036TIP3   OH230050   5.963   0.837   4.023
10036TIP3    H130051   5.895   0.815   3.960
10036TIP3    H230052   5.934   0.796   4.105
10037TIP3   OH230053   5.244   2.770   6.164
10037TIP3    H130054   5.215   2.861   6.160
10037TIP3    H230055   5.339   2.774   6.150
10038TIP3   OH230056   5.561   6.448   2.639
10038TIP3    H130057   5.472   6.478   2.658
10038TIP3    H230058   5.552   6.391   2.563
10039TIP3   OH230059   7.543   0.788   1.167
10039TIP3    H130060   7.456   0.824   1.159
10039TIP3    H230061   7.582   0.834   1.241
10040TIP3   OH230062   4.985   1.312   5.779
10040TIP3    H130063   5.062   1.275   5.737
10040TIP3    H230064   4.971   1.396   5.735
10041TIP3   OH230065   4.395   6.704   5.464
10041TIP3    H130066   4.414   6.639   5.396
10041TIP3    H230067   4.380   6.653   5.543
10042TIP3   OH230068   7.462   0.174   5.590
10042TIP3    H130069   7.457   0.133   5.676
10042TIP3    H230070   7.555   0.173   5.568
10043TIP3   OH230071   6.939   6.523   4.121
10043TIP3    H130072   6.947   6.444   4.068
10043TIP3    H230073   6.845   6.531   4.138
10044TIP3   OH230074   3.930   0.760   3.964
10044TIP3    H130075   3.878   0.707   3.903
10044TIP3    H230076   4.001   0.794   3.910
10045TIP3   OH230077   3.887   6.753   6.695
10045TIP3    H130078   3.870   6.665   6.728
10045TIP3    H230079   3.896   6.741   6.600
10046TIP3   OH230080   7.007   5.431   4.376
10046TIP3    H130081   7.081   5.426   4.316
10046TIP3    H230082   6.990   5.525   4.386
10047TIP3   OH230083   4.382   7.106   2.470
10047TIP3    H130084   4.319   7.125   2.539
10047TIP3    H230085   4.328   7.091   2.392
10048TIP3   OH230086   2.049   4.111   6.232
10048TIP3    H130087   1.967   4.066   6.211
10048TIP3    H230088   2.051   4.114   6.328
10049TIP3   OH230089   5.034   0.740   1.904
10049TIP3    H130090   4.991   0.820   1.937
10049TIP3    H230091   5.055   0.760   1.813
10050TIP3   OH230092   2.242   6.243   5.187
10050TIP3    H130093   2.206   6.155   5.193
10050TIP3    H230094   2.318   6.242   5.245
10051TIP3   OH230095   0.102   2.229   4.388
10051TIP3    H130096   0.029   2.173   4.362
10051TIP3    H230097   0.100   2.227   4.484
10052TIP3   OH230098   3.767   6.658   2.249
10052TIP3    H130099   3.684   6.706   2.242
10052TIP3    H230100   3.745   6.580   2.300
10053TIP3   OH230101   0.058   6.143   5.530
10053TIP3    H130102   0.008   6.188   5.462
10053TIP3    H230103   0.083   6.060   5.491
10054TIP3   OH230104   6.690   3.046   4.775
10054TIP3    H130105   6.729   3.102   4.842
10054TIP3    H230106   6.740   2.964   4.780
10055TIP3   OH230107   6.079   4.402   5.532
10055TIP3    H130108   6.048   4.464   5.467
10055TIP3    H230109   6.146   4.351   5.487
10056TIP3   OH230110   6.057   6.666   5.308
10056TIP3    H130111   6.140   6.713   5.313
10056TIP3    H230112   6.005   6.716   5.245
10057TIP3   OH230113   2.840   6.743   1.922
10057TIP3    H130114   2.922   6.791   1.927
10057TIP3    H230115   2.801   6.772   1.839
10058TIP3   OH230116   7.797   7.797   0.846
10058TIP3    H130117   7.761   7.884   0.829
10058TIP3    H230118   7.759   7.771   0.930
10059TIP3   OH230119   0.708   5.409   0.609
10059TIP3    H130120   0.641   5.477   0.596
10059TIP3    H230121   0.660   5.327   0.599
10060TIP3   OH230122   5.660   6.612   4.558
10060TIP3    H130123   5.698   6.550   4.620
10060TIP3    H230124   5.599   6.664   4.611
10061TIP3   OH230125   6.275   4.987   1.443
10061TIP3    H130126   6.221   4.908   1.442
10061TIP3    H230127   6.328   4.981   1.364
10062TIP3   OH230128   5.129   5.248   3.321
10062TIP3    H130129   5.048   5.197   3.320
10062TIP3    H230130   5.106   5.330   3.277
10063TIP3   OH230131   2.643   2.886   3.539
10063TIP3    H130132   2.591   2.866   3.461
10063TIP3    H230133   2.732   2.864   3.514
10064TIP3   OH230134   3.537   1.029   5.319
10064TIP3    H130135   3.455   0.980   5.316
10064TIP3    H230136   3.516   1.113   5.279
10065TIP3   OH230137   4.636   0.296   1.774
10065TIP3    H130138   4.669   0.289   1.863
10065TIP3    H230139   4.619   0.390   1.762
10066TIP3   OH230140   4.971   5.207   4.239
10066TIP3    H130141   5.050   5.248   4.275
10066TIP3    H230142   4.918   5.281   4.209
10067TIP3   OH230143   2.182   3.192   3.147
10067TIP3    H130144   2.199   3.102   3.175
10067TIP3    H230145   2.209   3.246   3.221
10068TIP3   OH230146   4.599   6.738   6.542
10068TIP3    H130147   4.559   6.692   6.468
10068TIP3    H230148   4.557   6.703   6.619
10069TIP3   OH230149   0.294   7.038   1.516
10069TIP3    H130150   0.335   7.098   1.453
10069TIP3    H230151   0.258   7.095   1.584
10070TIP3   OH230152   1.346   3.137   6.273
10070TIP3    H130153   1.332   3.050   6.308
10070TIP3    H230154   1.441   3.147   6.271
10071TIP3   OH230155   2.159   5.774   1.559
10071TIP3    H130156   2.139   5.739   1.472
10071TIP3    H230157   2.103   5.851   1.567
10072TIP3   OH230158   7.805   4.876   2.704
10072TIP3    H130159   7.815   4.782   2.693
10072TIP3    H230160   7.884   4.904   2.751
10073TIP3   OH230161   2.860   5.288   3.017
10073TIP3    H130162   2.781   5.234   3.026
10073TIP3    H230163   2.860   5.344   3.095
10074TIP3   OH230164   2.981   6.016   6.149
10074TIP3    H130165   2.933   6.022   6.066
10074TIP3    H230166   2.933   5.951   6.200
10075TIP3   OH230167   2.623   1.598   5.192
10075TIP3    H130168   2.603   1.516   5.236
10075TIP3    H230169   2.590   1.666   5.251
10076TIP3   OH230170   0.050   2.994   4.603
10076TIP3    H130171   0.002   2.925   4.648
10076TIP3    H230172   0.132   2.953   4.575
10077TIP3   OH230173   6.015   0.607   3.789
10077TIP3    H130174   5.974   0.653   3.716
10077TIP3    H230175   6.107   0.597   3.764
10078TIP3   OH230176   7.109   4.402   2.479
10078TIP3    H130177   7.080   4.435   2.564
10078TIP3    H230178   7.085   4.310   2.479
10079TIP3   OH230179   2.944   5.689   5.230
10079TIP3    H130180   2.943   5.604   5.275
10079TIP3    H230181   2.929   5.668   5.138
10080TIP3   OH230182   2.563   5.354   5.188
10080TIP3    H130183   2.611   5.380   5.109
10080TIP3    H230184   2.526   5.435   5.221
10081TIP3   OH230185   4.235   4.312   1.178
10081TIP3    H130186   4.270   4.254   1.111
10081TIP3    H230187   4.299   4.308   1.249
10082TIP3   OH230188   2.327   7.759   2.150
10082TIP3    H130189   2.280   7.686   2.108
10082TIP3    H230190   2.413   7.759   2.109
10083TIP3   OH230191   2.135   2.523   4.599
10083TIP3    H130192   2.170   2.540   4.512
10083TIP3    H230193   2.173   2.591   4.654
10084TIP3   OH230194   4.671   3.861   0.129
10084TIP3    H130195   4.645   3.771   0.111
10084TIP3    H230196   4.765   3.863   0.112
10085TIP3   OH230197   3.976   6.299   1.754
10085TIP3    H130198   3.924   6.285   1.834
10085TIP3    H230199   3.911   6.305   1.684
10086TIP3   OH230200   8.193   0.360   5.554
10086TIP3    H130201   8.284   0.385   5.569
10086TIP3    H230202   8.178   0.378   5.461
10087TIP3   OH230203   5.399   5.201   0.812
10087TIP3    H130204   5.471   5.157   0.855
10087TIP3    H230205   5.435   5.230   0.728
10088TIP3   OH230206   3.635   2.537   5.296
10088TIP3    H130207   3.570   2.506   5.232
10088TIP3    H230208   3.586   2.544   5.378
10089TIP3   OH230209   3.232   3.714   5.826
10089TIP3    H130210   3.317   3.675   5.805
10089TIP3    H230211   3.240   3.805   5.796
10090TIP3   OH230212   6.989   2.206   2.582
10090TIP3    H130213   6.918   2.197   2.645
10090TIP3    H230214   7.068   2.207   2.635
10091TIP3   OH230215   4.138   5.491   3.225
10091TIP3    H130216   4.166   5.459   3.139
10091TIP3    H230217   4.057   5.444   3.243
10092TIP3   OH230218   5.628   4.358   3.016
10092TIP3    H130219   5.662   4.445   3.036
10092TIP3    H230220   5.541   4.374   2.979
10093TIP3   OH230221   0.170   7.292   6.462
10093TIP3    H130222   0.094   7.241   6.487
10093TIP3    H230223   0.218   7.236   6.400
10094TIP3   OH230224   3.187   4.243   0.668
10094TIP3    H130225   3.200   4.210   0.757
10094TIP3    H230226   3.275   4.269   0.639
10095TIP3   OH230227   1.243   3.938   6.627
10095TIP3    H130228   1.321   3.900   6.589
10095TIP3    H230229   1.170   3.897   6.580
10096TIP3   OH230230   4.263   1.373   4.656
10096TIP3    H130231   4.288   1.442   4.595
10096TIP3    H230232   4.202   1.415   4.716
10097TIP3   OH230233   7.169   1.060   3.785
10097TIP3    H130234   7.109   1.020   3.723
10097TIP3    H230235   7.113   1.109   3.845
10098TIP3   OH230236   3.342   7.457   2.098
10098TIP3    H130237   3.428   7.493   2.120
10098TIP3    H230238   3.281   7.508   2.151
10099TIP3   OH230239   3.545   2.924   0.567
10099TIP3    H130240   3.511   2.912   0.656
10099TIP3    H230241   3.631   2.966   0.580
10100TIP3   OH230242   5.303   1.727   3.013
10100TIP3    H130243   5.292   1.822   3.011
10100TIP3    H230244   5.309   1.705   3.106
10101TIP3   OH230245   8.325   0.789   1.500
10101TIP3    H130246   8.343   0.882   1.485
10101TIP3    H230247   8.300   0.783   1.592
10102TIP3   OH230248   5.508   4.973   0.059
10102TIP3    H130249   5.519   4.938  -0.029
10102TIP3    H230250   5.461   4.904   0.106
10103TIP3   OH230251   6.377   3.355   4.213
10103TIP3    H130252   6.294   3.311   4.195
10103TIP3    H230253   6.437   3.284   4.235
10104TIP3   OH230254   6.079   1.173   6.699
10104TIP3    H130255   6.031   1.116   6.639
10104TIP3    H230256   6.164   1.130   6.709
10105TIP3   OH230257   1.249   0.754   4.998
10105TIP3    H130258   1.154   0.755   5.006
10105TIP3    H230259   1.273   0.845   4.984
10106TIP3   OH230260   5.622   7.305   0.410
10106TIP3    H130261   5.646   7.215   0.392
10106TIP3    H230262   5.595   7.305   0.502
10107TIP3   OH230263   2.671   4.707   6.377
10107TIP3    H130264   2.685   4.647   6.449
10107TIP3    H230265   2.759   4.725   6.343
10108TIP3   OH230266   8.143   5.273   4.476
10108TIP3    H130267   8.200   5.253   4.550
10108TIP3    H230268   8.081   5.200   4.474
10109TIP3   OH230269   4.648   5.683   4.058
10109TIP3    H130270   4.650   5.778   4.070
10109TIP3    H230271   4.602   5.650   4.135
10110TIP3   OH230272   4.571   0.572   0.370
10110TIP3    H130273   4.501   0.581   0.305
10110TIP3    H230274   4.532   0.603   0.452
10111TIP3   OH230275   0.932   0.016   3.675
10111TIP3    H130276   0.919   0.049   3.586
10111TIP3    H230277   0.920   0.093   3.731
10112TIP3   OH230278   8.224   3.917   2.684
10112TIP3    H130279   8.241   3.893   2.775
10112TIP3    H230280   8.291   3.982   2.663
10113TIP3   OH230281   5.467   4.697   2.356
10113TIP3    H130282   5.556   4.675   2.326
10113TIP3    H230283   5.471   4.792   2.372
10114TIP3   OH230284   7.317   7.249   2.721
10114TIP3    H130285   7.364   7.318   2.768
10114TIP3    H230286   7.275   7.294   2.648
10115TIP3   OH230287   3.263   0.789   2.830
10115TIP3    H130288   3.186   0.778   2.773
10115TIP3    H230289   3.318   0.713   2.810
10116TIP3   OH230290   2.715   2.780   0.774
10116TIP3    H130291   2.630   2.778   0.729
10116TIP3    H230292   2.767   2.844   0.726
10117TIP3   OH230293   0.357   0.711   1.898
10117TIP3    H130294   0.340   0.647   1.966
10117TIP3    H230295   0.452   0.714   1.891
10118TIP3   OH230296   7.513   0.193   0.770
10118TIP3    H130297   7.467   0.241   0.838
10118TIP3    H230298   7.575   0.138   0.817
10119TIP3   OH230299   2.087   1.687   6.444
10119TIP3    H130300   2.013   1.736   6.407
10119TIP3    H230301   2.144   1.755   6.481
10120TIP3   OH230302   6.150   6.151   1.962
10120TIP3    H130303   6.207   6.158   1.886
10120TIP3    H230304   6.070   6.110   1.929
10121TIP3   OH230305   7.161   5.684   5.180
10121TIP3    H130306   7.154   5.663   5.273
10121TIP3    H230307   7.254   5.701   5.166
10122TIP3   OH230308   1.550   4.156   2.502
10122TIP3    H130309   1.480   4.180   2.441
10122TIP3    H230310   1.583   4.240   2.535
10123TIP3   OH230311   6.009   6.215   3.927
10123TIP3    H130312   5.993   6.130   3.885
10123TIP3    H230313   6.076   6.197   3.993
10124TIP3   OH230314   7.495   0.645   3.669
10124TIP3    H130315   7.418   0.694   3.698
10124TIP3    H230316   7.493   0.651   3.573
10125TIP3   OH230317   4.100   4.559  -0.051
10125TIP3    H130318   4.081   4.587   0.039
10125TIP3    H230319   4.170   4.494  -0.041
10126TIP3   OH230320   0.500   0.719   4.957
10126TIP3    H130321   0.551   0.668   5.021
10126TIP3    H230322   0.510   0.670   4.875
10127TIP3   OH230323   2.206   7.174   2.892
10127TIP3    H130324   2.129   7.156   2.947
10127TIP3    H230325   2.212   7.098   2.834
10128TIP3   OH230326   6.209   7.122   1.400
10128TIP3    H130327   6.255   7.075   1.330
10128TIP3    H230328   6.169   7.197   1.357
10129TIP3   OH230329   8.255   6.660   4.927
10129TIP3    H130330   8.242   6.585   4.869
10129TIP3    H230331   8.334   6.703   4.894
10130TIP3   OH230332   0.659   3.254   2.105
10130TIP3    H130333   0.690   3.345   2.103
10130TIP3    H230334   0.566   3.261   2.125
10131TIP3   OH230335   2.622   6.902   4.855
10131TIP3    H130336   2.529   6.907   4.833
10131TIP3    H230337   2.624   6.883   4.948
10132TIP3   OH230338   7.603   2.883   6.098
10132TIP3    H130339   7.617   2.789   6.110
10132TIP3    H230340   7.691   2.917   6.079
10133TIP3   OH230341   8.070   2.155   3.936
10133TIP3    H130342   8.026   2.223   3.987
10133TIP3    H230343   8.162   2.179   3.939
10134TIP3   OH230344   2.246   6.691   0.236
10134TIP3    H130345   2.337   6.672   0.212
10134TIP3    H230346   2.194   6.635   0.180
10135TIP3   OH230347   7.347   4.431   5.695
10135TIP3    H130348   7.347   4.371   5.769
10135TIP3    H230349   7.429   4.412   5.649
10136TIP3   OH230350   1.232   4.798   6.321
10136TIP3    H130351   1.169   4.863   6.291
10136TIP3    H230352   1.288   4.780   6.246
10137TIP3   OH230353   1.045   3.753   3.984
10137TIP3    H130354   1.020   3.840   4.015
10137TIP3    H230355   1.139   3.750   3.996
10138TIP3   OH230356   2.621   4.880   4.152
10138TIP3    H130357   2.658   4.853   4.068
10138TIP3    H230358   2.596   4.799   4.195
10139TIP3   OH230359   1.636   3.790   3.889
10139TIP3    H130360   1.594   3.825   3.810
10139TIP3    H230361   1.646   3.865   3.947
10140TIP3   OH230362   7.669   2.129   3.610
10140TIP3    H130363   7.630   2.042   3.607
10140TIP3    H230364   7.682   2.147   3.703
10141TIP3   OH230365   4.723   6.593   4.150
10141TIP3    H130366   4.640   6.592   4.102
10141TIP3    H230367   4.769   6.514   4.120
10142TIP3   OH230368   4.442   2.340   0.541
10142TIP3    H130369   4.469   2.250   0.523
10142TIP3    H230370   4.354   2.347   0.504
10143TIP3   OH230371   4.898   7.494   2.898
10143TIP3    H130372   4.990   7.505   2.924
10143TIP3    H230373   4.887   7.552   2.823
10144TIP3   OH230374   0.149   2.132   3.549
10144TIP3    H130375   0.056   2.110   3.543
10144TIP3    H230376   0.154   2.195   3.621
10145TIP3   OH230377   0.480   4.691   0.043
10145TIP3    H130378   0.474   4.596   0.054
10145TIP3    H230379   0.392   4.717   0.015
10146TIP3   OH230380   0.187   6.435   1.196
10146TIP3    H130381   0.258   6.491   1.165
10146TIP3    H230382   0.222   6.394   1.276
10147TIP3   OH230383   4.676   2.982   3.480
10147TIP3    H130384   4.735   2.951   3.411
10147TIP3    H230385   4.666   3.076   3.462
10148TIP3   OH230386   3.033   2.144   2.595
10148TIP3    H130387   2.975   2.075   2.626
10148TIP3    H230388   3.051   2.122   2.503
10149TIP3   OH230389   7.888   6.272   6.553
10149TIP3    H130390   7.899   6.177   6.561
10149TIP3    H230391   7.864   6.286   6.462
10150TIP3   OH230392   7.033   3.667   0.482
10150TIP3    H130393   6.956   3.721   0.460
10150TIP3    H230394   7.003   3.610   0.553
10151TIP3   OH230395   6.979   0.753   1.241
10151TIP3    H130396   7.060   0.785   1.281
10151TIP3    H230397   6.913   0.817   1.267
10152TIP3   OH230398   3.549   4.697   3.609
10152TIP3    H130399   3.618   4.756   3.580
10152TIP3    H230400   3.594   4.628   3.656
10153TIP3   OH230401   6.983   7.508   5.951
10153TIP3    H130402   6.926   7.557   5.892
10153TIP3    H230403   6.970   7.416   5.926
10154TIP3   OH230404   4.607   1.081   5.914
10154TIP3    H130405   4.645   1.127   5.989
10154TIP3    H230406   4.544   1.143   5.878
10155TIP3   OH230407   6.149   4.818   2.806
10155TIP3    H130408   6.142   4.890   2.743
10155TIP3    H230409   6.196   4.750   2.759
10156TIP3   OH230410   6.154   5.185   4.287
10156TIP3    H130411   6.133   5.095   4.311
10156TIP3    H230412   6.110   5.238   4.354
10157TIP3   OH230413   4.087   6.889   2.816
10157TIP3    H130414   4.126   6.848   2.893
10157TIP3    H230415   4.002   6.846   2.807
10158TIP3   OH230416   7.420   6.987   2.392
10158TIP3    H130417   7.458   6.906   2.358
10158TIP3    H230418   7.406   7.042   2.315
10159TIP3   OH230419   4.092   6.166   2.866
10159TIP3    H130420   4.008   6.132   2.836
10159TIP3    H230421   4.119   6.227   2.798
10160TIP3   OH230422   3.729   6.855   5.793
10160TIP3    H130423   3.812   6.825   5.756
10160TIP3    H230424   3.686   6.902   5.722
10161TIP3   OH230425   5.010   0.786   5.520
10161TIP3    H130426   4.940   0.735   5.480
10161TIP3    H230427   4.995   0.778   5.614
10162TIP3   OH230428   7.248   1.203   4.375
10162TIP3    H130429   7.211   1.291   4.369
10162TIP3    H230430   7.242   1.179   4.467
10163TIP3   OH230431   7.903   0.821   0.078
10163TIP3    H130432   7.917   0.773  -0.004
10163TIP3    H230433   7.817   0.792   0.109
10164TIP3   OH230434   3.125   6.081   2.127
10164TIP3    H130435   3.030   6.083   2.139
10164TIP3    H230436   3.159   6.039   2.206
10165TIP3   OH230437   6.328   2.268   1.574
10165TIP3    H130438   6.304   2.206   1.643
10165TIP3    H230439   6.379   2.336   1.619
10166TIP3   OH230440   4.188   4.024   3.010
10166TIP3    H130441   4.273   4.009   2.969
10166TIP3    H230442   4.124   4.001   2.943
10167TIP3   OH230443   0.693   4.518   3.280
10167TIP3    H130444   0.713   4.595   3.226
10167TIP3    H230445   0.684   4.553   3.369
10168TIP3   OH230446   3.873   5.838   0.204
10168TIP3    H130447   3.789   5.855   0.246
10168TIP3    H230448   3.907   5.924   0.182
10169TIP3   OH230449   2.168   0.563   0.568
10169TIP3    H130450   2.082   0.548   0.530
10169TIP3    H230451   2.217   0.609   0.499
10170TIP3   OH230452   3.143   0.853   3.087
10170TIP3    H130453   3.099   0.769   3.100
10170TIP3    H230454   3.175   0.850   2.997
10171TIP3   OH230455   3.739   1.585   1.990
10171TIP3    H130456   3.656   1.552   1.956
10171TIP3    H230457   3.790   1.609   1.912
10172TIP3   OH230458   7.539   6.599   4.764
10172TIP3    H130459   7.606   6.593   4.832
10172TIP3    H230460   7.479   6.667   4.796
10173TIP3   OH230461   6.716   0.640   1.569
10173TIP3    H130462   6.646   0.641   1.505
10173TIP3    H230463   6.794   0.614   1.520
10174TIP3   OH230464   6.212   7.724   3.480
10174TIP3    H130465   6.203   7.631   3.460
10174TIP3    H230466   6.246   7.726   3.570
10175TIP3   OH230467   3.901   5.557   6.781
10175TIP3    H130468   3.878   5.465   6.770
10175TIP3    H230469   3.997   5.557   6.789
10176TIP3   OH230470   1.702   1.669   6.190
10176TIP3    H130471   1.755   1.702   6.117
10176TIP3    H230472   1.729   1.578   6.201
10177TIP3   OH230473   3.467   1.247   3.911
10177TIP3    H130474   3.496   1.221   3.999
10177TIP3    H230475   3.375   1.219   3.907
10178TIP3   OH230476   2.779   1.063   4.100
10178TIP3    H130477   2.813   1.153   4.099
10178TIP3    H230478   2.853   1.009   4.075
10179TIP3   OH230479   8.159   0.735   4.860
10179TIP3    H130480   8.226   0.789   4.816
10179TIP3    H230481   8.076   0.765   4.822
10180TIP3   OH230482   6.013   7.401   2.858
10180TIP3    H130483   6.088   7.347   2.884
10180TIP3    H230484   6.044   7.491   2.868
10181TIP3   OH230485   4.589   7.718   2.993
10181TIP3    H130486   4.606   7.624   2.996
10181TIP3    H230487   4.506   7.728   3.040
10182TIP3   OH230488   7.249   5.543   1.141
10182TIP3    H130489   7.227   5.606   1.210
10182TIP3    H230490   7.343   5.558   1.125
10183TIP3   OH230491   5.393   7.574   1.074
10183TIP3    H130492   5.475   7.590   1.122
10183TIP3    H230493   5.395   7.638   1.003
10184TIP3   OH230494   7.125   7.109   2.226
10184TIP3    H130495   7.217   7.127   2.210
10184TIP3    H230496   7.078   7.160   2.160
10185TIP3   OH230497   4.170   0.067   4.488
10185TIP3    H130498   4.113   0.109   4.552
10185TIP3    H230499   4.243   0.128   4.477
10186TIP3   OH230500   8.127   5.222   0.917
10186TIP3    H130501   8.095   5.305   0.882
10186TIP3    H230502   8.062   5.158   0.890
10187TIP3   OH230503   7.800   5.308   4.863
10187TIP3    H130504   7.716   5.265   4.849
10187TIP3    H230505   7.798   5.384   4.804
10188TIP3   OH230506   7.361   0.763   5.704
10188TIP3    H130507   7.332   0.736   5.791
10188TIP3    H230508   7.351   0.858   5.705
10189TIP3   OH230509   0.638   4.310   2.907
10189TIP3    H130510   0.607   4.345   2.991
10189TIP3    H230511   0.559   4.272   2.867
10190TIP3   OH230512   1.682   4.524   3.361
10190TIP3    H130513   1.762   4.572   3.383
10190TIP3    H230514   1.710   4.433   3.355
10191TIP3   OH230515   7.652   1.176   5.660
10191TIP3    H130516   7.672   1.157   5.569
10191TIP3    H230517   7.705   1.113   5.710
10192TIP3   OH230518   2.975   5.886   3.805
10192TIP3    H130519   2.962   5.944   3.880
10192TIP3    H230520   2.942   5.936   3.730
10193TIP3   OH230521   8.339   2.881   0.162
10193TIP3    H130522   8.277   2.894   0.234
10193TIP3    H230523   8.314   2.797   0.123
10194TIP3   OH230524   4.650   2.210   3.269
10194TIP3    H130525   4.572   2.171   3.229
10194TIP3    H230526   4.670   2.153   3.343
10195TIP3   OH230527   0.883   6.276   4.688
10195TIP3    H130528   0.798   6.309   4.718
10195TIP3    H230529   0.863   6.222   4.612
10196TIP3   OH230530   2.255   6.596   1.426
10196TIP3    H130531   2.173   6.596   1.376
10196TIP3    H230532   2.284   6.687   1.425
10197TIP3   OH230533   2.152   2.312   0.228
10197TIP3    H130534   2.228   2.297   0.171
10197TIP3    H230535   2.190   2.340   0.312
10198TIP3   OH230536   2.671   1.210   1.439
10198TIP3    H130537   2.762   1.234   1.423
10198TIP3    H230538   2.623   1.293   1.430
10199TIP3   OH230539   1.971   4.331   5.610
10199TIP3    H130540   1.970   4.422   5.641
10199TIP3    H230541   2.011   4.336   5.523
10200TIP3   OH230542   3.449   7.607   1.179
10200TIP3    H130543   3.537   7.641   1.162
10200TIP3    H230544   3.391   7.682   1.166
10201TIP3   OH230545   4.489   2.955   0.178
10201TIP3    H130546   4.503   2.952   0.084
10201TIP3    H230547   4.469   2.865   0.203
10202TIP3   OH230548   3.037   4.676   1.961
10202TIP3    H130549   3.105   4.742   1.949
10202TIP3    H230550   2.956   4.727   1.969
10203TIP3   OH230551   0.896   3.877   3.316
10203TIP3    H130552   0.898   3.973   3.325
10203TIP3    H230553   0.947   3.845   3.391
10204TIP3   OH230554   6.669   2.805   5.602
10204TIP3    H130555   6.658   2.895   5.632
10204TIP3    H230556   6.743   2.809   5.542
10205TIP3   OH230557   6.072   7.625   4.709
10205TIP3    H130558   6.076   7.665   4.622
10205TIP3    H230559   6.149   7.568   4.713
10206TIP3   OH230560   3.218   2.917   5.074
10206TIP3    H130561   3.124   2.925   5.057
10206TIP3    H230562   3.259   2.920   4.987
10207TIP3   OH230563   2.793   2.990   5.678
10207TIP3    H130564   2.865   2.958   5.731
10207TIP3    H230565   2.714   2.972   5.730
10208TIP3   OH230566   5.358   0.586   6.125
10208TIP3    H130567   5.314   0.501   6.131
10208TIP3    H230568   5.404   0.595   6.209
10209TIP3   OH230569  -0.003   6.606   1.404
10209TIP3    H130570   0.064   6.559   1.355
10209TIP3    H230571   0.042   6.636   1.483
10210TIP3   OH230572   6.996   4.402   1.834
10210TIP3    H130573   7.071   4.357   1.794
10210TIP3    H230574   6.985   4.481   1.780
10211TIP3   OH230575   1.497   1.627   2.093
10211TIP3    H130576   1.480   1.695   2.158
10211TIP3    H230577   1.551   1.670   2.026
10212TIP3   OH230578   2.375   1.493   1.721
10212TIP3    H130579   2.443   1.551   1.689
10212TIP3    H230580   2.408   1.405   1.704
10213TIP3   OH230581   7.885   7.854   1.899
10213TIP3    H130582   7.941   7.860   1.822
10213TIP3    H230583   7.893   7.762   1.927
10214TIP3   OH230584   3.966   2.152   2.111
10214TIP3    H130585   3.902   2.173   2.042
10214TIP3    H230586   3.920   2.174   2.193
10215TIP3   OH230587   6.228   2.531   5.426
10215TIP3    H130588   6.309   2.581   5.428
10215TIP3    H230589   6.218   2.505   5.334
10216TIP3   OH230590   2.353   5.554   6.583
10216TIP3    H130591   2.388   5.632   6.541
10216TIP3    H230592   2.402   5.546   6.664
10217TIP3   OH230593   0.452   6.549   6.002
10217TIP3    H130594   0.545   6.569   5.993
10217TIP3    H230595   0.440   6.464   5.959
10218TIP3   OH230596   7.611   2.545   3.179
10218TIP3    H130597   7.591   2.458   3.144
10218TIP3    H230598   7.605   2.535   3.274
10219TIP3   OH230599   2.035   7.758   2.526
10219TIP3    H130600   1.953   7.751   2.575
10219TIP3    H230601   2.100   7.714   2.581
10220TIP3   OH230602   8.262   1.890   6.793
10220TIP3    H130603   8.230   1.906   6.704
10220TIP3    H230604   8.284   1.797   6.795
10221TIP3   OH230605   1.098   0.486   3.744
10221TIP3    H130606   1.190   0.509   3.739
10221TIP3    H230607   1.087   0.447   3.830
10222TIP3   OH230608   2.015   3.036   5.604
10222TIP3    H130609   2.065   3.058   5.526
10222TIP3    H230610   1.929   3.011   5.571
10223TIP3   OH230611   2.211   6.667   5.815
10223TIP3    H130612   2.224   6.620   5.733
10223TIP3    H230613   2.218   6.759   5.791
10224TIP3   OH230614   8.200   6.526   5.178
10224TIP3    H130615   8.291   6.494   5.178
10224TIP3    H230616   8.201   6.601   5.119
10225TIP3   OH230617   3.409   3.332   5.932
10225TIP3    H130618   3.501   3.341   5.957
10225TIP3    H230619   3.360   3.367   6.007
10226TIP3   OH230620   3.503   5.327   4.364
10226TIP3    H130621   3.524   5.249   4.416
10226TIP3    H230622   3.428   5.366   4.410
10227TIP3   OH230623   7.859   5.702   1.455
10227TIP3    H130624   7.896   5.765   1.517
10227TIP3    H230625   7.928   5.637   1.443
10228TIP3   OH230626   1.721   0.252   5.931
10228TIP3    H130627   1.668   0.304   5.871
10228TIP3    H230628   1.691   0.279   6.018
10229TIP3   OH230629   6.132   2.463   4.737
10229TIP3    H130630   6.037   2.448   4.737
10229TIP3    H230631   6.170   2.376   4.734
10230TIP3   OH230632   3.855   1.325   4.528
10230TIP3    H130633   3.826   1.393   4.589
10230TIP3    H230634   3.872   1.372   4.446
10231TIP3   OH230635   0.686   5.281   3.950
10231TIP3    H130636   0.680   5.356   3.891
10231TIP3    H230637   0.632   5.305   4.025
10232TIP3   OH230638   0.400   6.744   3.905
10232TIP3    H130639   0.319   6.740   3.854
10232TIP3    H230640   0.427   6.836   3.902
10233TIP3   OH230641   0.215   0.597   0.566
10233TIP3    H130642   0.253   0.683   0.550
10233TIP3    H230643   0.121   0.610   0.558
10234TIP3   OH230644   7.984   7.015   4.185
10234TIP3    H130645   8.013   6.934   4.229
10234TIP3    H230646   8.010   7.003   4.094
10235TIP3   OH230647   4.306   4.988   3.093
10235TIP3    H130648   4.217   4.998   3.058
10235TIP3    H230649   4.293   4.965   3.185
10236TIP3   OH230650   0.827   2.240   0.736
10236TIP3    H130651   0.739   2.251   0.699
10236TIP3    H230652   0.884   2.231   0.660
10237TIP3   OH230653   3.404   4.325   2.645
10237TIP3    H130654   3.397   4.368   2.560
10237TIP3    H230655   3.405   4.396   2.708
10238TIP3   OH230656   4.351   1.223   1.651
10238TIP3    H130657   4.445   1.220   1.671
10238TIP3    H230658   4.308   1.235   1.736
10239TIP3   OH230659   2.612   6.793   4.403
10239TIP3    H130660   2.647   6.752   4.324
10239TIP3    H230661   2.531   6.745   4.421
10240TIP3   OH230662   7.732   7.152   5.807
10240TIP3    H130663   7.641   7.175   5.788
10240TIP3    H230664   7.771   7.234   5.838
10241TIP3   OH230665   5.142   3.793   3.718
10241TIP3    H130666   5.066   3.753   3.676
10241TIP3    H230667   5.208   3.798   3.648
10242TIP3   OH230668   7.526   4.022   1.871
10242TIP3    H130669   7.461   3.953   1.857
10242TIP3    H230670   7.600   3.977   1.913
10243TIP3   OH230671   0.205   6.799   0.909
10243TIP3    H130672   0.285   6.747   0.911
10243TIP3    H230673   0.225   6.875   0.963
10244TIP3   OH230674   1.156   6.391   4.928
10244TIP3    H130675   1.117   6.303   4.934
10244TIP3    H230676   1.083   6.448   4.905
10245TIP3   OH230677   4.795   5.105   1.953
10245TIP3    H130678   4.711   5.146   1.932
10245TIP3    H230679   4.842   5.102   1.870
10246TIP3   OH230680   6.662  -0.027   2.210
10246TIP3    H130681   6.734   0.030   2.237
10246TIP3    H230682   6.603   0.029   2.161
10247TIP3   OH230683   3.630   2.547   4.111
10247TIP3    H130684   3.646   2.616   4.047
10247TIP3    H230685   3.535   2.547   4.123
10248TIP3   OH230686   4.298   5.977   2.458
10248TIP3    H130687   4.308   6.065   2.422
10248TIP3    H230688   4.290   5.989   2.552
10249TIP3   OH230689   5.357   0.703   2.395
10249TIP3    H130690   5.334   0.789   2.431
10249TIP3    H230691   5.287   0.683   2.333
10250TIP3   OH230692   4.233   1.594   1.032
10250TIP3    H130693   4.321   1.601   1.067
10250TIP3    H230694   4.245   1.555   0.945
10251TIP3   OH230695   2.987   3.931   5.070
10251TIP3    H130696   2.914   3.930   5.008
10251TIP3    H230697   2.947   3.912   5.154
10252TIP3   OH230698   2.197   6.890   1.908
10252TIP3    H130699   2.189   6.976   1.867
10252TIP3    H230700   2.108   6.868   1.936
10253TIP3   OH230701   4.536   6.307   1.144
10253TIP3    H130702   4.631   6.300   1.155
10253TIP3    H230703   4.515   6.241   1.078
10254TIP3   OH230704   0.838   0.032   6.346
10254TIP3    H130705   0.857  -0.022   6.270
10254TIP3    H230706   0.745   0.018   6.364
10255TIP3   OH230707   5.562   5.775   3.394
10255TIP3    H130708   5.493   5.824   3.440
10255TIP3    H230709   5.555   5.803   3.303
10256TIP3   OH230710   8.013   1.230   1.402
10256TIP3    H130711   8.028   1.322   1.423
10256TIP3    H230712   7.918   1.223   1.389
10257TIP3   OH230713   1.709   7.398   0.894
10257TIP3    H130714   1.641   7.369   0.955
10257TIP3    H230715   1.661   7.449   0.828
10258TIP3   OH230716   0.960   5.779   5.404
10258TIP3    H130717   0.903   5.702   5.393
10258TIP3    H230718   1.039   5.757   5.355
10259TIP3   OH230719   7.388   7.595   4.324
10259TIP3    H130720   7.393   7.685   4.292
10259TIP3    H230721   7.477   7.573   4.350
10260TIP3   OH230722   2.615   2.841   3.831
10260TIP3    H130723   2.622   2.858   3.737
10260TIP3    H230724   2.526   2.808   3.843
10261TIP3   OH230725   7.081   1.116   6.523
10261TIP3    H130726   7.052   1.171   6.451
10261TIP3    H230727   7.043   1.156   6.601
10262TIP3   OH230728   7.055   6.843   2.247
10262TIP3    H130729   7.044   6.937   2.233
10262TIP3    H230730   7.132   6.820   2.195
10263TIP3   OH230731   3.320   1.099   0.800
10263TIP3    H130732   3.258   1.056   0.742
10263TIP3    H230733   3.382   1.142   0.742
10264TIP3   OH230734   0.294   2.626   2.408
10264TIP3    H130735   0.222   2.562   2.407
10264TIP3    H230736   0.257   2.704   2.368
10265TIP3   OH230737   1.764   1.505   1.492
10265TIP3    H130738   1.703   1.578   1.503
10265TIP3    H230739   1.770   1.493   1.397
10266TIP3   OH230740   5.318   4.718   0.585
10266TIP3    H130741   5.343   4.797   0.634
10266TIP3    H230742   5.236   4.690   0.625
10267TIP3   OH230743   5.124   5.987   6.290
10267TIP3    H130744   5.152   5.966   6.200
10267TIP3    H230745   5.030   5.972   6.289
10268TIP3   OH230746   3.801   7.739   4.211
10268TIP3    H130747   3.713   7.728   4.174
10268TIP3    H230748   3.793   7.813   4.271
10269TIP3   OH230749   4.397   7.490   3.685
10269TIP3    H130750   4.333   7.531   3.743
10269TIP3    H230751   4.360   7.405   3.664
10270TIP3   OH230752   4.049   7.090   4.791
10270TIP3    H130753   3.970   7.123   4.749
10270TIP3    H230754   4.079   7.162   4.846
10271TIP3   OH230755   7.689   6.665   3.244
10271TIP3    H130756   7.765   6.695   3.193
10271TIP3    H230757   7.635   6.743   3.254
10272TIP3   OH230758   3.697   6.687   4.455
10272TIP3    H130759   3.691   6.763   4.397
10272TIP3    H230760   3.769   6.707   4.514
10273TIP3   OH230761   4.381   3.893   1.472
10273TIP3    H130762   4.383   3.798   1.460
10273TIP3    H230763   4.335   3.906   1.555
10274TIP3   OH230764   1.903   4.584   5.510
10274TIP3    H130765   1.935   4.666   5.547
10274TIP3    H230766   1.982   4.538   5.482
10275TIP3   OH230767   8.084   4.598   6.192
10275TIP3    H130768   8.045   4.675   6.232
10275TIP3    H230769   8.025   4.526   6.213
10276TIP3   OH230770   1.085   4.670   6.557
10276TIP3    H130771   1.179   4.683   6.570
10276TIP3    H230772   1.048   4.758   6.558
10277TIP3   OH230773   3.248   4.199   4.733
10277TIP3    H130774   3.285   4.130   4.678
10277TIP3    H230775   3.172   4.230   4.684
10278TIP3   OH230776   6.998   5.994   0.940
10278TIP3    H130777   7.066   6.042   0.987
10278TIP3    H230778   6.974   5.922   0.999
10279TIP3   OH230779   4.984   0.180   1.036
10279TIP3    H130780   4.953   0.237   1.107
10279TIP3    H230781   4.927   0.103   1.041
10280TIP3   OH230782   4.465   1.123   5.385
10280TIP3    H130783   4.521   1.179   5.440
10280TIP3    H230784   4.484   1.150   5.296
10281TIP3   OH230785   1.211   1.484   3.262
10281TIP3    H130786   1.197   1.511   3.171
10281TIP3    H230787   1.160   1.404   3.272
10282TIP3   OH230788   3.116   0.915   5.331
10282TIP3    H130789   3.032   0.893   5.372
10282TIP3    H230790   3.092   0.955   5.247
10283TIP3   OH230791   7.860   2.947   2.497
10283TIP3    H130792   7.907   2.959   2.579
10283TIP3    H230793   7.767   2.943   2.522
10284TIP3   OH230794   5.674   3.265   6.258
10284TIP3    H130795   5.578   3.260   6.257
10284TIP3    H230796   5.701   3.205   6.188
10285TIP3   OH230797   4.244   5.348   1.947
10285TIP3    H130798   4.206   5.265   1.920
10285TIP3    H230799   4.191   5.414   1.902
10286TIP3   OH230800   7.789   2.323   5.923
10286TIP3    H130801   7.755   2.278   6.000
10286TIP3    H230802   7.844   2.258   5.879
10287TIP3   OH230803   1.571   2.027   0.340
10287TIP3    H130804   1.650   1.974   0.349
10287TIP3    H230805   1.523   2.014   0.422
10288TIP3   OH230806   6.629   5.250   6.731
10288TIP3    H130807   6.628   5.239   6.636
10288TIP3    H230808   6.708   5.301   6.748
10289TIP3   OH230809   5.147   6.163   5.788
10289TIP3    H130810   5.182   6.249   5.765
10289TIP3    H230811   5.205   6.101   5.743
10290TIP3   OH230812   6.694   6.429   0.355
10290TIP3    H130813   6.607   6.432   0.316
10290TIP3    H230814   6.712   6.336   0.366
10291TIP3   OH230815   3.985   5.323   2.319
10291TIP3    H130816   3.975   5.393   2.255
10291TIP3    H230817   4.080   5.318   2.334
10292TIP3   OH230818   7.075   2.794   3.891
10292TIP3    H130819   7.073   2.826   3.801
10292TIP3    H230820   6.989   2.753   3.904
10293TIP3   OH230821   5.630   3.516   4.008
10293TIP3    H130822   5.540   3.540   4.029
10293TIP3    H230823   5.678   3.599   4.010
10294TIP3   OH230824   1.852   6.482   3.414
10294TIP3    H130825   1.763   6.500   3.386
10294TIP3    H230826   1.843   6.457   3.506
10295TIP3   OH230827   5.278   3.040   2.075
10295TIP3    H130828   5.266   2.961   2.021
10295TIP3    H230829   5.199   3.045   2.128
10296TIP3   OH230830   0.437   0.993   0.795
10296TIP3    H130831   0.497   0.925   0.764
10296TIP3    H230832   0.413   0.965   0.884
10297TIP3   OH230833   1.743   0.468   1.544
10297TIP3    H130834   1.828   0.509   1.560
10297TIP3    H230835   1.740   0.393   1.603
10298TIP3   OH230836   0.560   5.493   1.336
10298TIP3    H130837   0.610   5.441   1.273
10298TIP3    H230838   0.559   5.440   1.416
10299TIP3   OH230839   0.273   1.123   1.408
10299TIP3    H130840   0.339   1.191   1.394
10299TIP3    H230841   0.210   1.137   1.337
10300TIP3   OH230842   4.420   3.243   3.301
10300TIP3    H130843   4.498   3.284   3.263
10300TIP3    H230844   4.371   3.316   3.340
10301TIP3   OH230845   6.089   1.408   1.908
10301TIP3    H130846   6.136   1.391   1.990
10301TIP3    H230847   6.156   1.444   1.849
10302TIP3   OH230848   6.462   3.162   4.492
10302TIP3    H130849   6.514   3.242   4.487
10302TIP3    H230850   6.437   3.155   4.584
10303TIP3   OH230851   0.277   1.206   6.206
10303TIP3    H130852   0.332   1.209   6.284
10303TIP3    H230853   0.295   1.288   6.160
10304TIP3   OH230854   2.132   2.745   2.311
10304TIP3    H130855   2.119   2.825   2.259
10304TIP3    H230856   2.100   2.768   2.398
10305TIP3   OH230857   5.524   1.504   5.477
10305TIP3    H130858   5.548   1.434   5.417
10305TIP3    H230859   5.607   1.542   5.505
10306TIP3   OH230860   2.426   6.235   2.184
10306TIP3    H130861   2.475   6.276   2.113
10306TIP3    H230862   2.336   6.233   2.152
10307TIP3   OH230863   7.229   1.815   0.821
10307TIP3    H130864   7.230   1.833   0.727
10307TIP3    H230865   7.137   1.800   0.841
10308TIP3   OH230866   5.886   7.691   1.118
10308TIP3    H130867   5.947   7.703   1.045
10308TIP3    H230868   5.938   7.650   1.187
10309TIP3   OH230869   2.377   4.492   5.703
10309TIP3    H130870   2.295   4.483   5.753
10309TIP3    H230871   2.444   4.457   5.761
10310TIP3   OH230872   7.989   5.536   5.085
10310TIP3    H130873   8.050   5.466   5.066
10310TIP3    H230874   7.905   5.505   5.052
10311TIP3   OH230875   7.460   2.095   2.503
10311TIP3    H130876   7.556   2.093   2.512
10311TIP3    H230877   7.431   2.158   2.569
10312TIP3   OH230878   5.795   5.510   5.992
10312TIP3    H130879   5.868   5.492   6.051
10312TIP3    H230880   5.835   5.525   5.907
10313TIP3   OH230881   5.241   3.887   2.024
10313TIP3    H130882   5.307   3.921   2.084
10313TIP3    H230883   5.276   3.803   1.995
10314TIP3   OH230884   3.686   0.370   1.894
10314TIP3    H130885   3.725   0.291   1.856
10314TIP3    H230886   3.706   0.365   1.987
10315TIP3   OH230887   1.185   4.027   5.446
10315TIP3    H130888   1.112   4.084   5.424
10315TIP3    H230889   1.223   4.065   5.525
10316TIP3   OH230890   3.057   1.805   1.493
10316TIP3    H130891   3.010   1.742   1.437
10316TIP3    H230892   2.989   1.844   1.547
10317TIP3   OH230893   2.931   3.665   4.126
10317TIP3    H130894   2.894   3.617   4.200
10317TIP3    H230895   2.974   3.598   4.073
10318TIP3   OH230896   3.319   6.902   2.490
10318TIP3    H130897   3.290   6.982   2.446
10318TIP3    H230898   3.256   6.889   2.560
10319TIP3   OH230899   5.729   7.460   5.376
10319TIP3    H130900   5.819   7.449   5.346
10319TIP3    H230901   5.737   7.492   5.466
10320TIP3   OH230902   7.290   1.262   4.088
10320TIP3    H130903   7.306   1.220   4.172
10320TIP3    H230904   7.248   1.345   4.110
10321TIP3   OH230905   1.583   7.148   3.868
10321TIP3    H130906   1.558   7.056   3.862
10321TIP3    H230907   1.679   7.147   3.867
10322TIP3   OH230908   2.761   3.808   6.276
10322TIP3    H130909   2.723   3.855   6.350
10322TIP3    H230910   2.689   3.755   6.241
10323TIP3   OH230911   2.161   5.711   0.414
10323TIP3    H130912   2.196   5.690   0.501
10323TIP3    H230913   2.227   5.769   0.375
10324TIP3   OH230914   7.574   1.526   4.927
10324TIP3    H130915   7.619   1.464   4.984
10324TIP3    H230916   7.502   1.560   4.980
10325TIP3   OH230917   2.858   0.432   3.795
10325TIP3    H130918   2.917   0.499   3.761
10325TIP3    H230919   2.883   0.352   3.749
10326TIP3   OH230920   4.615   1.858   1.038
10326TIP3    H130921   4.616   1.936   0.983
10326TIP3    H230922   4.577   1.887   1.121
10327TIP3   OH230923   6.746   3.709   5.960
10327TIP3    H130924   6.810   3.774   5.989
10327TIP3    H230925   6.754   3.708   5.865
10328TIP3   OH230926   1.499   7.423   3.822
10328TIP3    H130927   1.504   7.334   3.858
10328TIP3    H230928   1.407   7.446   3.827
10329TIP3   OH230929   2.412   0.891   4.726
10329TIP3    H130930   2.434   0.972   4.772
10329TIP3    H230931   2.497   0.854   4.701
10330TIP3   OH230932   0.857   1.743   5.802
10330TIP3    H130933   0.895   1.749   5.715
10330TIP3    H230934   0.778   1.797   5.798
10331TIP3   OH230935   3.900   6.186   6.136
10331TIP3    H130936   3.908   6.106   6.084
10331TIP3    H230937   3.825   6.171   6.193
10332TIP3   OH230938   2.072   0.343   1.833
10332TIP3    H130939   2.025   0.295   1.765
10332TIP3    H230940   2.064   0.435   1.807
10333TIP3   OH230941   1.725   4.861   0.383
10333TIP3    H130942   1.681   4.793   0.434
10333TIP3    H230943   1.775   4.910   0.449
10334TIP3   OH230944   5.599   7.395   4.663
10334TIP3    H130945   5.531   7.448   4.623
10334TIP3    H230946   5.669   7.456   4.685
10335TIP3   OH230947   0.451   4.931   1.140
10335TIP3    H130948   0.456   5.025   1.124
10335TIP3    H230949   0.541   4.900   1.133
10336TIP3   OH230950   1.496   1.494   3.967
10336TIP3    H130951   1.570   1.544   3.933
10336TIP3    H230952   1.474   1.536   4.050
10337TIP3   OH230953   3.359   3.876   2.409
10337TIP3    H130954   3.288   3.931   2.375
10337TIP3    H230955   3.346   3.874   2.503
10338TIP3   OH230956   7.809   7.079   5.258
10338TIP3    H130957   7.874   7.110   5.195
10338TIP3    H230958   7.845   6.997   5.291
10339TIP3   OH230959   2.139   2.026   0.933
10339TIP3    H130960   2.130   1.970   1.010
10339TIP3    H230961   2.055   2.019   0.888
10340TIP3   OH230962   3.316   4.278   6.610
10340TIP3    H130963   3.312   4.284   6.706
10340TIP3    H230964   3.256   4.346   6.579
10341TIP3   OH230965   4.813   3.829   4.970
10341TIP3    H130966   4.780   3.746   4.936
10341TIP3    H230967   4.860   3.806   5.050
10342TIP3   OH230968   2.532   1.019   3.858
10342TIP3    H130969   2.595   1.069   3.807
10342TIP3    H230970   2.585   0.958   3.909
10343TIP3   OH230971   3.538   3.870   2.886
10343TIP3    H130972   3.468   3.892   2.948
10343TIP3    H230973   3.589   3.803   2.931
10344TIP3   OH230974   1.828   7.713   6.423
10344TIP3    H130975   1.823   7.808   6.430
10344TIP3    H230976   1.755   7.681   6.477
10345TIP3   OH230977   3.335  -0.022   4.454
10345TIP3    H130978   3.249  -0.011   4.414
10345TIP3    H230979   3.394   0.030   4.400
10346TIP3   OH230980   2.660   5.826   4.433
10346TIP3    H130981   2.620   5.814   4.347
10346TIP3    H230982   2.744   5.869   4.414
10347TIP3   OH230983   7.034   0.253   1.785
10347TIP3    H130984   7.019   0.183   1.721
10347TIP3    H230985   7.099   0.218   1.845
10348TIP3   OH230986   5.044   5.425   2.069
10348TIP3    H130987   5.128   5.432   2.024
10348TIP3    H230988   5.058   5.357   2.135
10349TIP3   OH230989   5.226   7.392   6.251
10349TIP3    H130990   5.171   7.462   6.284
10349TIP3    H230991   5.286   7.435   6.191
10350TIP3   OH230992   3.260   5.019   0.302
10350TIP3    H130993   3.196   4.986   0.365
10350TIP3    H230994   3.271   4.949   0.239
10351TIP3   OH230995   0.296   4.382   3.378
10351TIP3    H130996   0.311   4.336   3.461
10351TIP3    H230997   0.223   4.442   3.397
10352TIP3   OH230998   8.153   3.030   4.967
10352TIP3    H130999   8.066   2.994   4.951
10352TIP3    H231000   8.178   3.072   4.884
10353TIP3   OH231001   3.542   2.176   2.002
10353TIP3    H131002   3.527   2.210   1.914
10353TIP3    H231003   3.597   2.099   1.989
10354TIP3   OH231004   4.602   3.448   0.976
10354TIP3    H131005   4.621   3.447   1.069
10354TIP3    H231006   4.589   3.356   0.953
10355TIP3   OH231007   5.633   2.921   5.884
10355TIP3    H131008   5.653   2.840   5.839
10355TIP3    H231009   5.564   2.962   5.832
10356TIP3   OH231010   1.458   4.975   5.078
10356TIP3    H131011   1.520   5.048   5.089
10356TIP3    H231012   1.459   4.930   5.163
10357TIP3   OH231013   3.199   1.371   5.991
10357TIP3    H131014   3.239   1.328   6.066
10357TIP3    H231015   3.134   1.308   5.958
10358TIP3   OH231016   5.518   3.045   1.285
10358TIP3    H131017   5.537   2.954   1.307
10358TIP3    H231018   5.562   3.096   1.353
10359TIP3   OH231019   0.504   3.998   2.328
10359TIP3    H131020   0.595   4.004   2.300
10359TIP3    H231021   0.469   4.086   2.315
10360TIP3   OH231022   4.021   0.516   1.639
10360TIP3    H131023   4.035   0.426   1.610
10360TIP3    H231024   3.975   0.558   1.566
10361TIP3   OH231025   8.080   1.303   3.913
10361TIP3    H131026   8.069   1.235   3.979
10361TIP3    H231027   8.076   1.255   3.829
10362TIP3   OH231028   4.717   1.964   0.410
10362TIP3    H131029   4.731   1.869   0.401
10362TIP3    H231030   4.770   2.003   0.340
10363TIP3   OH231031   2.881   5.824   6.379
10363TIP3    H131032   2.947   5.761   6.348
10363TIP3    H231033   2.799   5.776   6.377
10364TIP3   OH231034   3.620   0.725   5.958
10364TIP3    H131035   3.610   0.632   5.939
10364TIP3    H231036   3.576   0.737   6.042
10365TIP3   OH231037   7.169   5.266   1.830
10365TIP3    H131038   7.103   5.198   1.843
10365TIP3    H231039   7.174   5.311   1.914
10366TIP3   OH231040   1.089   1.993   3.957
10366TIP3    H131041   1.081   2.086   3.981
10366TIP3    H231042   1.177   1.985   3.921
10367TIP3   OH231043   3.103   3.554   5.550
10367TIP3    H131044   3.019   3.586   5.519
10367TIP3    H231045   3.084   3.513   5.634
10368TIP3   OH231046   4.724   5.050   4.755
10368TIP3    H131047   4.672   5.040   4.675
10368TIP3    H231048   4.813   5.025   4.729
10369TIP3   OH231049   4.539   5.383   3.737
10369TIP3    H131050   4.547   5.431   3.655
10369TIP3    H231051   4.599   5.427   3.797
10370TIP3   OH231052   5.498   7.222   0.058
10370TIP3    H131053   5.425   7.163   0.077
10370TIP3    H231054   5.515   7.211  -0.035
10371TIP3   OH231055   3.782   6.134   4.461
10371TIP3    H131056   3.783   6.144   4.556
10371TIP3    H231057   3.859   6.081   4.442
10372TIP3   OH231058   4.155   5.645   2.433
10372TIP3    H131059   4.171   5.738   2.416
10372TIP3    H231060   4.065   5.631   2.404
10373TIP3   OH231061   0.684   0.934   3.195
10373TIP3    H131062   0.729   0.852   3.214
10373TIP3    H231063   0.615   0.910   3.133
10374TIP3   OH231064   2.442   6.602   0.044
10374TIP3    H131065   2.470   6.511   0.043
10374TIP3    H231066   2.522   6.652   0.063
10375TIP3   OH231067   8.146   0.279   4.832
10375TIP3    H131068   8.240   0.287   4.817
10375TIP3    H231069   8.135   0.193   4.872
10376TIP3   OH231070   7.035   2.675   3.608
10376TIP3    H131071   7.018   2.756   3.657
10376TIP3    H231072   6.978   2.682   3.531
10377TIP3   OH231073   2.891   3.850   0.591
10377TIP3    H131074   2.857   3.799   0.518
10377TIP3    H231075   2.970   3.891   0.557
10378TIP3   OH231076   7.541   4.004   5.107
10378TIP3    H131077   7.595   4.075   5.072
10378TIP3    H231078   7.604   3.938   5.137
10379TIP3   OH231079   4.479   5.131   5.125
10379TIP3    H131080   4.547   5.146   5.060
10379TIP3    H231081   4.397   5.144   5.078
10380TIP3   OH231082   4.543   2.265   1.273
10380TIP3    H131083   4.562   2.229   1.359
10380TIP3    H231084   4.507   2.352   1.290
10381TIP3   OH231085   5.062   6.166   1.176
10381TIP3    H131086   5.060   6.082   1.220
10381TIP3    H231087   5.116   6.222   1.232
10382TIP3   OH231088   0.669   6.706   0.163
10382TIP3    H131089   0.726   6.629   0.162
10382TIP3    H231090   0.675   6.742   0.074
10383TIP3   OH231091   4.085   4.745   4.660
10383TIP3    H131092   4.105   4.758   4.568
10383TIP3    H231093   4.019   4.812   4.680
10384TIP3   OH231094   5.298   5.116   6.501
10384TIP3    H131095   5.324   5.030   6.534
10384TIP3    H231096   5.380   5.167   6.498
10385TIP3   OH231097   8.239   0.495   3.735
10385TIP3    H131098   8.148   0.519   3.720
10385TIP3    H231099   8.242   0.401   3.718
10386TIP3   OH231100   8.173   7.097   1.545
10386TIP3    H131101   8.213   7.012   1.564
10386TIP3    H231102   8.160   7.137   1.631
10387TIP3   OH231103   1.381   0.311   3.467
10387TIP3    H131104   1.310   0.306   3.403
10387TIP3    H231105   1.461   0.315   3.415
10388TIP3   OH231106   3.636   7.499   2.070
10388TIP3    H131107   3.675   7.425   2.116
10388TIP3    H231108   3.709   7.558   2.052
10389TIP3   OH231109   1.346   1.970   5.196
10389TIP3    H131110   1.339   2.042   5.133
10389TIP3    H231111   1.436   1.972   5.226
10390TIP3   OH231112   2.946   6.694   6.624
10390TIP3    H131113   3.032   6.654   6.640
10390TIP3    H231114   2.915   6.719   6.711
10391TIP3   OH231115   1.964   5.797   3.178
10391TIP3    H131116   1.927   5.885   3.175
10391TIP3    H231117   2.056   5.810   3.197
10392TIP3   OH231118   7.335   4.893   1.234
10392TIP3    H131119   7.239   4.888   1.239
10392TIP3    H231120   7.360   4.818   1.180
10393TIP3   OH231121   6.197   6.152   4.089
10393TIP3    H131122   6.201   6.062   4.121
10393TIP3    H231123   6.208   6.206   4.167
10394TIP3   OH231124   1.732   4.319   4.541
10394TIP3    H131125   1.814   4.367   4.550
10394TIP3    H231126   1.680   4.371   4.479
10395TIP3   OH231127   4.657   3.551   3.917
10395TIP3    H131128   4.569   3.530   3.886
10395TIP3    H231129   4.644   3.595   4.001
10396TIP3   OH231130   5.109   3.450   6.115
10396TIP3    H131131   5.014   3.462   6.112
10396TIP3    H231132   5.145   3.533   6.084
10397TIP3   OH231133   0.841   7.503   3.453
10397TIP3    H131134   0.836   7.410   3.475
10397TIP3    H231135   0.919   7.535   3.500
10398TIP3   OH231136   8.277   3.036   1.299
10398TIP3    H131137   8.193   3.023   1.256
10398TIP3    H231138   8.319   3.107   1.249
10399TIP3   OH231139   3.487   2.815   4.648
10399TIP3    H131140   3.569   2.864   4.650
10399TIP3    H231141   3.513   2.724   4.641
10400TIP3   OH231142   5.063   6.853   6.569
10400TIP3    H131143   4.992   6.914   6.589
10400TIP3    H231144   5.022   6.787   6.513
10401TIP3   OH231145   2.938   2.077   3.839
10401TIP3    H131146   3.001   2.076   3.911
10401TIP3    H231147   2.941   1.988   3.804
10402TIP3   OH231148   1.791   1.488   3.142
10402TIP3    H131149   1.815   1.480   3.234
10402TIP3    H231150   1.871   1.520   3.100
10403TIP3   OH231151   0.358   7.616   2.684
10403TIP3    H131152   0.444   7.634   2.644
10403TIP3    H231153   0.315   7.557   2.622
10404TIP3   OH231154   4.593   0.689   1.082
10404TIP3    H131155   4.536   0.616   1.106
10404TIP3    H231156   4.576   0.705   0.990
10405TIP3   OH231157   3.641   4.137   2.956
10405TIP3    H131158   3.677   4.170   2.874
10405TIP3    H231159   3.627   4.043   2.940
10406TIP3   OH231160   0.035   3.459   1.841
10406TIP3    H131161   0.093   3.453   1.917
10406TIP3    H231162   0.010   3.551   1.836
10407TIP3   OH231163   0.313   7.663   5.847
10407TIP3    H131164   0.392   7.708   5.878
10407TIP3    H231165   0.346   7.599   5.784
10408TIP3   OH231166   4.915   6.072   2.330
10408TIP3    H131167   4.867   6.006   2.280
10408TIP3    H231168   4.997   6.030   2.354
10409TIP3   OH231169   5.288   7.855   4.897
10409TIP3    H131170   5.256   7.772   4.932
10409TIP3    H231171   5.234   7.870   4.819
10410TIP3   OH231172   5.316   7.292   3.337
10410TIP3    H131173   5.259   7.366   3.361
10410TIP3    H231174   5.268   7.215   3.366
10411TIP3   OH231175   2.123   1.102   0.639
10411TIP3    H131176   2.187   1.033   0.657
10411TIP3    H231177   2.161   1.153   0.568
10412TIP3   OH231178   1.790   7.018   5.381
10412TIP3    H131179   1.738   7.091   5.415
10412TIP3    H231180   1.865   7.013   5.441
10413TIP3   OH231181   3.905   3.524   5.573
10413TIP3    H131182   3.957   3.469   5.514
10413TIP3    H231183   3.822   3.536   5.527
10414TIP3   OH231184   7.311   5.024   4.167
10414TIP3    H131185   7.302   4.990   4.256
10414TIP3    H231186   7.233   5.078   4.154
10415TIP3   OH231187   7.413   4.661   1.079
10415TIP3    H131188   7.449   4.593   1.137
10415TIP3    H231189   7.467   4.655   1.000
10416TIP3   OH231190   1.757   3.767   2.347
10416TIP3    H131191   1.848   3.772   2.319
10416TIP3    H231192   1.723   3.856   2.334
10417TIP3   OH231193   8.000   1.265   6.843
10417TIP3    H131194   8.045   1.181   6.853
10417TIP3    H231195   8.028   1.298   6.757
10418TIP3   OH231196   6.123   3.028   2.433
10418TIP3    H131197   6.094   2.988   2.515
10418TIP3    H231198   6.182   3.099   2.460
10419TIP3   OH231199   6.120   2.448   1.758
10419TIP3    H131200   6.119   2.405   1.844
10419TIP3    H231201   6.209   2.436   1.727
10420TIP3   OH231202   7.222   3.348   2.290
10420TIP3    H131203   7.238   3.367   2.382
10420TIP3    H231204   7.309   3.330   2.253
10421TIP3   OH231205   7.679   7.169   0.468
10421TIP3    H131206   7.622   7.123   0.406
10421TIP3    H231207   7.762   7.121   0.464
10422TIP3   OH231208   4.923   0.486   2.668
10422TIP3    H131209   4.930   0.393   2.689
10422TIP3    H231210   4.886   0.488   2.580
10423TIP3   OH231211   4.733   4.012   5.580
10423TIP3    H131212   4.721   3.946   5.649
10423TIP3    H231213   4.753   4.092   5.628
10424TIP3   OH231214   2.322   5.865   0.244
10424TIP3    H131215   2.380   5.889   0.316
10424TIP3    H231216   2.357   5.782   0.212
10425TIP3   OH231217   4.740   6.411   5.309
10425TIP3    H131218   4.756   6.361   5.389
10425TIP3    H231219   4.817   6.394   5.254
10426TIP3   OH231220   2.443   5.571   0.163
10426TIP3    H131221   2.531   5.536   0.151
10426TIP3    H231222   2.421   5.612   0.080
10427TIP3   OH231223   7.253   3.653   4.775
10427TIP3    H131224   7.210   3.616   4.698
10427TIP3    H231225   7.223   3.744   4.778
10428TIP3   OH231226   7.700   0.821   3.065
10428TIP3    H131227   7.692   0.859   3.152
10428TIP3    H231228   7.774   0.867   3.026
10429TIP3   OH231229   7.804   0.816   2.131
10429TIP3    H131230   7.814   0.814   2.227
10429TIP3    H231231   7.827   0.728   2.103
10430TIP3   OH231232   2.364   5.401   2.441
10430TIP3    H131233   2.423   5.469   2.477
10430TIP3    H231234   2.423   5.338   2.401
10431TIP3   OH231235   0.828   5.347   3.678
10431TIP3    H131236   0.775   5.267   3.668
10431TIP3    H231237   0.918   5.317   3.671
10432TIP3   OH231238   4.975   1.493   2.527
10432TIP3    H131239   5.049   1.523   2.580
10432TIP3    H231240   5.006   1.410   2.489
10433TIP3   OH231241   5.349   7.728   5.240
10433TIP3    H131242   5.436   7.699   5.211
10433TIP3    H231243   5.344   7.819   5.210
10434TIP3   OH231244   6.749   1.826   3.176
10434TIP3    H131245   6.769   1.903   3.229
10434TIP3    H231246   6.678   1.854   3.118
10435TIP3   OH231247   0.183   2.043   6.749
10435TIP3    H131248   0.263   1.992   6.757
10435TIP3    H231249   0.113   1.978   6.748
10436TIP3   OH231250   6.741   7.023   5.815
10436TIP3    H131251   6.648   6.999   5.821
10436TIP3    H231252   6.743   7.096   5.754
10437TIP3   OH231253   2.379   0.477   4.012
10437TIP3    H131254   2.456   0.527   3.987
10437TIP3    H231255   2.314   0.544   4.035
10438TIP3   OH231256   6.395   4.425   3.963
10438TIP3    H131257   6.325   4.457   3.907
10438TIP3    H231258   6.414   4.337   3.931
10439TIP3   OH231259   8.029   6.009   5.396
10439TIP3    H131260   7.943   6.040   5.424
10439TIP3    H231261   8.040   5.925   5.441
10440TIP3   OH231262   4.697   2.526   1.343
10440TIP3    H131263   4.748   2.601   1.374
10440TIP3    H231264   4.610   2.539   1.379
10441TIP3   OH231265   6.129   2.367   0.487
10441TIP3    H131266   6.189   2.430   0.526
10441TIP3    H231267   6.159   2.359   0.396
10442TIP3   OH231268   0.918   2.070   4.312
10442TIP3    H131269   0.912   1.984   4.354
10442TIP3    H231270   0.953   2.050   4.225
10443TIP3   OH231271   1.187   1.829   2.908
10443TIP3    H131272   1.096   1.799   2.910
10443TIP3    H231273   1.212   1.834   3.001
10444TIP3   OH231274   6.090   0.788   0.510
10444TIP3    H131275   6.046   0.858   0.558
10444TIP3    H231276   6.163   0.763   0.567
10445TIP3   OH231277   4.156   2.642   2.446
10445TIP3    H131278   4.232   2.590   2.419
10445TIP3    H231279   4.186   2.733   2.439
10446TIP3   OH231280   1.268   6.386   3.343
10446TIP3    H131281   1.274   6.357   3.252
10446TIP3    H231282   1.195   6.336   3.380
10447TIP3   OH231283   7.459   2.834   0.769
10447TIP3    H131284   7.461   2.929   0.761
10447TIP3    H231285   7.500   2.801   0.689
10448TIP3   OH231286   8.262   7.113   0.916
10448TIP3    H131287   8.180   7.093   0.961
10448TIP3    H231288   8.265   7.209   0.912
10449TIP3   OH231289   5.493   5.342   4.202
10449TIP3    H131290   5.568   5.386   4.242
10449TIP3    H231291   5.519   5.250   4.195
10450TIP3   OH231292   3.523   6.218   0.335
10450TIP3    H131293   3.461   6.216   0.408
10450TIP3    H231294   3.586   6.149   0.355
10451TIP3   OH231295   0.159   1.154   2.293
10451TIP3    H131296   0.243   1.114   2.273
10451TIP3    H231297   0.132   1.196   2.211
10452TIP3   OH231298   4.221   7.312   6.587
10452TIP3    H131299   4.182   7.280   6.506
10452TIP3    H231300   4.194   7.249   6.653
10453TIP3   OH231301   4.916   0.897   3.107
10453TIP3    H131302   4.910   0.963   3.038
10453TIP3    H231303   4.870   0.936   3.181
10454TIP3   OH231304   3.195   7.547   6.655
10454TIP3    H131305   3.256   7.621   6.658
10454TIP3    H231306   3.240   7.480   6.604
10455TIP3   OH231307   4.157   6.534   1.244
10455TIP3    H131308   4.118   6.451   1.217
10455TIP3    H231309   4.191   6.572   1.163
10456TIP3   OH231310   4.308   3.746   3.382
10456TIP3    H131311   4.331   3.806   3.311
10456TIP3    H231312   4.355   3.780   3.458
10457TIP3   OH231313   3.258   1.758   4.527
10457TIP3    H131314   3.225   1.716   4.447
10457TIP3    H231315   3.286   1.685   4.582
10458TIP3   OH231316   1.312   1.886   3.661
10458TIP3    H131317   1.303   1.798   3.624
10458TIP3    H231318   1.350   1.938   3.590
10459TIP3   OH231319   3.981   6.180   3.907
10459TIP3    H131320   3.997   6.245   3.838
10459TIP3    H231321   3.923   6.224   3.969
10460TIP3   OH231322   0.538   0.093   2.589
10460TIP3    H131323   0.452   0.136   2.587
10460TIP3    H231324   0.579   0.124   2.670
10461TIP3   OH231325   5.847   4.168   2.552
10461TIP3    H131326   5.849   4.245   2.609
10461TIP3    H231327   5.862   4.094   2.611
10462TIP3   OH231328   5.732   7.856   4.004
10462TIP3    H131329   5.705   7.924   4.066
10462TIP3    H231330   5.820   7.832   4.032
10463TIP3   OH231331   0.426   1.196   5.679
10463TIP3    H131332   0.352   1.195   5.740
10463TIP3    H231333   0.466   1.109   5.688
10464TIP3   OH231334   5.070   3.779   0.205
10464TIP3    H131335   5.165   3.786   0.216
10464TIP3    H231336   5.036   3.863   0.236
10465TIP3   OH231337   0.610   2.972   2.198
10465TIP3    H131338   0.609   3.048   2.140
10465TIP3    H231339   0.580   3.005   2.282
10466TIP3   OH231340   3.479   3.642   2.470
10466TIP3    H131341   3.561   3.678   2.503
10466TIP3    H231342   3.438   3.715   2.423
10467TIP3   OH231343   3.932   4.575   6.486
10467TIP3    H131344   3.980   4.493   6.497
10467TIP3    H231345   3.990   4.631   6.435
10468TIP3   OH231346   4.570   1.939   2.203
10468TIP3    H131347   4.517   1.917   2.127
10468TIP3    H231348   4.586   2.033   2.194
10469TIP3   OH231349   2.326   1.297   0.372
10469TIP3    H131350   2.374   1.269   0.450
10469TIP3    H231351   2.234   1.284   0.394
10470TIP3   OH231352   1.725   1.310   5.914
10470TIP3    H131353   1.683   1.248   5.974
10470TIP3    H231354   1.669   1.308   5.836
10471TIP3   OH231355   4.979   3.521   0.566
10471TIP3    H131356   5.066   3.538   0.602
10471TIP3    H231357   4.975   3.425   0.558
10472TIP3   OH231358   1.698   5.212   0.634
10472TIP3    H131359   1.744   5.128   0.635
10472TIP3    H231360   1.609   5.191   0.607
10473TIP3   OH231361   0.842   3.288   4.249
10473TIP3    H131362   0.882   3.368   4.216
10473TIP3    H231363   0.859   3.223   4.180
10474TIP3   OH231364   7.266   3.531   6.286
10474TIP3    H131365   7.212   3.452   6.284
10474TIP3    H231366   7.297   3.537   6.377
10475TIP3   OH231367   2.668   0.282   0.632
10475TIP3    H131368   2.693   0.333   0.709
10475TIP3    H231369   2.598   0.225   0.663
10476TIP3   OH231370   6.782   5.149   0.591
10476TIP3    H131371   6.778   5.133   0.685
10476TIP3    H231372   6.727   5.227   0.577
10477TIP3   OH231373   3.410   2.869   1.601
10477TIP3    H131374   3.434   2.911   1.684
10477TIP3    H231375   3.485   2.814   1.579
10478TIP3   OH231376   7.037   2.420   3.509
10478TIP3    H131377   6.944   2.442   3.498
10478TIP3    H231378   7.074   2.497   3.553
10479TIP3   OH231379   6.391   1.468   5.378
10479TIP3    H131380   6.351   1.551   5.405
10479TIP3    H231381   6.373   1.408   5.451
10480TIP3   OH231382   3.701   6.694   3.381
10480TIP3    H131383   3.615   6.654   3.370
10480TIP3    H231384   3.746   6.638   3.444
10481TIP3   OH231385   0.963   5.324   1.954
10481TIP3    H131386   1.022   5.259   1.992
10481TIP3    H231387   0.886   5.323   2.012
10482TIP3   OH231388   1.734   7.074   6.432
10482TIP3    H131389   1.773   7.020   6.501
10482TIP3    H231390   1.700   7.011   6.368
10483TIP3   OH231391   6.194   1.672   0.617
10483TIP3    H131392   6.221   1.715   0.536
10483TIP3    H231393   6.269   1.620   0.644
10484TIP3   OH231394   1.695   1.284   0.262
10484TIP3    H131395   1.774   1.230   0.257
10484TIP3    H231396   1.669   1.281   0.354
10485TIP3   OH231397   1.440   7.717   0.079
10485TIP3    H131398   1.365   7.770   0.105
10485TIP3    H231399   1.479   7.765   0.006
10486TIP3   OH231400   6.893   6.477   6.647
10486TIP3    H131401   6.891   6.384   6.625
10486TIP3    H231402   6.801   6.502   6.655
10487TIP3   OH231403   0.723   4.207  -0.050
10487TIP3    H131404   0.694   4.161   0.029
10487TIP3    H231405   0.740   4.138  -0.113
10488TIP3   OH231406   4.347   6.509   5.646
10488TIP3    H131407   4.354   6.545   5.734
10488TIP3    H231408   4.390   6.424   5.651
10489TIP3   OH231409   0.158   1.454   5.664
10489TIP3    H131410   0.155   1.359   5.658
10489TIP3    H231411   0.066   1.480   5.669
10490TIP3   OH231412   4.791   3.763   2.011
10490TIP3    H131413   4.829   3.677   1.996
10490TIP3    H231414   4.852   3.807   2.071
10491TIP3   OH231415   7.112   3.121   0.930
10491TIP3    H131416   7.191   3.125   0.984
10491TIP3    H231417   7.118   3.037   0.884
10492TIP3   OH231418   2.138   1.394   1.878
10492TIP3    H131419   2.098   1.356   1.800
10492TIP3    H231420   2.220   1.432   1.847
10493TIP3   OH231421   1.068   6.697   0.190
10493TIP3    H131422   0.973   6.696   0.203
10493TIP3    H231423   1.082   6.758   0.118
10494TIP3   OH231424   3.200   0.923   3.343
10494TIP3    H131425   3.147   1.002   3.357
10494TIP3    H231426   3.194   0.907   3.249
10495TIP3   OH231427   7.877   7.527   5.177
10495TIP3    H131428   7.932   7.543   5.100
10495TIP3    H231429   7.791   7.504   5.141
10496TIP3   OH231430   3.078   7.160   6.167
10496TIP3    H131431   3.160   7.204   6.190
10496TIP3    H231432   3.036   7.143   6.251
10497TIP3   OH231433   5.558   1.925   0.339
10497TIP3    H131434   5.621   1.995   0.326
10497TIP3    H231435   5.511   1.919   0.256
10498TIP3   OH231436   6.043   5.205   5.926
10498TIP3    H131437   6.080   5.165   6.005
10498TIP3    H231438   5.972   5.261   5.958
10499TIP3   OH231439   3.413   6.667   0.180
10499TIP3    H131440   3.488   6.632   0.228
10499TIP3    H231441   3.337   6.622   0.218
10500TIP3   OH231442   8.062   5.086   3.129
10500TIP3    H131443   8.013   5.009   3.159
10500TIP3    H231444   8.154   5.062   3.144
10501TIP3   OH231445   4.934   2.284   2.828
10501TIP3    H131446   4.855   2.302   2.879
10501TIP3    H231447   5.006   2.314   2.883
10502TIP3   OH231448   7.870   0.385   5.228
10502TIP3    H131449   7.853   0.431   5.146
10502TIP3    H231450   7.807   0.421   5.291
10503TIP3   OH231451   4.619   6.434   6.206
10503TIP3    H131452   4.681   6.483   6.151
10503TIP3    H231453   4.607   6.351   6.161
10504TIP3   OH231454   2.182   0.358   4.501
10504TIP3    H131455   2.226   0.339   4.583
10504TIP3    H231456   2.195   0.280   4.448
10505TIP3   OH231457   6.844   6.964   3.488
10505TIP3    H131458   6.796   6.986   3.408
10505TIP3    H231459   6.777   6.930   3.547
10506TIP3   OH231460   7.616   4.999   5.316
10506TIP3    H131461   7.570   5.083   5.314
10506TIP3    H231462   7.615   4.969   5.225
10507TIP3   OH231463   4.870   0.127   2.039
10507TIP3    H131464   4.823   0.088   2.112
10507TIP3    H231465   4.851   0.221   2.045
10508TIP3   OH231466   6.173   6.943   1.614
10508TIP3    H131467   6.183   6.853   1.585
10508TIP3    H231468   6.183   6.995   1.534
10509TIP3   OH231469   1.075   6.000   2.772
10509TIP3    H131470   1.066   6.003   2.677
10509TIP3    H231471   1.169   5.986   2.786
10510TIP3   OH231472   1.178   6.801   3.881
10510TIP3    H131473   1.129   6.769   3.806
10510TIP3    H231474   1.262   6.755   3.876
10511TIP3   OH231475   1.037   2.202   6.765
10511TIP3    H131476   1.050   2.247   6.682
10511TIP3    H231477   1.106   2.235   6.822
10512TIP3   OH231478   6.952   0.198   3.858
10512TIP3    H131479   7.039   0.166   3.879
10512TIP3    H231480   6.963   0.292   3.842
10513TIP3   OH231481   5.041   2.639   5.624
10513TIP3    H131482   5.045   2.680   5.711
10513TIP3    H231483   5.130   2.649   5.589
10514TIP3   OH231484   4.863   2.780   3.672
10514TIP3    H131485   4.827   2.722   3.738
10514TIP3    H231486   4.813   2.760   3.592
10515TIP3   OH231487   5.720   7.317   4.036
10515TIP3    H131488   5.691   7.353   4.120
10515TIP3    H231489   5.771   7.388   3.997
10516TIP3   OH231490   1.744   6.865   4.566
10516TIP3    H131491   1.831   6.900   4.549
10516TIP3    H231492   1.698   6.935   4.612
10517TIP3   OH231493   7.327   7.285   5.368
10517TIP3    H131494   7.326   7.337   5.449
10517TIP3    H231495   7.318   7.194   5.397
10518TIP3   OH231496   1.806   4.800   0.928
10518TIP3    H131497   1.790   4.777   1.020
10518TIP3    H231498   1.835   4.891   0.931
10519TIP3   OH231499   0.645   6.767   3.182
10519TIP3    H131500   0.739   6.762   3.166
10519TIP3    H231501   0.604   6.754   3.097
10520TIP3   OH231502   0.554   1.177   3.225
10520TIP3    H131503   0.616   1.105   3.216
10520TIP3    H231504   0.570   1.232   3.149
10521TIP3   OH231505   7.573   6.144   3.537
10521TIP3    H131506   7.578   6.057   3.498
10521TIP3    H231507   7.480   6.156   3.558
10522TIP3   OH231508   7.729   7.361   4.441
10522TIP3    H131509   7.707   7.450   4.417
10522TIP3    H231510   7.692   7.349   4.529
10523TIP3   OH231511   2.188   1.165   3.293
10523TIP3    H131512   2.243   1.087   3.289
10523TIP3    H231513   2.168   1.175   3.385
10524TIP3   OH231514   2.468   5.614   5.211
10524TIP3    H131515   2.469   5.611   5.115
10524TIP3    H231516   2.493   5.704   5.233
10525TIP3   OH231517   7.336   3.849   5.036
10525TIP3    H131518   7.403   3.907   5.070
10525TIP3    H231519   7.383   3.788   4.979
10526TIP3   OH231520   3.641   2.452   0.494
10526TIP3    H131521   3.671   2.460   0.404
10526TIP3    H231522   3.667   2.364   0.521
10527TIP3   OH231523   6.565   7.143   0.638
10527TIP3    H131524   6.593   7.052   0.629
10527TIP3    H231525   6.548   7.154   0.731
10528TIP3   OH231526   1.751   7.559   0.652
10528TIP3    H131527   1.676   7.615   0.630
10528TIP3    H231528   1.822   7.620   0.671
10529TIP3   OH231529   7.090   0.846   2.677
10529TIP3    H131530   7.107   0.854   2.583
10529TIP3    H231531   7.037   0.923   2.699
10530TIP3   OH231532   2.248   4.532   4.421
10530TIP3    H131533   2.298   4.541   4.502
10530TIP3    H231534   2.286   4.455   4.379
10531TIP3   OH231535   3.091   7.037   0.374
10531TIP3    H131536   3.105   7.042   0.279
10531TIP3    H231537   3.168   6.989   0.406
10532TIP3   OH231538   6.953   7.369   5.281
10532TIP3    H131539   6.951   7.276   5.302
10532TIP3    H231540   7.022   7.405   5.337
10533TIP3   OH231541   0.136   0.155   2.416
10533TIP3    H131542   0.193   0.122   2.346
10533TIP3    H231543   0.167   0.111   2.495
10534TIP3   OH231544   0.536   5.716   3.587
10534TIP3    H131545   0.559   5.793   3.536
10534TIP3    H231546   0.613   5.700   3.643
10535TIP3   OH231547   7.157   5.938   0.197
10535TIP3    H131548   7.097   5.866   0.182
10535TIP3    H231549   7.173   5.974   0.109
10536TIP3   OH231550   8.291   5.481   0.142
10536TIP3    H131551   8.246   5.406   0.103
10536TIP3    H231552   8.322   5.533   0.068
10537TIP3   OH231553   3.449   4.168   6.386
10537TIP3    H131554   3.396   4.193   6.461
10537TIP3    H231555   3.489   4.250   6.356
10538TIP3   OH231556   5.460   0.954   1.717
10538TIP3    H131557   5.473   0.883   1.780
10538TIP3    H231558   5.535   1.012   1.731
10539TIP3   OH231559   0.046   4.317   1.019
10539TIP3    H131560   0.031   4.231   1.058
10539TIP3    H231561  -0.010   4.376   1.069
10540TIP3   OH231562   7.999   6.732   2.189
10540TIP3    H131563   7.962   6.670   2.126
10540TIP3    H231564   8.016   6.811   2.137
10541TIP3   OH231565   4.959   6.961   4.544
10541TIP3    H131566   4.895   7.015   4.590
10541TIP3    H231567   5.040   7.011   4.547
10542TIP3   OH231568   0.789   1.110   6.480
10542TIP3    H131569   0.799   1.060   6.561
10542TIP3    H231570   0.695   1.130   6.476
10543TIP3   OH231571   4.115   7.296   0.746
10543TIP3    H131572   4.081   7.229   0.805
10543TIP3    H231573   4.208   7.274   0.735
10544TIP3   OH231574   4.697   4.401   4.889
10544TIP3    H131575   4.792   4.396   4.884
10544TIP3    H231576   4.677   4.495   4.883
10545TIP3   OH231577   1.493   6.986   1.605
10545TIP3    H131578   1.461   6.975   1.695
10545TIP3    H231579   1.564   6.923   1.597
10546TIP3   OH231580   5.412   7.224   6.705
10546TIP3    H131581   5.401   7.130   6.687
10546TIP3    H231582   5.507   7.236   6.710
10547TIP3   OH231583   5.451   2.077   0.594
10547TIP3    H131584   5.447   2.001   0.536
10547TIP3    H231585   5.478   2.041   0.678
10548TIP3   OH231586   2.514   3.587   1.301
10548TIP3    H131587   2.548   3.627   1.221
10548TIP3    H231588   2.419   3.596   1.294
10549TIP3   OH231589   0.392   7.688   6.569
10549TIP3    H131590   0.322   7.634   6.607
10549TIP3    H231591   0.346   7.758   6.523
10550TIP3   OH231592   2.741   0.012   3.403
10550TIP3    H131593   2.794   0.089   3.383
10550TIP3    H231594   2.683   0.040   3.473
10551TIP3   OH231595   0.635   7.449   6.347
10551TIP3    H131596   0.719   7.438   6.302
10551TIP3    H231597   0.583   7.502   6.286
10552TIP3   OH231598   4.308   3.954   2.300
10552TIP3    H131599   4.381   4.004   2.337
10552TIP3    H231600   4.323   3.864   2.330
10553TIP3   OH231601   8.044   0.378   6.754
10553TIP3    H131602   8.003   0.421   6.829
10553TIP3    H231603   8.132   0.416   6.750
10554TIP3   OH231604   6.421   6.403   6.734
10554TIP3    H131605   6.481   6.408   6.660
10554TIP3    H231606   6.366   6.481   6.725
10555TIP3   OH231607   6.505   6.576   5.240
10555TIP3    H131608   6.531   6.501   5.293
10555TIP3    H231609   6.551   6.565   5.157
10556TIP3   OH231610   1.036   5.679   2.856
10556TIP3    H131611   1.020   5.761   2.903
10556TIP3    H231612   1.110   5.639   2.901
10557TIP3   OH231613   7.595   7.024   3.646
10557TIP3    H131614   7.506   7.002   3.674
10557TIP3    H231615   7.587   7.045   3.553
10558TIP3   OH231616   6.406   5.975   6.089
10558TIP3    H131617   6.425   5.881   6.100
10558TIP3    H231618   6.311   5.980   6.086
10559TIP3   OH231619   8.016   5.519   3.476
10559TIP3    H131620   8.025   5.429   3.445
10559TIP3    H231621   8.065   5.571   3.412
10560TIP3   OH231622   5.783   6.147   0.168
10560TIP3    H131623   5.738   6.109   0.243
10560TIP3    H231624   5.867   6.177   0.203
10561TIP3   OH231625   4.037   4.370   4.333
10561TIP3    H131626   4.051   4.441   4.270
10561TIP3    H231627   3.942   4.366   4.345
10562TIP3   OH231628   0.845   0.830   5.220
10562TIP3    H131629   0.912   0.825   5.151
10562TIP3    H231630   0.829   0.924   5.231
10563TIP3   OH231631   1.169   0.271   4.382
10563TIP3    H131632   1.119   0.340   4.426
10563TIP3    H231633   1.179   0.202   4.448
10564TIP3   OH231634   6.760   4.524   5.435
10564TIP3    H131635   6.788   4.592   5.496
10564TIP3    H231636   6.721   4.571   5.362
10565TIP3   OH231637   7.770   3.928   4.398
10565TIP3    H131638   7.791   3.996   4.334
10565TIP3    H231639   7.765   3.974   4.482
10566TIP3   OH231640   7.795   5.826   3.204
10566TIP3    H131641   7.889   5.836   3.187
10566TIP3    H231642   7.774   5.737   3.176
10567TIP3   OH231643   1.614   4.442   6.659
10567TIP3    H131644   1.519   4.445   6.672
10567TIP3    H231645   1.626   4.446   6.564
10568TIP3   OH231646   6.842   7.030   4.483
10568TIP3    H131647   6.890   7.112   4.488
10568TIP3    H231648   6.752   7.055   4.464
10569TIP3   OH231649   1.942   5.589   5.315
10569TIP3    H131650   1.874   5.583   5.382
10569TIP3    H231651   1.942   5.681   5.289
10570TIP3   OH231652   0.024   2.794   4.182
10570TIP3    H131653   0.001   2.851   4.256
10570TIP3    H231654   0.099   2.744   4.213
10571TIP3   OH231655   4.266   7.833   3.390
10571TIP3    H131656   4.186   7.824   3.442
10571TIP3    H231657   4.324   7.765   3.423
10572TIP3   OH231658   7.748   5.499   4.406
10572TIP3    H131659   7.660   5.492   4.443
10572TIP3    H231660   7.736   5.548   4.324
10573TIP3   OH231661   1.512   0.413   4.630
10573TIP3    H131662   1.502   0.429   4.536
10573TIP3    H231663   1.509   0.317   4.638
10574TIP3   OH231664   2.742   2.536   1.289
10574TIP3    H131665   2.766   2.524   1.197
10574TIP3    H231666   2.725   2.630   1.297
10575TIP3   OH231667   2.057   3.754   2.960
10575TIP3    H131668   2.075   3.797   3.043
10575TIP3    H231669   1.979   3.702   2.976
10576TIP3   OH231670   6.218   6.856   1.900
10576TIP3    H131671   6.211   6.903   1.817
10576TIP3    H231672   6.272   6.780   1.881
10577TIP3   OH231673   4.628   0.330   5.181
10577TIP3    H131674   4.562   0.294   5.241
10577TIP3    H231675   4.579   0.346   5.100
10578TIP3   OH231676   6.900   4.329   1.552
10578TIP3    H131677   6.920   4.284   1.469
10578TIP3    H231678   6.957   4.407   1.551
10579TIP3   OH231679   1.360   5.326   2.829
10579TIP3    H131680   1.362   5.407   2.778
10579TIP3    H231681   1.324   5.352   2.914
10580TIP3   OH231682   5.383   3.206   4.726
10580TIP3    H131683   5.314   3.158   4.681
10580TIP3    H231684   5.411   3.273   4.664
10581TIP3   OH231685   2.379   2.307   4.886
10581TIP3    H131686   2.404   2.397   4.864
10581TIP3    H231687   2.433   2.286   4.963
10582TIP3   OH231688   2.613   6.937   2.500
10582TIP3    H131689   2.688   6.877   2.506
10582TIP3    H231690   2.542   6.890   2.542
10583TIP3   OH231691   1.297   3.788   2.719
10583TIP3    H131692   1.263   3.856   2.662
10583TIP3    H231693   1.238   3.788   2.794
10584TIP3   OH231694   6.722   7.605   4.184
10584TIP3    H131695   6.810   7.637   4.204
10584TIP3    H231696   6.723   7.513   4.214
10585TIP3   OH231697   6.817   5.179   3.651
10585TIP3    H131698   6.785   5.269   3.643
10585TIP3    H231699   6.844   5.171   3.742
10586TIP3   OH231700   3.380   6.097   0.124
10586TIP3    H131701   3.382   6.129   0.034
10586TIP3    H231702   3.457   6.135   0.165
10587TIP3   OH231703   3.261   5.446   0.958
10587TIP3    H131704   3.186   5.477   0.908
10587TIP3    H231705   3.298   5.525   0.998
10588TIP3   OH231706   8.008   2.131   1.293
10588TIP3    H131707   7.942   2.170   1.350
10588TIP3    H231708   8.087   2.182   1.308
10589TIP3   OH231709   7.401   0.335   6.156
10589TIP3    H131710   7.471   0.332   6.222
10589TIP3    H231711   7.367   0.424   6.161
10590TIP3   OH231712   3.512   4.150   5.430
10590TIP3    H131713   3.436   4.207   5.425
10590TIP3    H231714   3.562   4.169   5.350
10591TIP3   OH231715   1.165   5.523   2.412
10591TIP3    H131716   1.227   5.467   2.364
10591TIP3    H231717   1.089   5.467   2.426
10592TIP3   OH231718   1.924   2.073   6.687
10592TIP3    H131719   2.009   2.098   6.649
10592TIP3    H231720   1.859   2.105   6.625
10593TIP3   OH231721   1.265   7.418   2.692
10593TIP3    H131722   1.340   7.474   2.716
10593TIP3    H231723   1.218   7.406   2.774
10594TIP3   OH231724   1.370   6.698   5.826
10594TIP3    H131725   1.364   6.611   5.787
10594TIP3    H231726   1.376   6.757   5.751
10595TIP3   OH231727   7.642   2.229   4.198
10595TIP3    H131728   7.722   2.187   4.169
10595TIP3    H231729   7.670   2.316   4.227
10596TIP3   OH231730   5.969   6.752   6.448
10596TIP3    H131731   5.874   6.736   6.442
10596TIP3    H231732   6.008   6.667   6.430
10597TIP3   OH231733   2.743   6.189   2.440
10597TIP3    H131734   2.831   6.226   2.427
10597TIP3    H231735   2.684   6.264   2.434
10598TIP3   OH231736   4.416   0.312   3.442
10598TIP3    H131737   4.465   0.303   3.524
10598TIP3    H231738   4.474   0.275   3.375
10599TIP3   OH231739   2.962   1.718   3.000
10599TIP3    H131740   3.022   1.792   2.993
10599TIP3    H231741   2.895   1.748   3.063
10600TIP3   OH231742   5.844   2.307   2.783
10600TIP3    H131743   5.802   2.223   2.803
10600TIP3    H231744   5.936   2.294   2.808
10601TIP3   OH231745   2.510   0.172   3.840
10601TIP3    H131746   2.416   0.185   3.851
10601TIP3    H231747   2.550   0.215   3.915
10602TIP3   OH231748   0.890   5.713   6.676
10602TIP3    H131749   0.890   5.771   6.600
10602TIP3    H231750   0.953   5.753   6.737
10603TIP3   OH231751   6.806   2.377   2.798
10603TIP3    H131752   6.824   2.400   2.707
10603TIP3    H231753   6.877   2.417   2.848
10604TIP3   OH231754   6.795   4.719   5.610
10604TIP3    H131755   6.890   4.720   5.594
10604TIP3    H231756   6.771   4.811   5.618
10605TIP3   OH231757   0.044   5.716   6.023
10605TIP3    H131758  -0.039   5.762   6.020
10605TIP3    H231759   0.109   5.780   5.993
10606TIP3   OH231760   2.794   5.001   2.806
10606TIP3    H131761   2.766   5.034   2.720
10606TIP3    H231762   2.752   5.059   2.869
10607TIP3   OH231763   2.504   7.489   0.355
10607TIP3    H131764   2.447   7.438   0.413
10607TIP3    H231765   2.579   7.512   0.410
10608TIP3   OH231766   1.715   3.662   0.998
10608TIP3    H131767   1.673   3.736   0.954
10608TIP3    H231768   1.808   3.683   0.998
10609TIP3   OH231769   5.321   2.666   5.618
10609TIP3    H131770   5.411   2.662   5.586
10609TIP3    H231771   5.320   2.606   5.693
10610TIP3   OH231772   1.491   2.968   1.483
10610TIP3    H131773   1.549   2.963   1.408
10610TIP3    H231774   1.546   2.944   1.558
10611TIP3   OH231775   8.094   2.482   5.631
10611TIP3    H131776   8.059   2.571   5.632
10611TIP3    H231777   8.027   2.431   5.587
10612TIP3   OH231778   0.569   7.567   3.918
10612TIP3    H131779   0.620   7.590   3.841
10612TIP3    H231780   0.631   7.576   3.991
10613TIP3   OH231781   5.642   6.502   0.986
10613TIP3    H131782   5.720   6.530   1.034
10613TIP3    H231783   5.608   6.583   0.948
10614TIP3   OH231784   3.939   4.780   4.046
10614TIP3    H131785   3.980   4.865   4.057
10614TIP3    H231786   3.910   4.756   4.134
10615TIP3   OH231787   4.438   7.226   3.874
10615TIP3    H131788   4.367   7.238   3.938
10615TIP3    H231789   4.392   7.206   3.792
10616TIP3   OH231790   6.125   4.227   4.935
10616TIP3    H131791   6.054   4.163   4.925
10616TIP3    H231792   6.097   4.283   5.007
10617TIP3   OH231793   6.892   6.463   4.821
10617TIP3    H131794   6.935   6.438   4.903
10617TIP3    H231795   6.926   6.401   4.757
10618TIP3   OH231796   1.867   3.307   1.048
10618TIP3    H131797   1.907   3.392   1.033
10618TIP3    H231798   1.819   3.289   0.968
10619TIP3   OH231799   2.005   2.704   3.723
10619TIP3    H131800   2.029   2.790   3.689
10619TIP3    H231801   1.916   2.715   3.756
10620TIP3   OH231802   0.481   4.247   4.984
10620TIP3    H131803   0.509   4.157   4.998
10620TIP3    H231804   0.529   4.276   4.907
10621TIP3   OH231805   1.980   1.797   1.726
10621TIP3    H131806   1.958   1.755   1.810
10621TIP3    H231807   1.905   1.778   1.670
10622TIP3   OH231808   8.272   1.222   6.337
10622TIP3    H131809   8.194   1.206   6.284
10622TIP3    H231810   8.313   1.298   6.296
10623TIP3   OH231811   4.808   5.385   3.066
10623TIP3    H131812   4.807   5.480   3.071
10623TIP3    H231813   4.865   5.365   2.992
10624TIP3   OH231814   6.974   1.233   3.654
10624TIP3    H131815   6.887   1.194   3.654
10624TIP3    H231816   7.001   1.232   3.745
10625TIP3   OH231817   3.098   0.399   1.882
10625TIP3    H131818   3.082   0.483   1.926
10625TIP3    H231819   3.187   0.407   1.848
10626TIP3   OH231820   0.715   2.295   3.697
10626TIP3    H131821   0.760   2.228   3.645
10626TIP3    H231822   0.745   2.280   3.787
10627TIP3   OH231823   3.982   4.883   3.214
10627TIP3    H131824   4.029   4.933   3.147
10627TIP3    H231825   3.970   4.945   3.286
10628TIP3   OH231826   7.270   1.230   4.934
10628TIP3    H131827   7.321   1.200   4.859
10628TIP3    H231828   7.277   1.160   4.998
10629TIP3   OH231829   8.173   6.550   3.448
10629TIP3    H131830   8.207   6.460   3.446
10629TIP3    H231831   8.111   6.554   3.376
10630TIP3   OH231832   3.653   1.661   0.462
10630TIP3    H131833   3.628   1.749   0.435
10630TIP3    H231834   3.711   1.674   0.538
10631TIP3   OH231835   8.011   6.703   0.662
10631TIP3    H131836   8.095   6.729   0.701
10631TIP3    H231837   8.035   6.640   0.594
10632TIP3   OH231838   4.273   6.749   3.015
10632TIP3    H131839   4.349   6.715   2.969
10632TIP3    H231840   4.306   6.824   3.064
10633TIP3   OH231841   3.449   4.406   4.780
10633TIP3    H131842   3.385   4.391   4.711
10633TIP3    H231843   3.532   4.377   4.743
10634TIP3   OH231844   2.049   6.091   6.063
10634TIP3    H131845   2.074   6.014   6.115
10634TIP3    H231846   1.978   6.131   6.112
10635TIP3   OH231847   1.030   0.380   4.808
10635TIP3    H131848   0.975   0.458   4.819
10635TIP3    H231849   1.093   0.385   4.880
10636TIP3   OH231850   2.385   7.322   0.127
10636TIP3    H131851   2.358   7.302   0.217
10636TIP3    H231852   2.436   7.403   0.135
10637TIP3   OH231853   5.283   0.359   2.644
10637TIP3    H131854   5.345   0.433   2.644
10637TIP3    H231855   5.258   0.349   2.736
10638TIP3   OH231856   0.993   2.506   6.741
10638TIP3    H131857   1.057   2.480   6.674
10638TIP3    H231858   1.036   2.577   6.788
10639TIP3   OH231859   3.239   2.225   4.001
10639TIP3    H131860   3.170   2.282   4.035
10639TIP3    H231861   3.225   2.141   4.043
10640TIP3   OH231862   7.595   0.872   5.850
10640TIP3    H131863   7.543   0.922   5.914
10640TIP3    H231864   7.530   0.819   5.803
10641TIP3   OH231865   0.509   4.202   6.671
10641TIP3    H131866   0.499   4.211   6.765
10641TIP3    H231867   0.604   4.203   6.657
10642TIP3   OH231868   5.136   6.017   6.021
10642TIP3    H131869   5.105   6.084   5.959
10642TIP3    H231870   5.136   5.936   5.970
10643TIP3   OH231871   7.945   3.678   1.505
10643TIP3    H131872   7.992   3.757   1.476
10643TIP3    H231873   8.013   3.611   1.511
10644TIP3   OH231874   3.354   2.907   1.256
10644TIP3    H131875   3.354   2.954   1.172
10644TIP3    H231876   3.380   2.818   1.233
10645TIP3   OH231877   0.642   0.953   6.662
10645TIP3    H131878   0.576   0.922   6.601
10645TIP3    H231879   0.677   0.873   6.702
10646TIP3   OH231880   4.011   4.434   2.985
10646TIP3    H131881   3.968   4.519   2.997
10646TIP3    H231882   3.941   4.377   2.954
10647TIP3   OH231883   4.054   1.315   3.586
10647TIP3    H131884   4.135   1.362   3.569
10647TIP3    H231885   3.994   1.382   3.619
10648TIP3   OH231886   5.618   2.402   3.303
10648TIP3    H131887   5.623   2.409   3.208
10648TIP3    H231888   5.524   2.390   3.321
10649TIP3   OH231889   1.890   3.322   4.080
10649TIP3    H131890   1.846   3.406   4.067
10649TIP3    H231891   1.846   3.283   4.156
10650TIP3   OH231892   2.127   1.208   1.639
10650TIP3    H131893   2.040   1.229   1.606
10650TIP3    H231894   2.113   1.130   1.693
10651TIP3   OH231895   1.817   0.544   2.899
10651TIP3    H131896   1.836   0.637   2.904
10651TIP3    H231897   1.725   0.540   2.872
10652TIP3   OH231898   4.905   1.157   2.440
10652TIP3    H131899   4.858   1.105   2.376
10652TIP3    H231900   4.953   1.093   2.493
10653TIP3   OH231901   1.314   1.865   1.954
10653TIP3    H131902   1.230   1.909   1.970
10653TIP3    H231903   1.374   1.935   1.931
10654TIP3   OH231904   4.612   3.285   1.546
10654TIP3    H131905   4.694   3.237   1.547
10654TIP3    H231906   4.637   3.377   1.550
10655TIP3   OH231907   7.554   7.858   5.228
10655TIP3    H131908   7.592   7.843   5.141
10655TIP3    H231909   7.572   7.777   5.276
10656TIP3   OH231910   6.070   4.708   2.383
10656TIP3    H131911   6.083   4.803   2.381
10656TIP3    H231912   5.985   4.696   2.427
10657TIP3   OH231913   7.725   6.039   5.795
10657TIP3    H131914   7.803   6.051   5.850
10657TIP3    H231915   7.692   5.952   5.819
10658TIP3   OH231916   0.814   3.776   5.649
10658TIP3    H131917   0.757   3.710   5.612
10658TIP3    H231918   0.767   3.810   5.725
10659TIP3   OH231919   8.224   2.557   4.051
10659TIP3    H131920   8.201   2.614   4.124
10659TIP3    H231921   8.241   2.618   3.978
10660TIP3   OH231922   3.442   2.827   5.958
10660TIP3    H131923   3.452   2.776   5.877
10660TIP3    H231924   3.519   2.804   6.010
10661TIP3   OH231925   6.127   3.402   2.546
10661TIP3    H131926   6.035   3.395   2.520
10661TIP3    H231927   6.176   3.394   2.464
10662TIP3   OH231928   3.504   3.852   3.910
10662TIP3    H131929   3.488   3.767   3.870
10662TIP3    H231930   3.420   3.875   3.952
10663TIP3   OH231931   5.658   1.686   5.255
10663TIP3    H131932   5.668   1.633   5.334
10663TIP3    H231933   5.698   1.633   5.186
10664TIP3   OH231934   2.598   5.844   6.073
10664TIP3    H131935   2.607   5.887   6.158
10664TIP3    H231936   2.521   5.885   6.034
10665TIP3   OH231937   6.776   5.478   5.358
10665TIP3    H131938   6.850   5.418   5.364
10665TIP3    H231939   6.805   5.557   5.405
10666TIP3   OH231940   8.214   1.431   5.967
10666TIP3    H131941   8.286   1.480   6.007
10666TIP3    H231942   8.201   1.471   5.882
10667TIP3   OH231943   2.379   1.193   1.732
10667TIP3    H131944   2.287   1.173   1.715
10667TIP3    H231945   2.427   1.135   1.673
10668TIP3   OH231946   5.888   0.223   1.544
10668TIP3    H131947   5.971   0.180   1.561
10668TIP3    H231948   5.830   0.153   1.514
10669TIP3   OH231949   7.263   0.765   4.058
10669TIP3    H131950   7.186   0.802   4.102
10669TIP3    H231951   7.317   0.840   4.035
10670TIP3   OH231952   3.389   5.046   5.103
10670TIP3    H131953   3.441   5.105   5.158
10670TIP3    H231954   3.329   5.004   5.165
10671TIP3   OH231955   6.258   5.915   0.421
10671TIP3    H131956   6.311   5.843   0.455
10671TIP3    H231957   6.261   5.904   0.326
10672TIP3   OH231958   7.830   3.379   3.625
10672TIP3    H131959   7.875   3.295   3.621
10672TIP3    H231960   7.887   3.434   3.678
10673TIP3   OH231961   1.293   0.769   1.184
10673TIP3    H131962   1.268   0.859   1.204
10673TIP3    H231963   1.359   0.777   1.115
10674TIP3   OH231964   0.533   4.438   0.129
10674TIP3    H131965   0.558   4.384   0.054
10674TIP3    H231966   0.526   4.375   0.201
10675TIP3   OH231967   1.267   5.168   3.444
10675TIP3    H131968   1.360   5.192   3.448
10675TIP3    H231969   1.263   5.098   3.379
10676TIP3   OH231970   5.245   3.177   3.666
10676TIP3    H131971   5.270   3.187   3.574
10676TIP3    H231972   5.164   3.225   3.674
10677TIP3   OH231973   3.210   6.360   6.732
10677TIP3    H131974   3.242   6.330   6.816
10677TIP3    H231975   3.211   6.456   6.738
10678TIP3   OH231976   1.660   7.486   2.785
10678TIP3    H131977   1.750   7.462   2.765
10678TIP3    H231978   1.607   7.427   2.732
10679TIP3   OH231979   6.992   6.368   1.053
10679TIP3    H131980   6.909   6.329   1.029
10679TIP3    H231981   7.029   6.398   0.969
10680TIP3   OH231982   6.575   3.137   4.143
10680TIP3    H131983   6.656   3.119   4.190
10680TIP3    H231984   6.589   3.102   4.055
10681TIP3   OH231985   6.479   3.402   6.138
10681TIP3    H131986   6.422   3.462   6.089
10681TIP3    H231987   6.567   3.429   6.114
10682TIP3   OH231988   5.734   3.455   2.124
10682TIP3    H131989   5.745   3.373   2.075
10682TIP3    H231990   5.800   3.451   2.192
10683TIP3   OH231991   0.168   3.054   5.757
10683TIP3    H131992   0.239   3.005   5.799
10683TIP3    H231993   0.212   3.119   5.702
10684TIP3   OH231994   7.082   4.304   0.792
10684TIP3    H131995   6.991   4.329   0.812
10684TIP3    H231996   7.135   4.367   0.840
10685TIP3   OH231997   0.056   2.482   0.506
10685TIP3    H131998   0.071   2.387   0.507
10685TIP3    H231999   0.121   2.515   0.444
10686TIP3   OH232000   2.582   0.552   1.546
10686TIP3    H132001   2.493   0.583   1.565
10686TIP3    H232002   2.587   0.467   1.589
10687TIP3   OH232003   2.623   1.014   3.443
10687TIP3    H132004   2.710   1.042   3.473
10687TIP3    H232005   2.640   0.936   3.390
10688TIP3   OH232006   3.485   0.437   3.726
10688TIP3    H132007   3.561   0.494   3.716
10688TIP3    H232008   3.520   0.354   3.758
10689TIP3   OH232009   0.592   0.666   3.627
10689TIP3    H132010   0.522   0.656   3.692
10689TIP3    H232011   0.593   0.759   3.606
10690TIP3   OH232012   2.492   5.232   6.689
10690TIP3    H132013   2.567   5.174   6.677
10690TIP3    H232014   2.421   5.174   6.716
10691TIP3   OH232015   0.880   4.197   5.981
10691TIP3    H132016   0.934   4.118   5.994
10691TIP3    H232017   0.879   4.240   6.066
10692TIP3   OH232018   3.991   1.810   5.100
10692TIP3    H132019   3.923   1.755   5.139
10692TIP3    H232020   3.960   1.900   5.114
10693TIP3   OH232021   7.983   4.598   6.545
10693TIP3    H132022   7.901   4.646   6.553
10693TIP3    H232023   8.044   4.661   6.505
10694TIP3   OH232024   7.434   3.556   5.375
10694TIP3    H132025   7.408   3.527   5.288
10694TIP3    H232026   7.499   3.625   5.359
10695TIP3   OH232027   7.077   5.297   0.416
10695TIP3    H132028   7.162   5.272   0.382
10695TIP3    H232029   7.054   5.377   0.368
10696TIP3   OH232030   5.063   5.834   4.453
10696TIP3    H132031   4.978   5.828   4.408
10696TIP3    H232032   5.125   5.855   4.384
10697TIP3   OH232033   7.094   6.713   3.939
10697TIP3    H132034   7.055   6.703   3.852
10697TIP3    H232035   7.058   6.641   3.990
10698TIP3   OH232036   8.150   1.033   0.499
10698TIP3    H132037   8.096   0.987   0.434
10698TIP3    H232038   8.240   1.018   0.470
10699TIP3   OH232039   6.427   5.914   5.260
10699TIP3    H132040   6.485   5.981   5.299
10699TIP3    H232041   6.339   5.952   5.268
10700TIP3   OH232042   5.879   2.224   0.981
10700TIP3    H132043   5.970   2.250   0.969
10700TIP3    H232044   5.868   2.218   1.076
10701TIP3   OH232045   3.530   7.715   3.716
10701TIP3    H132046   3.485   7.752   3.793
10701TIP3    H232047   3.609   7.769   3.707
10702TIP3   OH232048   1.414   7.251  -0.002
10702TIP3    H132049   1.505   7.276   0.013
10702TIP3    H232050   1.365   7.297   0.066
10703TIP3   OH232051   6.087   5.845   1.835
10703TIP3    H132052   6.016   5.910   1.839
10703TIP3    H232053   6.120   5.841   1.925
10704TIP3   OH232054   1.527   5.117   2.833
10704TIP3    H132055   1.581   5.133   2.910
10704TIP3    H232056   1.462   5.188   2.833
10705TIP3   OH232057   6.986   5.165   3.438
10705TIP3    H132058   6.980   5.075   3.407
10705TIP3    H232059   6.933   5.166   3.518
10706TIP3   OH232060   7.163   3.569   1.749
10706TIP3    H132061   7.241   3.619   1.726
10706TIP3    H232062   7.197   3.483   1.776
10707TIP3   OH232063   2.368   5.406   6.142
10707TIP3    H132064   2.359   5.373   6.232
10707TIP3    H232065   2.279   5.415   6.111
10708TIP3   OH232066   7.684   3.953   3.992
10708TIP3    H132067   7.632   4.026   4.028
10708TIP3    H232068   7.645   3.875   4.030
10709TIP3   OH232069   1.956   3.270   4.571
10709TIP3    H132070   1.969   3.230   4.657
10709TIP3    H232071   1.936   3.196   4.514
10710TIP3   OH232072   4.393   3.942   3.206
10710TIP3    H132073   4.374   4.030   3.173
10710TIP3    H232074   4.478   3.951   3.249
10711TIP3   OH232075   3.191   2.344   3.184
10711TIP3    H132076   3.239   2.422   3.157
10711TIP3    H232077   3.250   2.298   3.243
10712TIP3   OH232078   3.924   7.618   3.085
10712TIP3    H132079   4.005   7.665   3.104
10712TIP3    H232080   3.926   7.542   3.143
10713TIP3   OH232081   4.253   1.194   1.408
10713TIP3    H132082   4.163   1.162   1.406
10713TIP3    H232083   4.275   1.199   1.501
10714TIP3   OH232084   0.806   0.082   1.622
10714TIP3    H132085   0.834   0.009   1.678
10714TIP3    H232086   0.797   0.156   1.682
10715TIP3   OH232087   2.624   2.106   6.774
10715TIP3    H132088   2.645   2.055   6.852
10715TIP3    H232089   2.533   2.086   6.755
10716TIP3   OH232090   2.659   0.577   5.555
10716TIP3    H132091   2.616   0.495   5.530
10716TIP3    H232092   2.613   0.604   5.634
10717TIP3   OH232093   7.969   6.291   4.599
10717TIP3    H132094   7.916   6.266   4.523
10717TIP3    H232095   8.022   6.364   4.568
10718TIP3   OH232096   3.382   5.420   6.842
10718TIP3    H132097   3.360   5.455   6.756
10718TIP3    H232098   3.454   5.358   6.826
10719TIP3   OH232099   0.252   4.706   4.468
10719TIP3    H132100   0.321   4.760   4.429
10719TIP3    H232101   0.232   4.749   4.551
10720TIP3   OH232102   4.087   7.054   1.648
10720TIP3    H132103   4.176   7.069   1.680
10720TIP3    H232104   4.079   7.110   1.571
10721TIP3   OH232105   6.607   0.300   0.657
10721TIP3    H132106   6.570   0.327   0.573
10721TIP3    H232107   6.603   0.204   0.655
10722TIP3   OH232108   5.279   5.404   5.174
10722TIP3    H132109   5.240   5.362   5.251
10722TIP3    H232110   5.331   5.336   5.133
10723TIP3   OH232111   0.075   3.421   3.415
10723TIP3    H132112   0.079   3.394   3.323
10723TIP3    H232113   0.067   3.339   3.463
10724TIP3   OH232114   4.137   1.881   1.204
10724TIP3    H132115   4.150   1.872   1.298
10724TIP3    H232116   4.196   1.815   1.166
10725TIP3   OH232117   7.062   4.813   1.249
10725TIP3    H132118   7.044   4.729   1.208
10725TIP3    H232119   7.009   4.813   1.328
10726TIP3   OH232120   1.256   4.521   4.982
10726TIP3    H132121   1.345   4.552   4.969
10726TIP3    H232122   1.266   4.427   5.001
10727TIP3   OH232123   6.054   1.859   2.632
10727TIP3    H132124   6.026   1.838   2.721
10727TIP3    H232125   6.033   1.781   2.581
10728TIP3   OH232126   7.542   3.915   0.689
10728TIP3    H132127   7.506   3.831   0.717
10728TIP3    H232128   7.632   3.914   0.721
10729TIP3   OH232129   2.713   3.211   5.559
10729TIP3    H132130   2.651   3.163   5.504
10729TIP3    H232131   2.743   3.147   5.623
10730TIP3   OH232132   7.925   0.738   5.352
10730TIP3    H132133   7.967   0.816   5.388
10730TIP3    H232134   7.947   0.740   5.259
10731TIP3   OH232135   0.589   1.605   4.330
10731TIP3    H132136   0.610   1.544   4.260
10731TIP3    H232137   0.544   1.552   4.396
10732TIP3   OH232138   1.378   4.128   1.360
10732TIP3    H132139   1.466   4.118   1.395
10732TIP3    H232140   1.373   4.066   1.287
10733TIP3   OH232141   6.481   0.924   6.311
10733TIP3    H132142   6.555   0.983   6.297
10733TIP3    H232143   6.520   0.837   6.308
10734TIP3   OH232144   1.974   4.831   5.214
10734TIP3    H132145   1.921   4.908   5.198
10734TIP3    H232146   2.052   4.864   5.259
10735TIP3   OH232147   6.182   4.089   2.278
10735TIP3    H132148   6.225   4.095   2.364
10735TIP3    H232149   6.251   4.060   2.219
10736TIP3   OH232150   7.838   0.443   6.231
10736TIP3    H132151   7.903   0.391   6.278
10736TIP3    H232152   7.754   0.414   6.266
10737TIP3   OH232153   3.854   7.184   0.862
10737TIP3    H132154   3.859   7.269   0.905
10737TIP3    H232155   3.775   7.190   0.808
10738TIP3   OH232156   5.821   6.848   1.433
10738TIP3    H132157   5.791   6.902   1.506
10738TIP3    H232158   5.821   6.759   1.468
10739TIP3   OH232159   7.178   4.840   2.585
10739TIP3    H132160   7.194   4.755   2.543
10739TIP3    H232161   7.112   4.821   2.652
10740TIP3   OH232162   0.856   6.499   3.516
10740TIP3    H132163   0.893   6.587   3.515
10740TIP3    H232164   0.932   6.441   3.511
10741TIP3   OH232165   6.315   7.146   6.710
10741TIP3    H132166   6.342   7.170   6.622
10741TIP3    H232167   6.320   7.050   6.711
10742TIP3   OH232168   3.989   6.779   1.300
10742TIP3    H132169   3.959   6.688   1.312
10742TIP3    H232170   4.061   6.788   1.362
10743TIP3   OH232171   5.809   0.304   2.896
10743TIP3    H132172   5.782   0.273   2.983
10743TIP3    H232173   5.868   0.377   2.913
10744TIP3   OH232174   3.308   4.257   3.740
10744TIP3    H132175   3.299   4.270   3.645
10744TIP3    H232176   3.394   4.292   3.761
10745TIP3   OH232177   4.579   2.887   3.939
10745TIP3    H132178   4.593   2.964   3.884
10745TIP3    H232179   4.613   2.912   4.025
10746TIP3   OH232180   6.743   6.805   2.985
10746TIP3    H132181   6.812   6.767   2.930
10746TIP3    H232182   6.787   6.830   3.066
10747TIP3   OH232183   6.794   1.410   6.500
10747TIP3    H132184   6.755   1.409   6.588
10747TIP3    H232185   6.786   1.500   6.471
10748TIP3   OH232186   0.410   1.767   4.178
10748TIP3    H132187   0.442   1.705   4.244
10748TIP3    H232188   0.315   1.767   4.191
10749TIP3   OH232189   2.097   4.627   3.715
10749TIP3    H132190   2.058   4.678   3.786
10749TIP3    H232191   2.025   4.614   3.653
10750TIP3   OH232192   3.495   0.140   0.789
10750TIP3    H132193   3.556   0.160   0.718
10750TIP3    H232194   3.525   0.057   0.824
10751TIP3   OH232195   2.295   6.716   0.664
10751TIP3    H132196   2.351   6.766   0.605
10751TIP3    H232197   2.206   6.733   0.633
10752TIP3   OH232198   6.469   0.366   1.300
10752TIP3    H132199   6.464   0.404   1.212
10752TIP3    H232200   6.496   0.438   1.356
10753TIP3   OH232201   8.174   4.686   5.948
10753TIP3    H132202   8.145   4.615   5.891
10753TIP3    H232203   8.162   4.651   6.037
10754TIP3   OH232204   5.140   2.426   2.944
10754TIP3    H132205   5.215   2.441   2.887
10754TIP3    H232206   5.163   2.471   3.026
10755TIP3   OH232207   3.500   6.708   4.165
10755TIP3    H132208   3.499   6.710   4.261
10755TIP3    H232209   3.458   6.791   4.140
10756TIP3   OH232210   6.853   7.608   4.940
10756TIP3    H132211   6.863   7.614   4.845
10756TIP3    H232212   6.873   7.517   4.962
10757TIP3   OH232213   4.348   0.378   3.062
10757TIP3    H132214   4.421   0.434   3.090
10757TIP3    H232215   4.330   0.324   3.139
10758TIP3   OH232216   8.118   4.063   6.761
10758TIP3    H132217   8.197   4.009   6.762
10758TIP3    H232218   8.148   4.150   6.738
10759TIP3   OH232219   5.791   1.674   2.292
10759TIP3    H132220   5.849   1.608   2.330
10759TIP3    H232221   5.705   1.655   2.329
10760TIP3   OH232222   6.442   4.792   2.095
10760TIP3    H132223   6.366   4.738   2.077
10760TIP3    H232224   6.429   4.823   2.185
10761TIP3   OH232225   3.092   2.288   4.337
10761TIP3    H132226   3.117   2.367   4.290
10761TIP3    H232227   2.999   2.299   4.357
10762TIP3   OH232228   3.030   1.175   1.251
10762TIP3    H132229   3.105   1.122   1.222
10762TIP3    H232230   2.958   1.113   1.257
10763TIP3   OH232231   3.632   1.857   6.787
10763TIP3    H132232   3.667   1.841   6.699
10763TIP3    H232233   3.695   1.915   6.828
10764TIP3   OH232234   0.296   5.680   3.748
10764TIP3    H132235   0.335   5.745   3.690
10764TIP3    H232236   0.369   5.649   3.802
10765TIP3   OH232237   6.941   2.772   0.848
10765TIP3    H132238   6.899   2.848   0.809
10765TIP3    H232239   7.032   2.798   0.860
10766TIP3   OH232240   1.874   7.132   1.177
10766TIP3    H132241   1.860   7.187   1.254
10766TIP3    H232242   1.786   7.104   1.152
10767TIP3   OH232243   6.474   0.661   5.664
10767TIP3    H132244   6.472   0.654   5.569
10767TIP3    H232245   6.542   0.600   5.691
10768TIP3   OH232246   4.509   7.300   6.327
10768TIP3    H132247   4.474   7.319   6.240
10768TIP3    H232248   4.436   7.258   6.373
10769TIP3   OH232249   1.209   5.273   4.780
10769TIP3    H132250   1.209   5.231   4.694
10769TIP3    H232251   1.235   5.203   4.841
10770TIP3   OH232252   1.825   6.643   0.160
10770TIP3    H132253   1.892   6.640   0.092
10770TIP3    H232254   1.860   6.588   0.231
10771TIP3   OH232255   2.416   4.040   1.756
10771TIP3    H132256   2.436   4.003   1.842
10771TIP3    H232257   2.371   4.122   1.775
10772TIP3   OH232258   2.815   4.619   0.175
10772TIP3    H132259   2.847   4.700   0.135
10772TIP3    H232260   2.805   4.641   0.268
10773TIP3   OH232261   1.504   6.787   1.943
10773TIP3    H132262   1.597   6.804   1.927
10773TIP3    H232263   1.496   6.692   1.934
10774TIP3   OH232264   1.439   4.202   5.879
10774TIP3    H132265   1.513   4.206   5.940
10774TIP3    H232266   1.426   4.292   5.851
10775TIP3   OH232267   0.913   3.595   0.822
10775TIP3    H132268   0.834   3.640   0.792
10775TIP3    H232269   0.968   3.589   0.745
10776TIP3   OH232270   1.814   3.137   1.731
10776TIP3    H132271   1.878   3.152   1.801
10776TIP3    H232272   1.866   3.122   1.653
10777TIP3   OH232273   3.079   5.284   5.406
10777TIP3    H132274   3.096   5.271   5.313
10777TIP3    H232275   3.017   5.357   5.409
10778TIP3   OH232276   2.269   3.764   3.802
10778TIP3    H132277   2.214   3.743   3.727
10778TIP3    H232278   2.213   3.818   3.858
10779TIP3   OH232279   6.487   1.870   6.164
10779TIP3    H132280   6.475   1.792   6.217
10779TIP3    H232281   6.449   1.847   6.079
10780TIP3   OH232282   7.819   0.450   5.547
10780TIP3    H132283   7.782   0.364   5.525
10780TIP3    H232284   7.785   0.470   5.634
10781TIP3   OH232285   1.903   4.949   6.241
10781TIP3    H132286   1.861   4.909   6.316
10781TIP3    H232287   1.871   5.039   6.240
10782TIP3   OH232288   7.814   3.461   1.989
10782TIP3    H132289   7.877   3.502   1.930
10782TIP3    H232290   7.868   3.423   2.059
10783TIP3   OH232291   1.759   5.734   2.089
10783TIP3    H132292   1.677   5.732   2.040
10783TIP3    H232293   1.765   5.823   2.123
10784TIP3   OH232294   3.573   6.436   5.531
10784TIP3    H132295   3.666   6.455   5.521
10784TIP3    H232296   3.530   6.496   5.470
10785TIP3   OH232297   6.814   1.220   5.885
10785TIP3    H132298   6.804   1.211   5.790
10785TIP3    H232299   6.756   1.153   5.921
10786TIP3   OH232300   1.036   0.588   4.294
10786TIP3    H132301   0.952   0.552   4.266
10786TIP3    H232302   1.091   0.583   4.215
10787TIP3   OH232303   6.704   1.267   2.678
10787TIP3    H132304   6.743   1.268   2.591
10787TIP3    H232305   6.626   1.212   2.669
10788TIP3   OH232306   2.489   4.429   2.872
10788TIP3    H132307   2.456   4.501   2.926
10788TIP3    H232308   2.581   4.420   2.898
10789TIP3   OH232309   8.301   1.608   1.090
10789TIP3    H132310   8.389   1.577   1.110
10789TIP3    H232311   8.254   1.529   1.064
10790TIP3   OH232312   6.328   1.518   4.395
10790TIP3    H132313   6.379   1.543   4.472
10790TIP3    H232314   6.393   1.512   4.324
10791TIP3   OH232315   5.815   7.849   2.599
10791TIP3    H132316   5.812   7.808   2.685
10791TIP3    H232317   5.855   7.783   2.542
10792TIP3   OH232318   6.928   4.804   3.053
10792TIP3    H132319   7.015   4.820   3.017
10792TIP3    H232320   6.930   4.713   3.082
10793TIP3   OH232321   7.355   1.945   5.379
10793TIP3    H132322   7.334   1.865   5.331
10793TIP3    H232323   7.278   1.961   5.433
10794TIP3   OH232324   7.335   3.443   5.120
10794TIP3    H132325   7.355   3.352   5.100
10794TIP3    H232326   7.248   3.457   5.082
10795TIP3   OH232327   7.168   5.265   2.918
10795TIP3    H132328   7.257   5.285   2.947
10795TIP3    H232329   7.179   5.196   2.852
10796TIP3   OH232330   4.468   5.819   5.582
10796TIP3    H132331   4.464   5.749   5.517
10796TIP3    H232332   4.557   5.852   5.577
10797TIP3   OH232333   4.075   2.279   3.743
10797TIP3    H132334   4.077   2.184   3.751
10797TIP3    H232335   3.987   2.304   3.772
10798TIP3   OH232336   4.707   3.551   5.073
10798TIP3    H132337   4.646   3.589   5.137
10798TIP3    H232338   4.650   3.506   5.011
10799TIP3   OH232339   0.244   1.558   3.650
10799TIP3    H132340   0.265   1.478   3.602
10799TIP3    H232341   0.263   1.536   3.742
10800TIP3   OH232342   2.531   1.369   5.353
10800TIP3    H132343   2.605   1.325   5.393
10800TIP3    H232344   2.454   1.330   5.393
10801TIP3   OH232345   2.438   0.288   3.325
10801TIP3    H132346   2.436   0.237   3.406
10801TIP3    H232347   2.427   0.222   3.256
10802TIP3   OH232348   8.310   6.306   4.465
10802TIP3    H132349   8.338   6.328   4.376
10802TIP3    H232350   8.389   6.275   4.508
10803TIP3   OH232351   5.230   5.749   1.237
10803TIP3    H132352   5.285   5.710   1.168
10803TIP3    H232353   5.234   5.685   1.308
10804TIP3   OH232354   7.370   3.740   3.010
10804TIP3    H132355   7.321   3.757   2.930
10804TIP3    H232356   7.385   3.645   3.009
10805TIP3   OH232357   4.664   5.393   6.342
10805TIP3    H132358   4.582   5.408   6.389
10805TIP3    H232359   4.695   5.309   6.375
10806TIP3   OH232360   7.760   0.597   4.714
10806TIP3    H132361   7.810   0.674   4.688
10806TIP3    H232362   7.817   0.523   4.692
10807TIP3   OH232363   3.605   2.243   0.140
10807TIP3    H132364   3.673   2.202   0.088
10807TIP3    H232365   3.542   2.173   0.158
10808TIP3   OH232366   6.633   2.637   2.357
10808TIP3    H132367   6.607   2.726   2.383
10808TIP3    H232368   6.550   2.589   2.352
10809TIP3   OH232369   6.549   7.446   3.326
10809TIP3    H132370   6.548   7.542   3.326
10809TIP3    H232371   6.606   7.422   3.398
10810TIP3   OH232372   3.484   5.080   2.783
10810TIP3    H132373   3.436   5.142   2.728
10810TIP3    H232374   3.560   5.129   2.814
10811TIP3   OH232375   1.374   5.850   0.042
10811TIP3    H132376   1.383   5.841   0.137
10811TIP3    H232377   1.402   5.766   0.007
10812TIP3   OH232378   8.037   5.134   3.609
10812TIP3    H132379   8.086   5.125   3.691
10812TIP3    H232380   8.104   5.130   3.540
10813TIP3   OH232381   4.292   2.557   2.738
10813TIP3    H132382   4.309   2.485   2.677
10813TIP3    H232383   4.303   2.518   2.825
10814TIP3   OH232384   4.562   4.909   3.535
10814TIP3    H132385   4.590   4.873   3.451
10814TIP3    H232386   4.610   4.858   3.600
10815TIP3   OH232387   1.700   2.328   2.671
10815TIP3    H132388   1.667   2.331   2.581
10815TIP3    H232389   1.635   2.276   2.718
10816TIP3   OH232390   7.108   6.902   2.728
10816TIP3    H132391   7.194   6.943   2.738
10816TIP3    H232392   7.090   6.906   2.634
10817TIP3   OH232393   4.888   7.256   4.175
10817TIP3    H132394   4.815   7.264   4.114
10817TIP3    H232395   4.904   7.162   4.181
10818TIP3   OH232396   4.215   5.662   4.522
10818TIP3    H132397   4.165   5.622   4.451
10818TIP3    H232398   4.264   5.590   4.562
10819TIP3   OH232399   5.765   5.480   3.982
10819TIP3    H132400   5.737   5.540   4.051
10819TIP3    H232401   5.684   5.458   3.935
10820TIP3   OH232402   3.761   5.496   0.671
10820TIP3    H132403   3.806   5.566   0.624
10820TIP3    H232404   3.672   5.529   0.685
10821TIP3   OH232405   0.298   4.199   2.826
10821TIP3    H132406   0.329   4.144   2.899
10821TIP3    H232407   0.203   4.203   2.837
10822TIP3   OH232408   2.392   3.527   1.807
10822TIP3    H132409   2.374   3.451   1.753
10822TIP3    H232410   2.378   3.602   1.749
10823TIP3   OH232411   8.054   1.945   5.406
10823TIP3    H132412   8.042   1.856   5.372
10823TIP3    H232413   8.059   2.000   5.328
10824TIP3   OH232414   0.963   4.930   1.734
10824TIP3    H132415   0.984   4.838   1.720
10824TIP3    H232416   0.967   4.941   1.829
10825TIP3   OH232417   5.136   7.717   2.513
10825TIP3    H132418   5.142   7.691   2.422
10825TIP3    H232419   5.223   7.752   2.534
10826TIP3   OH232420   7.471   3.578   0.712
10826TIP3    H132421   7.546   3.575   0.652
10826TIP3    H232422   7.404   3.524   0.670
10827TIP3   OH232423   5.083   4.335   5.644
10827TIP3    H132424   5.041   4.250   5.658
10827TIP3    H232425   5.073   4.352   5.551
10828TIP3   OH232426   2.389   0.373   4.953
10828TIP3    H132427   2.379   0.352   5.046
10828TIP3    H232428   2.342   0.456   4.942
10829TIP3   OH232429   1.751   4.045   2.348
10829TIP3    H132430   1.668   4.069   2.390
10829TIP3    H232431   1.816   4.049   2.418
10830TIP3   OH232432   1.080   6.671   0.674
10830TIP3    H132433   1.138   6.626   0.613
10830TIP3    H232434   0.999   6.685   0.626
10831TIP3   OH232435   4.736   1.890   3.664
10831TIP3    H132436   4.714   1.817   3.723
10831TIP3    H232437   4.777   1.955   3.721
10832TIP3   OH232438   5.492   7.161   1.846
10832TIP3    H132439   5.405   7.195   1.824
10832TIP3    H232440   5.476   7.105   1.922
10833TIP3   OH232441   4.572   6.240   6.600
10833TIP3    H132442   4.516   6.252   6.677
10833TIP3    H232443   4.578   6.145   6.589
10834TIP3   OH232444   3.692   1.600   1.146
10834TIP3    H132445   3.784   1.604   1.172
10834TIP3    H232446   3.675   1.506   1.135
10835TIP3   OH232447   0.647   4.787   3.264
10835TIP3    H132448   0.553   4.775   3.276
10835TIP3    H232449   0.655   4.849   3.192
10836TIP3   OH232450   6.109   0.316   3.157
10836TIP3    H132451   6.198   0.349   3.166
10836TIP3    H232452   6.056   0.393   3.137
10837TIP3   OH232453   8.009   6.652   6.703
10837TIP3    H132454   7.997   6.627   6.795
10837TIP3    H232455   8.102   6.671   6.695
10838TIP3   OH232456   2.442   4.670   2.997
10838TIP3    H132457   2.491   4.629   3.068
10838TIP3    H232458   2.384   4.733   3.040
10839TIP3   OH232459   1.482   3.538   0.203
10839TIP3    H132460   1.529   3.599   0.147
10839TIP3    H232461   1.393   3.538   0.168
10840TIP3   OH232462   0.078   7.323   0.425
10840TIP3    H132463   0.116   7.374   0.496
10840TIP3    H232464   0.013   7.267   0.467
10841TIP3   OH232465   4.257   7.142   2.214
10841TIP3    H132466   4.192   7.107   2.276
10841TIP3    H232467   4.305   7.065   2.184
10842TIP3   OH232468   1.302   2.766   1.382
10842TIP3    H132469   1.367   2.830   1.411
10842TIP3    H232470   1.223   2.818   1.367
10843TIP3   OH232471   8.193   6.588   3.794
10843TIP3    H132472   8.214   6.494   3.789
10843TIP3    H232473   8.257   6.623   3.856
10844TIP3   OH232474   8.086   1.207   5.996
10844TIP3    H132475   8.100   1.138   5.932
10844TIP3    H232476   8.165   1.261   5.991
10845TIP3   OH232477   1.765   1.810   6.498
10845TIP3    H132478   1.680   1.799   6.454
10845TIP3    H232479   1.767   1.902   6.523
10846TIP3   OH232480   6.022   1.102   2.544
10846TIP3    H132481   5.957   1.129   2.608
10846TIP3    H232482   6.002   1.010   2.527
10847TIP3   OH232483   3.133   3.574   0.075
10847TIP3    H132484   3.070   3.522   0.126
10847TIP3    H232485   3.082   3.609   0.003
10848TIP3   OH232486   7.870   3.260   1.544
10848TIP3    H132487   7.941   3.314   1.578
10848TIP3    H232488   7.823   3.318   1.483
10849TIP3   OH232489   8.230   0.290   2.299
10849TIP3    H132490   8.156   0.232   2.281
10849TIP3    H232491   8.302   0.230   2.321
10850TIP3   OH232492   2.168   4.448   2.507
10850TIP3    H132493   2.095   4.414   2.559
10850TIP3    H232494   2.198   4.526   2.554
10851TIP3   OH232495   5.679   1.391   0.840
10851TIP3    H132496   5.594   1.420   0.808
10851TIP3    H232497   5.730   1.472   0.851
10852TIP3   OH232498   6.280   2.015   1.698
10852TIP3    H132499   6.197   1.974   1.673
10852TIP3    H232500   6.347   1.962   1.655
10853TIP3   OH232501   2.326   1.478   3.467
10853TIP3    H132502   2.327   1.422   3.544
10853TIP3    H232503   2.302   1.565   3.501
10854TIP3   OH232504   6.786   1.674   6.416
10854TIP3    H132505   6.778   1.751   6.473
10854TIP3    H232506   6.700   1.666   6.375
10855TIP3   OH232507   3.553   2.961   3.213
10855TIP3    H132508   3.470   2.937   3.173
10855TIP3    H232509   3.577   3.044   3.172
10856TIP3   OH232510   3.848   6.102   1.545
10856TIP3    H132511   3.823   6.074   1.633
10856TIP3    H232512   3.862   6.019   1.497
10857TIP3   OH232513   6.348   1.301   0.253
10857TIP3    H132514   6.435   1.332   0.226
10857TIP3    H232515   6.365   1.216   0.294
10858TIP3   OH232516   2.787   5.564   1.312
10858TIP3    H132517   2.695   5.541   1.320
10858TIP3    H232518   2.829   5.485   1.279
10859TIP3   OH232519   0.577   0.240   2.819
10859TIP3    H132520   0.591   0.207   2.908
10859TIP3    H232521   0.483   0.257   2.814
10860TIP3   OH232522   0.580   0.503   3.952
10860TIP3    H132523   0.672   0.499   3.928
10860TIP3    H232524   0.546   0.416   3.933
10861TIP3   OH232525   0.433   0.775   3.974
10861TIP3    H132526   0.345   0.743   3.955
10861TIP3    H232527   0.487   0.696   3.974
10862TIP3   OH232528   6.076   0.147   2.935
10862TIP3    H132529   6.014   0.081   2.965
10862TIP3    H232530   6.087   0.206   3.009
10863TIP3   OH232531   6.753   2.636   4.458
10863TIP3    H132532   6.672   2.684   4.474
10863TIP3    H232533   6.821   2.703   4.451
10864TIP3   OH232534   5.188   0.593   4.702
10864TIP3    H132535   5.170   0.669   4.758
10864TIP3    H232536   5.122   0.598   4.633
10865TIP3   OH232537   5.555   3.721   0.567
10865TIP3    H132538   5.555   3.764   0.482
10865TIP3    H232539   5.544   3.628   0.548
10866TIP3   OH232540   0.956   0.989   0.278
10866TIP3    H132541   0.987   0.905   0.311
10866TIP3    H232542   1.001   1.054   0.331
10867TIP3   OH232543   6.387   6.624   4.367
10867TIP3    H132544   6.317   6.678   4.404
10867TIP3    H232545   6.424   6.578   4.442
10868TIP3   OH232546   2.684   5.627   6.420
10868TIP3    H132547   2.592   5.640   6.443
10868TIP3    H232548   2.715   5.559   6.479
10869TIP3   OH232549   3.778   0.673   1.734
10869TIP3    H132550   3.758   0.748   1.678
10869TIP3    H232551   3.762   0.596   1.679
10870TIP3   OH232552   5.905   3.780   3.141
10870TIP3    H132553   5.935   3.769   3.051
10870TIP3    H232554   5.855   3.862   3.139
10871TIP3   OH232555   0.184   6.438   3.627
10871TIP3    H132556   0.108   6.398   3.584
10871TIP3    H232557   0.257   6.380   3.605
10872TIP3   OH232558   5.696   0.878   4.680
10872TIP3    H132559   5.653   0.895   4.596
10872TIP3    H232560   5.700   0.782   4.686
10873TIP3   OH232561   2.501   2.998   2.906
10873TIP3    H132562   2.540   2.928   2.958
10873TIP3    H232563   2.559   3.073   2.920
10874TIP3   OH232564   6.406   5.549   6.286
10874TIP3    H132565   6.489   5.502   6.277
10874TIP3    H232566   6.404   5.578   6.377
10875TIP3   OH232567   6.169   4.259   4.510
10875TIP3    H132568   6.125   4.175   4.524
10875TIP3    H232569   6.214   4.248   4.426
10876TIP3   OH232570   4.064   6.461   4.328
10876TIP3    H132571   4.159   6.472   4.339
10876TIP3    H232572   4.026   6.501   4.406
10877TIP3   OH232573   5.037   7.477   5.949
10877TIP3    H132574   5.023   7.507   5.860
10877TIP3    H232575   5.007   7.549   6.005
10878TIP3   OH232576   2.010   0.694   2.356
10878TIP3    H132577   1.965   0.775   2.380
10878TIP3    H232578   2.007   0.640   2.435
10879TIP3   OH232579   7.317   1.657   4.728
10879TIP3    H132580   7.234   1.692   4.759
10879TIP3    H232581   7.383   1.715   4.765
10880TIP3   OH232582   0.182   2.367   1.412
10880TIP3    H132583   0.118   2.364   1.341
10880TIP3    H232584   0.267   2.365   1.368
10881TIP3   OH232585   7.714   2.794   3.124
10881TIP3    H132586   7.799   2.772   3.086
10881TIP3    H232587   7.684   2.712   3.164
10882TIP3   OH232588   3.839   1.022   1.017
10882TIP3    H132589   3.782   1.083   0.969
10882TIP3    H232590   3.779   0.958   1.054
10883TIP3   OH232591   5.962   1.085   6.043
10883TIP3    H132592   5.898   1.022   6.075
10883TIP3    H232593   6.037   1.076   6.102
10884TIP3   OH232594   5.669   6.451   3.523
10884TIP3    H132595   5.616   6.468   3.445
10884TIP3    H232596   5.748   6.503   3.511
10885TIP3   OH232597   7.486  -0.061   3.300
10885TIP3    H132598   7.438   0.002   3.247
10885TIP3    H232599   7.457  -0.146   3.268
10886TIP3   OH232600   0.689   5.842   4.887
10886TIP3    H132601   0.622   5.775   4.876
10886TIP3    H232602   0.703   5.878   4.799
10887TIP3   OH232603   4.649   3.473   6.258
10887TIP3    H132604   4.577   3.533   6.275
10887TIP3    H232605   4.606   3.391   6.233
10888TIP3   OH232606   6.792   4.168   4.836
10888TIP3    H132607   6.753   4.109   4.901
10888TIP3    H232608   6.759   4.254   4.860
10889TIP3   OH232609   7.856   6.220   3.503
10889TIP3    H132610   7.920   6.187   3.566
10889TIP3    H232611   7.777   6.170   3.521
10890TIP3   OH232612   3.926   4.791   3.766
10890TIP3    H132613   3.901   4.847   3.839
10890TIP3    H232614   3.971   4.716   3.806
10891TIP3   OH232615   0.213   5.064   4.323
10891TIP3    H132616   0.269   4.996   4.285
10891TIP3    H232617   0.197   5.033   4.412
10892TIP3   OH232618   7.601   4.514   0.898
10892TIP3    H132619   7.538   4.448   0.868
10892TIP3    H232620   7.653   4.470   0.964
10893TIP3   OH232621   0.985   7.405   4.290
10893TIP3    H132622   0.977   7.488   4.243
10893TIP3    H232623   1.054   7.358   4.244
10894TIP3   OH232624   4.716   4.988   2.485
10894TIP3    H132625   4.736   5.075   2.450
10894TIP3    H232626   4.700   5.003   2.578
10895TIP3   OH232627   3.581   6.540   0.861
10895TIP3    H132628   3.611   6.473   0.922
10895TIP3    H232629   3.661   6.584   0.831
10896TIP3   OH232630   0.459   1.741   2.044
10896TIP3    H132631   0.417   1.827   2.036
10896TIP3    H232632   0.509   1.731   1.963
10897TIP3   OH232633   1.444   5.105   4.139
10897TIP3    H132634   1.397   5.172   4.090
10897TIP3    H232635   1.410   5.022   4.106
10898TIP3   OH232636   2.265   1.911   6.489
10898TIP3    H132637   2.315   1.988   6.460
10898TIP3    H232638   2.250   1.926   6.582
10899TIP3   OH232639   7.732   1.367   0.454
10899TIP3    H132640   7.731   1.316   0.373
10899TIP3    H232641   7.824   1.392   0.466
10900TIP3   OH232642   2.549   6.363   6.580
10900TIP3    H132643   2.604   6.441   6.577
10900TIP3    H232644   2.505   6.362   6.495
10901TIP3   OH232645   5.480   3.952   6.680
10901TIP3    H132646   5.526   3.956   6.596
10901TIP3    H232647   5.530   4.011   6.737
10902TIP3   OH232648   3.391   7.705   2.961
10902TIP3    H132649   3.416   7.787   3.003
10902TIP3    H232650   3.474   7.661   2.940
10903TIP3   OH232651   7.600   6.738   0.399
10903TIP3    H132652   7.667   6.755   0.334
10903TIP3    H232653   7.537   6.681   0.354
10904TIP3   OH232654   4.669   7.083   4.443
10904TIP3    H132655   4.670   7.009   4.383
10904TIP3    H232656   4.631   7.047   4.524
10905TIP3   OH232657   2.100  -0.051   3.586
10905TIP3    H132658   2.014  -0.058   3.627
10905TIP3    H232659   2.160  -0.035   3.658
10906TIP3   OH232660   5.727   1.886   6.321
10906TIP3    H132661   5.785   1.879   6.397
10906TIP3    H232662   5.768   1.951   6.265
10907TIP3   OH232663   2.371   3.158   0.387
10907TIP3    H132664   2.413   3.122   0.465
10907TIP3    H232665   2.442   3.166   0.323
10908TIP3   OH232666   0.890   4.142   3.343
10908TIP3    H132667   0.836   4.170   3.269
10908TIP3    H232668   0.978   4.171   3.320
10909TIP3   OH232669   2.211   4.287   0.948
10909TIP3    H132670   2.256   4.203   0.947
10909TIP3    H232671   2.207   4.314   0.856
10910TIP3   OH232672   1.671   4.387   2.630
10910TIP3    H132673   1.727   4.413   2.557
10910TIP3    H232674   1.684   4.456   2.696
10911TIP3   OH232675   5.212   0.167   5.611
10911TIP3    H132676   5.195   0.188   5.519
10911TIP3    H232677   5.139   0.207   5.659
10912TIP3   OH232678   0.288   7.539   5.298
10912TIP3    H132679   0.237   7.603   5.249
10912TIP3    H232680   0.379   7.561   5.279
10913TIP3   OH232681   7.664   4.414   1.490
10913TIP3    H132682   7.596   4.355   1.522
10913TIP3    H232683   7.687   4.469   1.565
10914TIP3   OH232684   2.590   4.677   3.552
10914TIP3    H132685   2.538   4.703   3.628
10914TIP3    H232686   2.612   4.585   3.569
10915TIP3   OH232687   3.934   3.681   0.460
10915TIP3    H132688   3.980   3.754   0.419
10915TIP3    H232689   3.849   3.678   0.416
10916TIP3   OH232690   5.753   4.619   0.164
10916TIP3    H132691   5.814   4.658   0.101
10916TIP3    H232692   5.666   4.642   0.131
10917TIP3   OH232693   5.663   6.067   5.372
10917TIP3    H132694   5.649   6.125   5.298
10917TIP3    H232695   5.602   5.994   5.358
10918TIP3   OH232696   5.844   3.416   0.493
10918TIP3    H132697   5.818   3.347   0.553
10918TIP3    H232698   5.910   3.467   0.541
10919TIP3   OH232699   3.658   6.899   2.953
10919TIP3    H132700   3.683   6.992   2.954
10919TIP3    H232701   3.661   6.873   3.045
10920TIP3   OH232702   1.686   5.641   2.571
10920TIP3    H132703   1.682   5.717   2.629
10920TIP3    H232704   1.779   5.627   2.555
10921TIP3   OH232705   1.161   1.380   4.778
10921TIP3    H132706   1.225   1.447   4.802
10921TIP3    H232707   1.078   1.428   4.771
10922TIP3   OH232708   0.288   2.070   2.757
10922TIP3    H132709   0.195   2.080   2.739
10922TIP3    H232710   0.301   1.975   2.763
10923TIP3   OH232711   8.078   6.768   6.307
10923TIP3    H132712   8.158   6.789   6.356
10923TIP3    H232713   8.062   6.845   6.253
10924TIP3   OH232714   6.790   2.478   4.047
10924TIP3    H132715   6.801   2.486   4.142
10924TIP3    H232716   6.695   2.478   4.033
10925TIP3   OH232717   5.528   0.393   6.572
10925TIP3    H132718   5.505   0.346   6.651
10925TIP3    H232719   5.617   0.425   6.588
10926TIP3   OH232720   2.170   6.560   4.566
10926TIP3    H132721   2.078   6.568   4.540
10926TIP3    H232722   2.172   6.484   4.625
10927TIP3   OH232723   3.065   6.308   0.319
10927TIP3    H132724   3.088   6.263   0.238
10927TIP3    H232725   2.992   6.257   0.354
10928TIP3   OH232726   7.154   4.818   4.900
10928TIP3    H132727   7.152   4.722   4.897
10928TIP3    H232728   7.216   4.843   4.832
10929TIP3   OH232729   8.250   3.148   6.223
10929TIP3    H132730   8.223   3.181   6.309
10929TIP3    H232731   8.208   3.063   6.215
10930TIP3   OH232732   1.144   6.465   1.619
10930TIP3    H132733   1.096   6.431   1.694
10930TIP3    H232734   1.219   6.512   1.657
10931TIP3   OH232735   2.762   4.627   5.488
10931TIP3    H132736   2.781   4.721   5.496
10931TIP3    H232737   2.806   4.588   5.564
10932TIP3   OH232738   5.035   6.685   2.504
10932TIP3    H132739   4.972   6.656   2.438
10932TIP3    H232740   5.110   6.626   2.493
10933TIP3   OH232741   0.929   6.719   5.802
10933TIP3    H132742   0.961   6.741   5.714
10933TIP3    H232743   1.009   6.704   5.853
10934TIP3   OH232744   6.739   6.818   4.787
10934TIP3    H132745   6.807   6.795   4.850
10934TIP3    H232746   6.740   6.914   4.784
10935TIP3   OH232747   2.077   0.258   5.364
10935TIP3    H132748   2.009   0.246   5.430
10935TIP3    H232749   2.063   0.186   5.302
10936TIP3   OH232750   7.200   4.984   3.738
10936TIP3    H132751   7.288   5.000   3.772
10936TIP3    H232752   7.214   4.959   3.646
10937TIP3   OH232753   6.988   5.861   3.763
10937TIP3    H132754   7.041   5.940   3.752
10937TIP3    H232755   6.901   5.894   3.785
10938TIP3   OH232756   6.231   2.185   6.418
10938TIP3    H132757   6.324   2.182   6.398
10938TIP3    H232758   6.190   2.211   6.335
10939TIP3   OH232759   3.567   6.149   4.294
10939TIP3    H132760   3.639   6.128   4.354
10939TIP3    H232761   3.524   6.225   4.335
10940TIP3   OH232762   7.786   5.246   1.368
10940TIP3    H132763   7.824   5.251   1.456
10940TIP3    H232764   7.747   5.332   1.353
10941TIP3   OH232765   0.633   6.607   3.958
10941TIP3    H132766   0.543   6.633   3.940
10941TIP3    H232767   0.649   6.635   4.048
10942TIP3   OH232768   7.181   0.217   3.052
10942TIP3    H132769   7.236   0.181   3.122
10942TIP3    H232770   7.127   0.282   3.095
10943TIP3   OH232771   5.494   3.175   6.572
10943TIP3    H132772   5.483   3.268   6.554
10943TIP3    H232773   5.406   3.143   6.591
10944TIP3   OH232774   6.160   3.499   4.138
10944TIP3    H132775   6.122   3.413   4.117
10944TIP3    H232776   6.249   3.480   4.166
10945TIP3   OH232777   0.070   2.606   0.755
10945TIP3    H132778   0.058   2.555   0.675
10945TIP3    H232779   0.134   2.673   0.731
10946TIP3   OH232780   8.310   0.977   6.490
10946TIP3    H132781   8.272   1.039   6.427
10946TIP3    H232782   8.400   1.006   6.500
10947TIP3   OH232783   7.559   5.207   0.458
10947TIP3    H132784   7.580   5.191   0.366
10947TIP3    H232785   7.464   5.212   0.460
10948TIP3   OH232786   1.931   3.916   3.933
10948TIP3    H132787   1.846   3.957   3.944
10948TIP3    H232788   1.948   3.872   4.017
10949TIP3   OH232789   5.202   1.040   5.219
10949TIP3    H132790   5.206   1.059   5.313
10949TIP3    H232791   5.109   1.030   5.201
10950TIP3   OH232792   6.322   2.041   1.367
10950TIP3    H132793   6.378   2.067   1.440
10950TIP3    H232794   6.378   2.051   1.290
10951TIP3   OH232795   6.022   4.459   1.316
10951TIP3    H132796   6.013   4.456   1.220
10951TIP3    H232797   5.934   4.476   1.348
10952TIP3   OH232798   7.415   4.899   2.237
10952TIP3    H132799   7.442   4.811   2.264
10952TIP3    H232800   7.326   4.908   2.269
10953TIP3   OH232801   6.933   4.822   0.208
10953TIP3    H132802   6.924   4.896   0.269
10953TIP3    H232803   6.933   4.745   0.264
10954TIP3   OH232804   1.612   1.481   0.593
10954TIP3    H132805   1.636   1.395   0.628
10954TIP3    H232806   1.549   1.462   0.523
10955TIP3   OH232807   5.531   7.122   2.925
10955TIP3    H132808   5.625   7.130   2.941
10955TIP3    H232809   5.504   7.210   2.897
10956TIP3   OH232810   3.469   5.938   6.473
10956TIP3    H132811   3.454   5.853   6.513
10956TIP3    H232812   3.444   5.927   6.381
10957TIP3   OH232813   3.565   0.170   3.853
10957TIP3    H132814   3.534   0.082   3.835
10957TIP3    H232815   3.647   0.158   3.900
10958TIP3   OH232816   5.792   2.026   4.716
10958TIP3    H132817   5.721   2.083   4.684
10958TIP3    H232818   5.817   1.974   4.640
10959TIP3   OH232819   6.029   7.719   4.942
10959TIP3    H132820   6.119   7.719   4.973
10959TIP3    H232821   6.036   7.701   4.848
10960TIP3   OH232822   1.084   4.445   3.703
10960TIP3    H132823   1.064   4.525   3.751
10960TIP3    H232824   1.044   4.458   3.617
10961TIP3   OH232825   6.313   5.713   4.022
10961TIP3    H132826   6.285   5.674   4.104
10961TIP3    H232827   6.232   5.727   3.973
10962TIP3   OH232828   4.969   2.432   0.193
10962TIP3    H132829   4.977   2.455   0.100
10962TIP3    H232830   4.874   2.426   0.208
10963TIP3   OH232831   0.604   2.696   6.696
10963TIP3    H132832   0.686   2.725   6.658
10963TIP3    H232833   0.615   2.707   6.790
10964TIP3   OH232834   5.010   2.195   2.451
10964TIP3    H132835   5.069   2.233   2.516
10964TIP3    H232836   5.016   2.254   2.376
10965TIP3   OH232837   3.156   5.057   3.688
10965TIP3    H132838   3.195   5.141   3.710
10965TIP3    H232839   3.230   5.001   3.664
10966TIP3   OH232840   6.201   1.682   0.299
10966TIP3    H132841   6.159   1.763   0.270
10966TIP3    H232842   6.231   1.640   0.218
10967TIP3   OH232843   8.139   6.676   3.068
10967TIP3    H132844   8.161   6.712   2.982
10967TIP3    H232845   8.215   6.624   3.093
10968TIP3   OH232846   8.023   7.049   6.171
10968TIP3    H132847   7.935   7.084   6.162
10968TIP3    H232848   8.080   7.126   6.170
10969TIP3   OH232849   7.309   3.249   4.772
10969TIP3    H132850   7.380   3.264   4.710
10969TIP3    H232851   7.350   3.203   4.845
10970TIP3   OH232852   4.036   3.390   2.436
10970TIP3    H132853   4.001   3.305   2.412
10970TIP3    H232854   3.959   3.443   2.457
10971TIP3   OH232855   3.644   0.768   4.673
10971TIP3    H132856   3.575   0.719   4.628
10971TIP3    H232857   3.622   0.860   4.656
10972TIP3   OH232858   7.758   2.426   1.377
10972TIP3    H132859   7.698   2.388   1.313
10972TIP3    H232860   7.796   2.350   1.422
10973TIP3   OH232861   1.320   6.057   1.509
10973TIP3    H132862   1.388   6.102   1.460
10973TIP3    H232863   1.345   5.964   1.507
10974TIP3   OH232864   0.359   3.046   0.746
10974TIP3    H132865   0.264   3.045   0.739
10974TIP3    H232866   0.388   2.972   0.693
10975TIP3   OH232867   7.185   1.984   4.043
10975TIP3    H132868   7.271   1.944   4.031
10975TIP3    H232869   7.135   1.918   4.091
10976TIP3   OH232870   0.727   4.107   0.459
10976TIP3    H132871   0.667   4.173   0.424
10976TIP3    H232872   0.781   4.082   0.385
10977TIP3   OH232873   2.906   0.648   1.251
10977TIP3    H132874   2.961   0.596   1.309
10977TIP3    H232875   2.945   0.637   1.164
10978TIP3   OH232876   2.666   5.595   5.811
10978TIP3    H132877   2.582   5.639   5.794
10978TIP3    H232878   2.654   5.552   5.896
10979TIP3   OH232879   0.640   7.351   0.151
10979TIP3    H132880   0.650   7.329   0.244
10979TIP3    H232881   0.685   7.435   0.142
10980TIP3   OH232882   0.693   6.343   1.779
10980TIP3    H132883   0.622   6.335   1.716
10980TIP3    H232884   0.715   6.252   1.802
10981TIP3   OH232885   6.001   0.954   1.561
10981TIP3    H132886   6.036   0.965   1.650
10981TIP3    H232887   5.972   0.863   1.557
10982TIP3   OH232888   6.240   1.504   2.495
10982TIP3    H132889   6.253   1.502   2.589
10982TIP3    H232890   6.276   1.588   2.467
10983TIP3   OH232891   7.082   4.109   6.118
10983TIP3    H132892   7.136   4.092   6.194
10983TIP3    H232893   7.004   4.055   6.131
10984TIP3   OH232894   5.604   5.658   4.615
10984TIP3    H132895   5.616   5.568   4.645
10984TIP3    H232896   5.689   5.700   4.631
10985TIP3   OH232897   3.954   6.723   3.607
10985TIP3    H132898   3.874   6.773   3.622
10985TIP3    H232899   3.929   6.652   3.548
10986TIP3   OH232900   6.532   5.346   1.347
10986TIP3    H132901   6.556   5.258   1.318
10986TIP3    H232902   6.437   5.349   1.334
10987TIP3   OH232903   3.353   4.704   5.787
10987TIP3    H132904   3.414   4.768   5.750
10987TIP3    H232905   3.363   4.626   5.732
10988TIP3   OH232906   6.651   5.392   2.793
10988TIP3    H132907   6.615   5.461   2.848
10988TIP3    H232908   6.735   5.370   2.833
10989TIP3   OH232909   0.206   6.238   2.886
10989TIP3    H132910   0.252   6.253   2.969
10989TIP3    H232911   0.116   6.267   2.903
10990TIP3   OH232912   6.788   3.121   0.998
10990TIP3    H132913   6.844   3.053   1.035
10990TIP3    H232914   6.761   3.087   0.912
10991TIP3   OH232915   2.651   4.305   0.238
10991TIP3    H132916   2.640   4.397   0.263
10991TIP3    H232917   2.691   4.308   0.151
10992TIP3   OH232918   2.855   2.699   3.492
10992TIP3    H132919   2.903   2.633   3.442
10992TIP3    H232920   2.902   2.781   3.474
10993TIP3   OH232921   8.149   1.012   6.151
10993TIP3    H132922   8.242   1.022   6.132
10993TIP3    H232923   8.105   1.061   6.081
10994TIP3   OH232924   6.907   3.199   3.550
10994TIP3    H132925   6.993   3.221   3.586
10994TIP3    H232926   6.850   3.194   3.627
10995TIP3   OH232927   5.483   2.071   1.163
10995TIP3    H132928   5.403   2.019   1.168
10995TIP3    H232929   5.457   2.159   1.190
10996TIP3   OH232930   6.912   2.901   3.231
10996TIP3    H132931   6.979   2.921   3.296
10996TIP3    H232932   6.958   2.849   3.165
10997TIP3   OH232933   4.449   0.310   5.385
10997TIP3    H132934   4.516   0.252   5.422
10997TIP3    H232935   4.366   0.268   5.406
10998TIP3   OH232936   7.642   7.037   2.819
10998TIP3    H132937   7.629   7.085   2.737
10998TIP3    H232938   7.554   7.018   2.851
10999TIP3   OH232939   7.324   5.262   5.042
10999TIP3    H132940   7.238   5.303   5.055
10999TIP3    H232941   7.312   5.171   5.069
11000TIP3   OH232942   7.357   3.175   5.027
11000TIP3    H132943   7.318   3.087   5.027
11000TIP3    H232944   7.443   3.163   5.067
11001TIP3   OH232945   7.921   6.419   2.317
11001TIP3    H132946   8.013   6.393   2.320
11001TIP3    H232947   7.902   6.426   2.223
11002TIP3   OH232948   4.075   4.574   1.605
11002TIP3    H132949   4.137   4.572   1.532
11002TIP3    H232950   4.108   4.644   1.662
11003TIP3   OH232951   6.214   2.676   0.803
11003TIP3    H132952   6.134   2.714   0.838
11003TIP3    H232953   6.268   2.659   0.880
11004TIP3   OH232954   0.395   4.445   5.997
11004TIP3    H132955   0.353   4.379   5.942
11004TIP3    H232956   0.401   4.405   6.083
11005TIP3   OH232957   1.944   5.016   4.548
11005TIP3    H132958   1.954   5.087   4.611
11005TIP3    H232959   1.970   5.056   4.464
11006TIP3   OH232960   3.686   6.867   0.602
11006TIP3    H132961   3.758   6.920   0.568
11006TIP3    H232962   3.729   6.796   0.650
11007TIP3   OH232963   7.708   0.760   0.593
11007TIP3    H132964   7.682   0.766   0.685
11007TIP3    H232965   7.671   0.676   0.564
11008TIP3   OH232966   0.741   2.512   1.358
11008TIP3    H132967   0.826   2.519   1.315
11008TIP3    H232968   0.716   2.420   1.346
11009TIP3   OH232969   4.884   3.185   6.809
11009TIP3    H132970   4.822   3.184   6.735
11009TIP3    H232971   4.969   3.164   6.769
11010TIP3   OH232972   5.067   5.156   0.591
11010TIP3    H132973   5.056   5.095   0.518
11010TIP3    H232974   5.002   5.130   0.655
11011TIP3   OH232975   3.047   4.413   1.776
11011TIP3    H132976   2.974   4.398   1.716
11011TIP3    H232977   3.067   4.506   1.767
11012TIP3   OH232978   0.613   4.004   5.023
11012TIP3    H132979   0.694   4.039   4.988
11012TIP3    H232980   0.636   3.968   5.108
11013TIP3   OH232981   0.795   5.617   0.412
11013TIP3    H132982   0.843   5.534   0.401
11013TIP3    H232983   0.789   5.652   0.323
11014TIP3   OH232984   0.286   5.127   3.952
11014TIP3    H132985   0.232   5.049   3.937
11014TIP3    H232986   0.230   5.185   4.004
11015TIP3   OH232987   1.327   6.448   0.048
11015TIP3    H132988   1.351   6.528   0.095
11015TIP3    H232989   1.267   6.402   0.107
11016TIP3   OH232990   7.187   0.419   0.369
11016TIP3    H132991   7.206   0.364   0.293
11016TIP3    H232992   7.242   0.384   0.439
11017TIP3   OH232993   1.770   0.569   5.185
11017TIP3    H132994   1.789   0.547   5.094
11017TIP3    H232995   1.726   0.654   5.180
11018TIP3   OH232996   5.467   6.259   0.149
11018TIP3    H132997   5.560   6.240   0.166
11018TIP3    H232998   5.442   6.198   0.080
11019TIP3   OH232999   5.849   4.133   3.311
11019TIP3    H133000   5.857   4.223   3.343
11019TIP3    H233001   5.939   4.100   3.312
11020TIP3   OH233002   3.979   5.360   4.830
11020TIP3    H133003   3.951   5.450   4.848
11020TIP3    H233004   3.903   5.307   4.854
11021TIP3   OH233005   1.881   5.358   0.444
11021TIP3    H133006   1.946   5.297   0.481
11021TIP3    H233007   1.797   5.326   0.478
11022TIP3   OH233008   3.776   0.561   4.379
11022TIP3    H133009   3.690   0.588   4.409
11022TIP3    H233010   3.811   0.637   4.332
11023TIP3   OH233011   1.716   2.955   1.330
11023TIP3    H133012   1.742   2.873   1.290
11023TIP3    H233013   1.770   3.021   1.287
11024TIP3   OH233014   3.019   7.251   2.403
11024TIP3    H133015   3.113   7.247   2.416
11024TIP3    H233016   3.007   7.316   2.333
11025TIP3   OH233017   3.288   1.064   2.833
11025TIP3    H133018   3.334   1.081   2.751
11025TIP3    H233019   3.310   0.974   2.855
11026TIP3   OH233020   0.546   6.926   0.566
11026TIP3    H133021   0.516   6.998   0.622
11026TIP3    H233022   0.467   6.877   0.545
11027TIP3   OH233023   2.448   5.812   1.277
11027TIP3    H133024   2.441   5.804   1.372
11027TIP3    H233025   2.414   5.729   1.243
11028TIP3   OH233026   6.425   1.147   2.594
11028TIP3    H133027   6.354   1.198   2.556
11028TIP3    H233028   6.390   1.118   2.679
11029TIP3   OH233029   1.904   5.231   3.677
11029TIP3    H133030   1.838   5.216   3.746
11029TIP3    H233031   1.852   5.251   3.599
11030TIP3   OH233032   0.211   6.072   5.148
11030TIP3    H133033   0.241   5.988   5.113
11030TIP3    H233034   0.116   6.065   5.151
11031TIP3   OH233035   4.905   5.477   5.238
11031TIP3    H133036   4.886   5.408   5.302
11031TIP3    H233037   4.920   5.429   5.156
11032TIP3   OH233038   5.266   2.932   4.078
11032TIP3    H133039   5.252   2.926   3.984
11032TIP3    H233040   5.351   2.976   4.087
11033TIP3   OH233041   3.251   0.965   5.585
11033TIP3    H133042   3.192   0.896   5.613
11033TIP3    H233043   3.242   0.967   5.490
11034TIP3   OH233044   3.014   1.143   1.856
11034TIP3    H133045   3.016   1.076   1.788
11034TIP3    H233046   2.925   1.179   1.850
11035TIP3   OH233047   4.797   4.708   4.820
11035TIP3    H133048   4.761   4.728   4.907
11035TIP3    H233049   4.889   4.690   4.836
11036TIP3   OH233050   8.015   4.838   4.807
11036TIP3    H133051   8.007   4.916   4.862
11036TIP3    H233052   8.080   4.863   4.740
11037TIP3   OH233053   4.267   4.167   3.493
11037TIP3    H133054   4.281   4.261   3.478
11037TIP3    H233055   4.177   4.161   3.526
11038TIP3   OH233056   3.374   1.307   6.727
11038TIP3    H133057   3.430   1.343   6.658
11038TIP3    H233058   3.390   1.213   6.725
11039TIP3   OH233059   3.649   2.665   1.202
11039TIP3    H133060   3.737   2.669   1.164
11039TIP3    H233061   3.591   2.657   1.126
11040TIP3   OH233062   4.578   6.997   2.814
11040TIP3    H133063   4.639   7.024   2.882
11040TIP3    H233064   4.537   7.078   2.784
11041TIP3   OH233065   0.948   3.384   2.844
11041TIP3    H133066   0.966   3.292   2.821
11041TIP3    H233067   0.911   3.421   2.764
11042TIP3   OH233068   6.768   6.868   4.084
11042TIP3    H133069   6.762   6.806   4.012
11042TIP3    H233070   6.848   6.844   4.130
11043TIP3   OH233071   7.990   7.617   4.947
11043TIP3    H133072   8.073   7.637   4.903
11043TIP3    H233073   7.956   7.540   4.901
11044TIP3   OH233074   8.095   1.647   6.545
11044TIP3    H133075   8.077   1.729   6.499
11044TIP3    H233076   8.031   1.585   6.510
11045TIP3   OH233077   6.604   4.659   4.595
11045TIP3    H133078   6.525   4.623   4.635
11045TIP3    H233079   6.670   4.656   4.664
11046TIP3   OH233080   7.682   5.112   0.906
11046TIP3    H133081   7.697   5.127   0.813
11046TIP3    H233082   7.666   5.018   0.913
11047TIP3   OH233083   5.089   4.491   6.293
11047TIP3    H133084   5.107   4.398   6.278
11047TIP3    H233085   5.168   4.536   6.263
11048TIP3   OH233086   5.508   2.084   3.256
11048TIP3    H133087   5.447   2.156   3.275
11048TIP3    H233088   5.544   2.105   3.170
11049TIP3   OH233089   2.126   6.494   5.243
11049TIP3    H133090   2.184   6.419   5.230
11049TIP3    H233091   2.161   6.562   5.186
11050TIP3   OH233092   5.867   3.648   1.717
11050TIP3    H133093   5.951   3.689   1.695
11050TIP3    H233094   5.833   3.699   1.790
11051TIP3   OH233095   3.369   7.545   4.697
11051TIP3    H133096   3.418   7.483   4.643
11051TIP3    H233097   3.364   7.624   4.643
11052TIP3   OH233098   3.822   3.614   6.456
11052TIP3    H133099   3.828   3.550   6.385
11052TIP3    H233100   3.891   3.677   6.437
11053TIP3   OH233101   2.801   3.347   1.929
11053TIP3    H133102   2.795   3.282   1.858
11053TIP3    H233103   2.714   3.386   1.934
11054TIP3   OH233104   2.455   7.753   6.646
11054TIP3    H133105   2.443   7.658   6.654
11054TIP3    H233106   2.375   7.784   6.605
11055TIP3   OH233107   2.569   0.996   0.617
11055TIP3    H133108   2.664   1.006   0.606
11055TIP3    H233109   2.535   1.086   0.614
11056TIP3   OH233110   3.954   5.187   1.068
11056TIP3    H133111   4.048   5.194   1.083
11056TIP3    H233112   3.924   5.277   1.059
11057TIP3   OH233113   6.980   7.273   2.691
11057TIP3    H133114   7.033   7.266   2.612
11057TIP3    H233115   6.906   7.328   2.666
11058TIP3   OH233116   7.011   4.666   5.891
11058TIP3    H133117   6.933   4.709   5.927
11058TIP3    H233118   6.994   4.572   5.905
11059TIP3   OH233119   3.450   5.812   1.842
11059TIP3    H133120   3.541   5.793   1.861
11059TIP3    H233121   3.411   5.831   1.928
11060TIP3   OH233122   7.685   2.258   0.691
11060TIP3    H133123   7.676   2.289   0.781
11060TIP3    H233124   7.732   2.327   0.646
11061TIP3   OH233125   7.547   4.971   2.659
11061TIP3    H133126   7.641   4.953   2.652
11061TIP3    H233127   7.508   4.885   2.677
11062TIP3   OH233128   7.815   5.998   2.082
11062TIP3    H133129   7.897   5.958   2.113
11062TIP3    H233130   7.833   6.021   1.991
11063TIP3   OH233131   3.916   3.459   2.720
11063TIP3    H133132   3.964   3.533   2.756
11063TIP3    H233133   3.867   3.495   2.646
11064TIP3   OH233134   2.141   6.735   2.305
11064TIP3    H133135   2.168   6.774   2.222
11064TIP3    H233136   2.108   6.808   2.357
11065TIP3   OH233137   4.524   2.258   2.494
11065TIP3    H133138   4.456   2.255   2.561
11065TIP3    H233139   4.602   2.223   2.537
11066TIP3   OH233140   0.350   0.156   4.217
11066TIP3    H133141   0.387   0.213   4.284
11066TIP3    H233142   0.267   0.197   4.193
11067TIP3   OH233143   3.800   4.793   5.544
11067TIP3    H133144   3.849   4.710   5.540
11067TIP3    H233145   3.747   4.785   5.624
11068TIP3   OH233146   7.884   1.091  -0.023
11068TIP3    H133147   7.911   1.016   0.030
11068TIP3    H233148   7.839   1.053  -0.098
11069TIP3   OH233149   0.981   5.583   2.598
11069TIP3    H133150   0.995   5.590   2.692
11069TIP3    H233151   1.067   5.597   2.560
11070TIP3   OH233152   5.640   4.347   1.616
11070TIP3    H133153   5.674   4.428   1.653
11070TIP3    H233154   5.549   4.366   1.597
11071TIP3   OH233155   4.925   6.995   4.273
11071TIP3    H133156   4.944   6.973   4.365
11071TIP3    H233157   4.920   6.910   4.229
11072TIP3   OH233158   4.067   1.038   4.911
11072TIP3    H133159   4.051   1.063   4.820
11072TIP3    H233160   4.060   0.943   4.911
11073TIP3   OH233161   2.081   3.489   1.663
11073TIP3    H133162   2.028   3.525   1.593
11073TIP3    H233163   2.136   3.562   1.692
11074TIP3   OH233164   2.555   0.533   3.413
11074TIP3    H133165   2.579   0.514   3.504
11074TIP3    H233166   2.522   0.450   3.379
11075TIP3   OH233167   1.195   7.552   0.660
11075TIP3    H133168   1.175   7.486   0.726
11075TIP3    H233169   1.275   7.594   0.691
11076TIP3   OH233170   6.208   3.998   2.879
11076TIP3    H133171   6.268   3.975   2.950
11076TIP3    H233172   6.262   4.046   2.816
11077TIP3   OH233173   0.523   7.205   4.832
11077TIP3    H133174   0.499   7.113   4.820
11077TIP3    H233175   0.493   7.226   4.920
11078TIP3   OH233176   6.090   6.937   4.677
11078TIP3    H133177   6.172   6.984   4.663
11078TIP3    H233178   6.097   6.860   4.621
11079TIP3   OH233179   7.551   1.392   5.776
11079TIP3    H133180   7.579   1.305   5.748
11079TIP3    H233181   7.456   1.385   5.785
11080TIP3   OH233182   1.535   3.060   3.274
11080TIP3    H133183   1.586   3.028   3.349
11080TIP3    H233184   1.489   3.137   3.308
11081TIP3   OH233185   7.692   4.133   6.616
11081TIP3    H133186   7.756   4.178   6.561
11081TIP3    H233187   7.735   4.052   6.642
11082TIP3   OH233188   3.685   5.394   6.558
11082TIP3    H133189   3.742   5.462   6.523
11082TIP3    H233190   3.732   5.360   6.634
11083TIP3   OH233191   7.657   3.757   6.138
11083TIP3    H133192   7.662   3.848   6.109
11083TIP3    H233193   7.710   3.754   6.218
11084TIP3   OH233194   2.360   3.121   6.124
11084TIP3    H133195   2.304   3.056   6.081
11084TIP3    H233196   2.442   3.118   6.074
11085TIP3   OH233197   2.865   2.750   5.284
11085TIP3    H133198   2.921   2.780   5.356
11085TIP3    H233199   2.781   2.730   5.327
11086TIP3   OH233200   1.808   7.425   2.532
11086TIP3    H133201   1.871   7.376   2.480
11086TIP3    H233202   1.746   7.359   2.563
11087TIP3   OH233203   5.562   2.826   2.609
11087TIP3    H133204   5.614   2.852   2.533
11087TIP3    H233205   5.521   2.906   2.639
11088TIP3   OH233206   6.928   4.358   3.325
11088TIP3    H133207   6.970   4.377   3.241
11088TIP3    H233208   6.905   4.265   3.319
11089TIP3   OH233209   1.874   4.294   3.950
11089TIP3    H133210   1.969   4.304   3.940
11089TIP3    H233211   1.864   4.229   4.020
11090TIP3   OH233212   4.691   2.313   6.061
11090TIP3    H133213   4.655   2.229   6.032
11090TIP3    H233214   4.719   2.296   6.152
11091TIP3   OH233215   3.646   0.638   1.011
11091TIP3    H133216   3.659   0.640   0.916
11091TIP3    H233217   3.707   0.571   1.042
11092TIP3   OH233218   5.396   5.187   0.371
11092TIP3    H133219   5.325   5.225   0.423
11092TIP3    H233220   5.437   5.122   0.428
11093TIP3   OH233221   8.147   7.501   3.540
11093TIP3    H133222   8.121   7.565   3.606
11093TIP3    H233223   8.127   7.544   3.456
11094TIP3   OH233224   0.797   5.007   1.397
11094TIP3    H133225   0.767   5.033   1.484
11094TIP3    H233226   0.879   4.960   1.414
11095TIP3   OH233227   4.332   6.906   3.951
11095TIP3    H133228   4.350   6.917   3.857
11095TIP3    H233229   4.241   6.876   3.954
11096TIP3   OH233230   7.646   7.645   6.113
11096TIP3    H133231   7.583   7.638   6.041
11096TIP3    H233232   7.642   7.737   6.140
11097TIP3   OH233233   7.132   1.147   2.865
11097TIP3    H133234   7.036   1.150   2.862
11097TIP3    H233235   7.160   1.195   2.788
11098TIP3   OH233236   2.433   6.371   2.806
11098TIP3    H133237   2.482   6.453   2.816
11098TIP3    H233238   2.491   6.304   2.844
11099TIP3   OH233239   6.917   4.507   3.782
11099TIP3    H133240   6.845   4.542   3.834
11099TIP3    H233241   6.897   4.533   3.692
11100TIP3   OH233242   4.617   3.455   3.595
11100TIP3    H133243   4.531   3.449   3.553
11100TIP3    H233244   4.625   3.546   3.622
11101TIP3   OH233245   5.191   0.278   2.394
11101TIP3    H133246   5.139   0.200   2.413
11101TIP3    H233247   5.204   0.319   2.479
11102TIP3   OH233248   4.247   2.898   5.214
11102TIP3    H133249   4.211   2.878   5.300
11102TIP3    H233250   4.327   2.845   5.209
11103TIP3   OH233251   3.069   1.445   1.238
11103TIP3    H133252   3.049   1.353   1.259
11103TIP3    H233253   3.130   1.440   1.165
11104TIP3   OH233254   1.287   7.009   4.551
11104TIP3    H133255   1.348   7.033   4.481
11104TIP3    H233256   1.311   6.919   4.573
11105TIP3   OH233257   6.575   4.163   3.698
11105TIP3    H133258   6.655   4.186   3.744
11105TIP3    H233259   6.506   4.170   3.764
11106TIP3   OH233260   3.620   1.520   4.741
11106TIP3    H133261   3.661   1.589   4.688
11106TIP3    H233262   3.688   1.495   4.803
11107TIP3   OH233263   2.499   0.975   5.886
11107TIP3    H133264   2.476   0.905   5.947
11107TIP3    H233265   2.573   0.940   5.835
11108TIP3   OH233266   8.093   6.503   1.739
11108TIP3    H133267   8.156   6.564   1.776
11108TIP3    H233268   8.064   6.543   1.658
11109TIP3   OH233269   4.217   6.184   1.691
11109TIP3    H133270   4.287   6.248   1.702
11109TIP3    H233271   4.139   6.228   1.725
11110TIP3   OH233272   6.879   0.058   0.114
11110TIP3    H133273   6.890   0.042   0.020
11110TIP3    H233274   6.951   0.010   0.155
11111TIP3   OH233275   6.620   7.428   0.094
11111TIP3    H133276   6.533   7.456   0.066
11111TIP3    H233277   6.603   7.360   0.159
11112TIP3   OH233278   7.680   5.642   2.587
11112TIP3    H133279   7.625   5.717   2.564
11112TIP3    H233280   7.768   5.667   2.561
11113TIP3   OH233281   7.692   1.096   3.992
11113TIP3    H133282   7.598   1.097   4.008
11113TIP3    H233283   7.706   1.162   3.924
11114TIP3   OH233284   4.037   0.598   3.594
11114TIP3    H133285   3.945   0.571   3.597
11114TIP3    H233286   4.078   0.535   3.535
11115TIP3   OH233287   4.330   0.368   0.958
11115TIP3    H133288   4.235   0.370   0.949
11115TIP3    H233289   4.361   0.421   0.884
11116TIP3   OH233290   6.480   1.563   6.581
11116TIP3    H133291   6.396   1.527   6.610
11116TIP3    H233292   6.545   1.514   6.631
11117TIP3   OH233293   0.563   0.208   5.851
11117TIP3    H133294   0.609   0.157   5.918
11117TIP3    H233295   0.482   0.235   5.894
11118TIP3   OH233296   3.334   1.953   3.204
11118TIP3    H133297   3.382   2.031   3.177
11118TIP3    H233298   3.379   1.922   3.282
11119TIP3   OH233299   5.665   5.888   5.046
11119TIP3    H133300   5.725   5.844   4.988
11119TIP3    H233301   5.579   5.850   5.027
11120TIP3   OH233302   2.205   2.079   2.704
11120TIP3    H133303   2.144   2.149   2.679
11120TIP3    H233304   2.162   2.037   2.779
11121TIP3   OH233305   6.003   6.430   0.934
11121TIP3    H133306   6.076   6.459   0.880
11121TIP3    H233307   5.926   6.475   0.899
11122TIP3   OH233308   2.754   1.569   3.173
11122TIP3    H133309   2.708   1.588   3.091
11122TIP3    H233310   2.694   1.510   3.220
11123TIP3   OH233311   5.008   1.500   1.627
11123TIP3    H133312   5.016   1.488   1.533
11123TIP3    H233313   4.952   1.576   1.638
11124TIP3   OH233314   6.368   3.333   0.891
11124TIP3    H133315   6.324   3.347   0.807
11124TIP3    H233316   6.451   3.291   0.867
11125TIP3   OH233317   3.682   5.220   2.117
11125TIP3    H133318   3.747   5.174   2.064
11125TIP3    H233319   3.651   5.292   2.063
11126TIP3   OH233320   5.985   5.877   6.569
11126TIP3    H133321   5.965   5.829   6.489
11126TIP3    H233322   5.916   5.943   6.576
11127TIP3   OH233323   1.869   0.546   2.141
11127TIP3    H133324   1.875   0.562   2.235
11127TIP3    H233325   1.800   0.605   2.111
11128TIP3   OH233326   0.176   2.361   0.150
11128TIP3    H133327   0.166   2.362   0.055
11128TIP3    H233328   0.090   2.385   0.184
11129TIP3   OH233329   3.552   0.748   5.052
11129TIP3    H133330   3.498   0.762   5.130
11129TIP3    H233331   3.495   0.774   4.979
11130TIP3   OH233332   3.014   0.631   1.977
11130TIP3    H133333   3.052   0.717   1.991
11130TIP3    H233334   2.931   0.648   1.931
11131TIP3   OH233335   4.332   7.755   1.241
11131TIP3    H133336   4.284   7.803   1.174
11131TIP3    H233337   4.267   7.734   1.308
11132TIP3   OH233338   1.396   2.083   2.221
11132TIP3    H133339   1.358   2.114   2.138
11132TIP3    H233340   1.490   2.077   2.203
11133TIP3   OH233341   7.892   1.039   2.010
11133TIP3    H133342   7.972   1.079   2.044
11133TIP3    H233343   7.865   0.978   2.077
11134TIP3   OH233344   3.928   1.443   0.879
11134TIP3    H133345   3.965   1.375   0.935
11134TIP3    H233346   3.910   1.516   0.938
11135TIP3   OH233347   4.159   6.228   4.245
11135TIP3    H133348   4.177   6.246   4.153
11135TIP3    H233349   4.073   6.267   4.261
11136TIP3   OH233350   1.976   6.073   1.949
11136TIP3    H133351   1.927   6.053   2.030
11136TIP3    H233352   1.909   6.076   1.881
11137TIP3   OH233353   1.979   5.974   4.628
11137TIP3    H133354   1.900   5.949   4.580
11137TIP3    H233355   2.008   6.055   4.585
11138TIP3   OH233356   5.621   3.830   2.680
11138TIP3    H133357   5.668   3.879   2.747
11138TIP3    H233358   5.568   3.767   2.730
11139TIP3   OH233359   7.071   7.352   2.942
11139TIP3    H133360   7.020   7.285   2.896
11139TIP3    H233361   7.106   7.407   2.873
11140TIP3   OH233362   7.084   0.269   1.103
11140TIP3    H133363   7.025   0.195   1.084
11140TIP3    H233364   7.162   0.251   1.051
11141TIP3   OH233365   1.598   4.461   4.324
11141TIP3    H133366   1.537   4.469   4.397
11141TIP3    H233367   1.542   4.438   4.249
11142TIP3   OH233368   0.319   6.174   0.176
11142TIP3    H133369   0.374   6.241   0.216
11142TIP3    H233370   0.232   6.190   0.213
11143TIP3   OH233371   5.625   3.418   1.210
11143TIP3    H133372   5.718   3.432   1.227
11143TIP3    H233373   5.589   3.388   1.294
11144TIP3   OH233374   1.468   0.245   2.432
11144TIP3    H133375   1.402   0.179   2.454
11144TIP3    H233376   1.552   0.198   2.440
11145TIP3   OH233377   7.692   3.327   3.389
11145TIP3    H133378   7.743   3.365   3.460
11145TIP3    H233379   7.624   3.277   3.432
11146TIP3   OH233380   3.730   7.185   4.400
11146TIP3    H133381   3.815   7.211   4.365
11146TIP3    H233382   3.718   7.095   4.370
11147TIP3   OH233383   4.388   3.837   4.248
11147TIP3    H133384   4.364   3.928   4.231
11147TIP3    H233385   4.366   3.823   4.340
11148TIP3   OH233386   1.632   2.071   1.815
11148TIP3    H133387   1.712   2.065   1.764
11148TIP3    H233388   1.641   2.154   1.863
11149TIP3   OH233389   0.261   2.605   4.211
11149TIP3    H133390   0.333   2.572   4.157
11149TIP3    H233391   0.263   2.551   4.290
11150TIP3   OH233392   7.003   2.994   0.354
11150TIP3    H133393   7.077   2.988   0.294
11150TIP3    H233394   7.034   2.953   0.434
11151TIP3   OH233395   6.108   7.659   2.814
11151TIP3    H133396   6.035   7.717   2.833
11151TIP3    H233397   6.125   7.671   2.720
11152TIP3   OH233398   7.958   0.133   5.154
11152TIP3    H133399   7.920   0.097   5.074
11152TIP3    H233400   7.913   0.217   5.166
11153TIP3   OH233401   7.522   0.712   3.347
11153TIP3    H133402   7.454   0.648   3.325
11153TIP3    H233403   7.505   0.786   3.289
11154TIP3   OH233404   0.094   5.948   2.743
11154TIP3    H133405   0.098   6.044   2.741
11154TIP3    H233406   0.111   5.922   2.652
11155TIP3   OH233407   7.384   4.113   3.988
11155TIP3    H133408   7.437   4.133   4.064
11155TIP3    H233409   7.413   4.175   3.921
11156TIP3   OH233410   3.954   3.805   0.033
11156TIP3    H133411   3.901   3.867  -0.019
11156TIP3    H233412   3.889   3.756   0.083
11157TIP3   OH233413   5.270   1.126   0.269
11157TIP3    H133414   5.341   1.085   0.218
11157TIP3    H233415   5.313   1.159   0.347
11158TIP3   OH233416   1.273   4.709   0.889
11158TIP3    H133417   1.205   4.748   0.945
11158TIP3    H233418   1.285   4.621   0.923
11159TIP3   OH233419   3.053   5.764   4.231
11159TIP3    H133420   3.040   5.723   4.317
11159TIP3    H233421   2.967   5.761   4.189
11160TIP3   OH233422   0.551   1.355   3.436
11160TIP3    H133423   0.568   1.295   3.363
11160TIP3    H233424   0.463   1.333   3.465
11161TIP3   OH233425   1.057   3.880   6.411
11161TIP3    H133426   1.054   3.975   6.418
11161TIP3    H233427   1.132   3.861   6.355
11162TIP3   OH233428   6.779   5.480   1.397
11162TIP3    H133429   6.702   5.434   1.364
11162TIP3    H233430   6.821   5.516   1.319
11163TIP3   OH233431   7.903   1.436   2.936
11163TIP3    H133432   7.901   1.446   2.840
11163TIP3    H233433   7.821   1.474   2.965
11164TIP3   OH233434   3.277   4.746   2.205
11164TIP3    H133435   3.252   4.833   2.235
11164TIP3    H233436   3.343   4.717   2.268
11165TIP3   OH233437   8.179   2.797   5.970
11165TIP3    H133438   8.214   2.825   5.885
11165TIP3    H233439   8.121   2.868   5.997
11166TIP3   OH233440   2.829   4.264   4.420
11166TIP3    H133441   2.754   4.315   4.450
11166TIP3    H233442   2.869   4.318   4.352
11167TIP3   OH233443   3.310   3.036   1.040
11167TIP3    H133444   3.305   3.131   1.051
11167TIP3    H233445   3.294   3.022   0.946
11168TIP3   OH233446   5.315   3.132   0.022
11168TIP3    H133447   5.342   3.059   0.077
11168TIP3    H233448   5.386   3.195   0.026
11169TIP3   OH233449   0.243   6.709   4.980
11169TIP3    H133450   0.208   6.710   5.069
11169TIP3    H233451   0.191   6.775   4.933
11170TIP3   OH233452   5.922   5.982   3.755
11170TIP3    H133453   5.888   5.918   3.817
11170TIP3    H233454   5.869   5.971   3.677
11171TIP3   OH233455   5.481   0.806   1.509
11171TIP3    H133456   5.480   0.886   1.563
11171TIP3    H233457   5.429   0.829   1.432
11172TIP3   OH233458   5.429   7.002   4.495
11172TIP3    H133459   5.431   7.067   4.565
11172TIP3    H233460   5.413   7.053   4.416
11173TIP3   OH233461   3.091   7.643   4.183
11173TIP3    H133462   3.156   7.576   4.207
11173TIP3    H233463   3.122   7.677   4.099
11174TIP3   OH233464   0.158   0.661   4.198
11174TIP3    H133465   0.249   0.643   4.220
11174TIP3    H233466   0.134   0.591   4.137
11175TIP3   OH233467   2.143   4.302   5.886
11175TIP3    H133468   2.132   4.393   5.914
11175TIP3    H233469   2.107   4.299   5.798
11176TIP3   OH233470   8.018   4.265   0.428
11176TIP3    H133471   7.965   4.334   0.388
11176TIP3    H233472   8.017   4.285   0.521
11177TIP3   OH233473   3.029   3.731   1.306
11177TIP3    H133474   3.003   3.735   1.214
11177TIP3    H233475   3.104   3.790   1.313
11178TIP3   OH233476   4.930   3.582   3.817
11178TIP3    H133477   4.839   3.607   3.831
11178TIP3    H233478   4.964   3.563   3.905
11179TIP3   OH233479   1.287   3.776   1.975
11179TIP3    H133480   1.270   3.749   1.885
11179TIP3    H233481   1.360   3.839   1.968
11180TIP3   OH233482   0.163   4.161   1.335
11180TIP3    H133483   0.148   4.136   1.427
11180TIP3    H233484   0.178   4.255   1.339
11181TIP3   OH233485   2.229   4.670   5.022
11181TIP3    H133486   2.314   4.628   5.034
11181TIP3    H233487   2.234   4.748   5.078
11182TIP3   OH233488   4.491   6.190   5.848
11182TIP3    H133489   4.500   6.255   5.778
11182TIP3    H233490   4.417   6.136   5.821
11183TIP3   OH233491   2.311   1.335   5.528
11183TIP3    H133492   2.218   1.348   5.512
11183TIP3    H233493   2.343   1.423   5.552
11184TIP3   OH233494   1.913   7.743   0.846
11184TIP3    H133495   1.957   7.662   0.871
11184TIP3    H233496   1.940   7.758   0.756
11185TIP3   OH233497   2.542   4.497   3.959
11185TIP3    H133498   2.522   4.405   3.973
11185TIP3    H233499   2.459   4.543   3.974
11186TIP3   OH233500   4.120   4.587   4.185
11186TIP3    H133501   4.105   4.630   4.100
11186TIP3    H233502   4.203   4.541   4.174
11187TIP3   OH233503   3.615   1.697   2.453
11187TIP3    H133504   3.589   1.683   2.361
11187TIP3    H233505   3.704   1.732   2.447
11188TIP3   OH233506   4.063   5.359   2.717
11188TIP3    H133507   4.150   5.393   2.696
11188TIP3    H233508   4.054   5.281   2.662
11189TIP3   OH233509   6.824   6.733   5.261
11189TIP3    H133510   6.872   6.800   5.311
11189TIP3    H233511   6.732   6.747   5.284
11190TIP3   OH233512   1.144   3.296   6.253
11190TIP3    H133513   1.084   3.259   6.189
11190TIP3    H233514   1.212   3.230   6.264
11191TIP3   OH233515   3.325   3.829   2.684
11191TIP3    H133516   3.379   3.899   2.722
11191TIP3    H233517   3.247   3.827   2.739
11192TIP3   OH233518   2.246   3.905   6.228
11192TIP3    H133519   2.221   3.824   6.273
11192TIP3    H233520   2.180   3.969   6.256
11193TIP3   OH233521   1.769   7.655   2.057
11193TIP3    H133522   1.822   7.575   2.054
11193TIP3    H233523   1.817   7.716   2.001
11194TIP3   OH233524   0.499   4.296   3.157
11194TIP3    H133525   0.557   4.343   3.217
11194TIP3    H233526   0.412   4.306   3.196
11195TIP3   OH233527   0.640   4.359   1.402
11195TIP3    H133528   0.673   4.313   1.478
11195TIP3    H233529   0.584   4.428   1.439
11196TIP3   OH233530   6.512   5.949   3.268
11196TIP3    H133531   6.454   5.994   3.329
11196TIP3    H233532   6.493   5.856   3.282
11197TIP3   OH233533   7.402   4.109   3.386
11197TIP3    H133534   7.373   4.083   3.298
11197TIP3    H233535   7.327   4.155   3.423
11198TIP3   OH233536   6.267   3.168   2.160
11198TIP3    H133537   6.232   3.144   2.074
11198TIP3    H233538   6.257   3.089   2.213
11199TIP3   OH233539   0.752   1.590   5.218
11199TIP3    H133540   0.822   1.539   5.258
11199TIP3    H233541   0.683   1.592   5.285
11200TIP3   OH233542   7.229   4.591   6.795
11200TIP3    H133543   7.187   4.644   6.862
11200TIP3    H233544   7.267   4.655   6.735
11201TIP3   OH233545   2.041   3.968   5.904
11201TIP3    H133546   2.043   3.873   5.908
11201TIP3    H233547   2.015   3.995   5.992
11202TIP3   OH233548   2.599   6.466   4.005
11202TIP3    H133549   2.616   6.384   3.959
11202TIP3    H233550   2.515   6.496   3.969
11203TIP3   OH233551   5.558   3.416   0.518
11203TIP3    H133552   5.654   3.415   0.527
11203TIP3    H233553   5.534   3.323   0.520
11204TIP3   OH233554   0.510   7.173   6.072
11204TIP3    H133555   0.425   7.138   6.100
11204TIP3    H233556   0.572   7.141   6.137
11205TIP3   OH233557   4.109   1.784   0.649
11205TIP3    H133558   4.114   1.713   0.713
11205TIP3    H233559   4.176   1.761   0.584
11206TIP3   OH233560   4.574   0.306   3.706
11206TIP3    H133561   4.584   0.317   3.801
11206TIP3    H233562   4.517   0.378   3.679
11207TIP3   OH233563   8.230   4.840   6.248
11207TIP3    H133564   8.277   4.915   6.285
11207TIP3    H233565   8.266   4.764   6.293
11208TIP3   OH233566   4.919   1.502   6.228
11208TIP3    H133567   4.900   1.584   6.183
11208TIP3    H233568   4.951   1.444   6.159
11209TIP3   OH233569   3.483   3.429   3.570
11209TIP3    H133570   3.502   3.522   3.557
11209TIP3    H233571   3.486   3.392   3.481
11210TIP3   OH233572   4.118   2.411   2.035
11210TIP3    H133573   4.104   2.317   2.032
11210TIP3    H233574   4.070   2.441   2.112
11211TIP3   OH233575   0.910   4.702   0.628
11211TIP3    H133576   0.957   4.621   0.643
11211TIP3    H233577   0.831   4.676   0.581
11212TIP3   OH233578   4.798   5.806   1.290
11212TIP3    H133579   4.728   5.847   1.239
11212TIP3    H233580   4.843   5.749   1.228
11213TIP3   OH233581   1.935   6.409   4.946
11213TIP3    H133582   1.911   6.316   4.945
11213TIP3    H233583   1.871   6.450   5.004
11214TIP3   OH233584   5.450   7.562   4.967
11214TIP3    H133585   5.375   7.579   5.023
11214TIP3    H233586   5.521   7.539   5.028
11215TIP3   OH233587   0.947   1.123   1.988
11215TIP3    H133588   0.981   1.033   1.982
11215TIP3    H233589   0.856   1.112   2.017
11216TIP3   OH233590   4.021   7.103   3.153
11216TIP3    H133591   3.990   7.192   3.169
11216TIP3    H233592   3.958   7.066   3.091
11217TIP3   OH233593   5.734   2.047   4.993
11217TIP3    H133594   5.776   1.987   5.054
11217TIP3    H233595   5.776   2.028   4.909
11218TIP3   OH233596   7.430   7.186   2.969
11218TIP3    H133597   7.381   7.140   3.037
11218TIP3    H233598   7.373   7.182   2.892
11219TIP3   OH233599   3.791   3.154   6.147
11219TIP3    H133600   3.754   3.168   6.235
11219TIP3    H233601   3.885   3.170   6.158
11220TIP3   OH233602   2.034   0.660  -0.038
11220TIP3    H133603   1.980   0.726  -0.082
11220TIP3    H233604   1.992   0.648   0.047
11221TIP3   OH233605   2.855   3.898   6.007
11221TIP3    H133606   2.850   3.867   6.097
11221TIP3    H233607   2.883   3.821   5.957
11222TIP3   OH233608   2.092   3.088   5.336
11222TIP3    H133609   2.117   3.043   5.255
11222TIP3    H233610   2.028   3.154   5.308
11223TIP3   OH233611   3.058   7.091   0.106
11223TIP3    H133612   3.078   7.091   0.012
11223TIP3    H233613   2.970   7.130   0.112
11224TIP3   OH233614   6.263   1.388   6.456
11224TIP3    H133615   6.346   1.365   6.415
11224TIP3    H233616   6.209   1.309   6.447
11225TIP3   OH233617   6.148   6.370   1.181
11225TIP3    H133618   6.123   6.378   1.088
11225TIP3    H233619   6.070   6.398   1.229
11226TIP3   OH233620   4.064   0.118   3.082
11226TIP3    H133621   4.152   0.134   3.115
11226TIP3    H233622   4.015   0.085   3.157
11227TIP3   OH233623   4.196   5.794   3.645
11227TIP3    H133624   4.176   5.828   3.557
11227TIP3    H233625   4.123   5.737   3.666
11228TIP3   OH233626   8.304   2.331   2.638
11228TIP3    H133627   8.335   2.245   2.667
11228TIP3    H233628   8.379   2.389   2.651
11229TIP3   OH233629   5.401   0.402   4.231
11229TIP3    H133630   5.407   0.469   4.300
11229TIP3    H233631   5.368   0.324   4.275
11230TIP3   OH233632   4.983   6.741   3.633
11230TIP3    H133633   4.995   6.812   3.570
11230TIP3    H233634   5.011   6.777   3.716
11231TIP3   OH233635   5.494   6.042   2.245
11231TIP3    H133636   5.405   6.069   2.267
11231TIP3    H233637   5.547   6.121   2.261
11232TIP3   OH233638   0.437   6.425   6.764
11232TIP3    H133639   0.376   6.386   6.701
11232TIP3    H233640   0.523   6.416   6.723
11233TIP3   OH233641   2.610   2.412   4.177
11233TIP3    H133642   2.691   2.386   4.220
11233TIP3    H233643   2.595   2.344   4.112
11234TIP3   OH233644   7.514   6.864   1.569
11234TIP3    H133645   7.449   6.925   1.605
11234TIP3    H233646   7.567   6.918   1.510
11235TIP3   OH233647   1.007   6.568   4.426
11235TIP3    H133648   1.044   6.550   4.339
11235TIP3    H233649   1.013   6.485   4.472
11236TIP3   OH233650   2.509   3.258   3.322
11236TIP3    H133651   2.465   3.308   3.253
11236TIP3    H233652   2.602   3.259   3.296
11237TIP3   OH233653   3.483   7.157   3.136
11237TIP3    H133654   3.537   7.234   3.117
11237TIP3    H233655   3.543   7.083   3.130
11238TIP3   OH233656   0.178   7.462   2.181
11238TIP3    H133657   0.109   7.528   2.190
11238TIP3    H233658   0.144   7.400   2.116
11239TIP3   OH233659   2.761   7.065   0.674
11239TIP3    H133660   2.796   7.059   0.586
11239TIP3    H233661   2.679   7.015   0.671
11240TIP3   OH233662   3.949   0.629   0.859
11240TIP3    H133663   3.867   0.635   0.810
11240TIP3    H233664   3.996   0.710   0.837
11241TIP3   OH233665   7.186   1.243   2.039
11241TIP3    H133666   7.246   1.169   2.028
11241TIP3    H233667   7.110   1.206   2.083
11242TIP3   OH233668   7.250   7.221   0.880
11242TIP3    H133669   7.192   7.219   0.956
11242TIP3    H233670   7.292   7.135   0.879
11243TIP3   OH233671   2.602   2.585   5.325
11243TIP3    H133672   2.615   2.580   5.420
11243TIP3    H233673   2.605   2.678   5.305
11244TIP3   OH233674   7.538   6.708   1.990
11244TIP3    H133675   7.604   6.651   1.949
11244TIP3    H233676   7.536   6.786   1.934
11245TIP3   OH233677   5.609   7.608   5.587
11245TIP3    H133678   5.579   7.580   5.674
11245TIP3    H233679   5.602   7.703   5.590
11246TIP3   OH233680   6.058   2.051   2.867
11246TIP3    H133681   5.976   2.023   2.825
11246TIP3    H233682   6.100   2.107   2.803
11247TIP3   OH233683   2.733   7.137   1.876
11247TIP3    H133684   2.646   7.098   1.869
11247TIP3    H233685   2.763   7.114   1.964
11248TIP3   OH233686   1.869   5.825   5.162
11248TIP3    H133687   1.920   5.825   5.081
11248TIP3    H233688   1.802   5.758   5.148
11249TIP3   OH233689   4.145   3.259   3.448
11249TIP3    H133690   4.118   3.347   3.475
11249TIP3    H233691   4.240   3.263   3.443
11250TIP3   OH233692   2.946   7.347   6.018
11250TIP3    H133693   2.852   7.339   6.032
11250TIP3    H233694   2.986   7.303   6.093
11251TIP3   OH233695   3.195   6.405   5.004
11251TIP3    H133696   3.133   6.339   5.036
11251TIP3    H233697   3.139   6.471   4.962
11252TIP3   OH233698   7.547   6.982   6.641
11252TIP3    H133699   7.572   6.949   6.555
11252TIP3    H233700   7.586   6.920   6.702
11253TIP3   OH233701   4.741   2.458   0.555
11253TIP3    H133702   4.746   2.363   0.544
11253TIP3    H233703   4.760   2.473   0.647
11254TIP3   OH233704   3.055   3.202   2.023
11254TIP3    H133705   3.118   3.180   1.954
11254TIP3    H233706   2.991   3.258   1.979
11255TIP3   OH233707   6.598   6.574   4.686
11255TIP3    H133708   6.596   6.522   4.766
11255TIP3    H233709   6.652   6.650   4.709
11256TIP3   OH233710   3.533   2.746   3.882
11256TIP3    H133711   3.499   2.781   3.964
11256TIP3    H233712   3.487   2.663   3.871
11257TIP3   OH233713   1.041   7.291   0.910
11257TIP3    H133714   0.985   7.236   0.965
11257TIP3    H233715   1.012   7.380   0.928
11258TIP3   OH233716   2.603   4.272   0.697
11258TIP3    H133717   2.647   4.222   0.628
11258TIP3    H233718   2.564   4.347   0.652
11259TIP3   OH233719   1.086   3.504   2.433
11259TIP3    H133720   1.036   3.546   2.503
11259TIP3    H233721   1.171   3.547   2.435
11260TIP3   OH233722   7.443   4.760   5.092
11260TIP3    H133723   7.417   4.689   5.032
11260TIP3    H233724   7.394   4.743   5.172
11261TIP3   OH233725   7.909   7.377   4.791
11261TIP3    H133726   7.833   7.324   4.817
11261TIP3    H233727   7.933   7.343   4.705
11262TIP3   OH233728   1.085   2.668   5.826
11262TIP3    H133729   1.052   2.757   5.819
11262TIP3    H233730   1.176   2.674   5.798
11263TIP3   OH233731   7.926   7.847   6.565
11263TIP3    H133732   7.930   7.909   6.493
11263TIP3    H233733   7.916   7.762   6.523
11264TIP3   OH233734   6.347   2.454   2.343
11264TIP3    H133735   6.391   2.440   2.427
11264TIP3    H233736   6.323   2.366   2.313
11265TIP3   OH233737   5.696   6.385   1.745
11265TIP3    H133738   5.715   6.309   1.691
11265TIP3    H233739   5.603   6.377   1.766
11266TIP3   OH233740   0.263   0.195   3.078
11266TIP3    H133741   0.203   0.140   3.128
11266TIP3    H233742   0.247   0.284   3.110
11267TIP3   OH233743   5.814   0.458   0.757
11267TIP3    H133744   5.866   0.521   0.806
11267TIP3    H233745   5.860   0.374   0.768
11268TIP3   OH233746   7.205   2.936   5.439
11268TIP3    H133747   7.272   2.956   5.505
11268TIP3    H233748   7.171   3.021   5.413
11269TIP3   OH233749   7.168   5.141   5.329
11269TIP3    H133750   7.215   5.106   5.406
11269TIP3    H233751   7.226   5.121   5.255
11270TIP3   OH233752   7.893   4.716   0.834
11270TIP3    H133753   7.975   4.745   0.793
11270TIP3    H233754   7.911   4.626   0.861
11271TIP3   OH233755   6.115   2.088   5.703
11271TIP3    H133756   6.037   2.056   5.657
11271TIP3    H233757   6.158   2.145   5.639
11272TIP3   OH233758   1.091   5.362   6.421
11272TIP3    H133759   1.175   5.342   6.463
11272TIP3    H233760   1.043   5.411   6.488
11273TIP3   OH233761   7.399   0.846   2.295
11273TIP3    H133762   7.489   0.871   2.317
11273TIP3    H233763   7.408   0.778   2.228
11274TIP3   OH233764   6.896   3.825   4.122
11274TIP3    H133765   6.911   3.857   4.033
11274TIP3    H233766   6.922   3.897   4.178
11275TIP3   OH233767   5.976   7.345   4.699
11275TIP3    H133768   5.964   7.440   4.709
11275TIP3    H233769   6.048   7.324   4.759
11276TIP3   OH233770   2.257   6.317  -0.005
11276TIP3    H133771   2.172   6.288  -0.038
11276TIP3    H233772   2.318   6.298  -0.076
11277TIP3   OH233773   0.515   0.625   0.557
11277TIP3    H133774   0.430   0.586   0.538
11277TIP3    H233775   0.576   0.551   0.559
11278TIP3   OH233776   0.059   2.430   1.809
11278TIP3    H133777  -0.009   2.459   1.870
11278TIP3    H233778   0.120   2.380   1.864
11279TIP3   OH233779   3.921   6.320   3.380
11279TIP3    H133780   3.926   6.242   3.436
11279TIP3    H233781   3.960   6.292   3.297
11280TIP3   OH233782   2.004   4.688   3.458
11280TIP3    H133783   1.930   4.686   3.396
11280TIP3    H233784   2.038   4.777   3.451
11281TIP3   OH233785   1.176   2.873   2.967
11281TIP3    H133786   1.166   2.955   2.918
11281TIP3    H233787   1.092   2.829   2.957
11282TIP3   OH233788   1.461   6.816   5.080
11282TIP3    H133789   1.519   6.829   5.156
11282TIP3    H233790   1.427   6.903   5.062
11283TIP3   OH233791   7.602   3.364   6.354
11283TIP3    H133792   7.566   3.446   6.388
11283TIP3    H233793   7.692   3.385   6.331
11284TIP3   OH233794   2.756   6.625   5.141
11284TIP3    H133795   2.711   6.575   5.210
11284TIP3    H233796   2.686   6.669   5.094
11285TIP3   OH233797   1.838   1.144   0.522
11285TIP3    H133798   1.856   1.226   0.568
11285TIP3    H233799   1.862   1.076   0.585
11286TIP3   OH233800   4.101   5.735   1.051
11286TIP3    H133801   4.106   5.656   1.105
11286TIP3    H233802   4.119   5.704   0.962
11287TIP3   OH233803   7.445   3.339   3.602
11287TIP3    H133804   7.486   3.262   3.561
11287TIP3    H233805   7.409   3.389   3.528
11288TIP3   OH233806   1.125   3.691   3.444
11288TIP3    H133807   1.118   3.682   3.539
11288TIP3    H233808   1.217   3.714   3.430
11289TIP3   OH233809   0.102   5.018   6.302
11289TIP3    H133810   0.157   5.092   6.279
11289TIP3    H233811   0.111   5.010   6.397
11290TIP3   OH233812   0.122   0.164   0.870
11290TIP3    H133813   0.043   0.216   0.887
11290TIP3    H233814   0.184   0.226   0.831
11291TIP3   OH233815   6.460   3.707   5.827
11291TIP3    H133816   6.447   3.802   5.822
11291TIP3    H233817   6.385   3.670   5.780
11292TIP3   OH233818   1.465   0.978   4.537
11292TIP3    H133819   1.510   0.923   4.601
11292TIP3    H233820   1.533   1.004   4.475
11293TIP3   OH233821   4.621   1.246   1.591
11293TIP3    H133822   4.705   1.292   1.595
11293TIP3    H233823   4.645   1.153   1.586
11294TIP3   OH233824   3.973   5.458   1.868
11294TIP3    H133825   3.912   5.397   1.827
11294TIP3    H233826   3.969   5.536   1.812
11295TIP3   OH233827   4.615   7.470   1.879
11295TIP3    H133828   4.708   7.465   1.902
11295TIP3    H233829   4.584   7.379   1.886
11296TIP3   OH233830   5.625   1.975   4.004
11296TIP3    H133831   5.627   1.898   4.061
11296TIP3    H233832   5.637   2.049   4.064
11297TIP3   OH233833   3.714   5.685   0.970
11297TIP3    H133834   3.689   5.713   0.882
11297TIP3    H233835   3.767   5.757   1.004
11298TIP3   OH233836   3.255   0.037   0.757
11298TIP3    H133837   3.335   0.080   0.786
11298TIP3    H233838   3.253   0.052   0.662
11299TIP3   OH233839   0.294   0.008   6.502
11299TIP3    H133840   0.313   0.057   6.421
11299TIP3    H233841   0.230   0.062   6.548
11300TIP3   OH233842   6.463   6.983   5.868
11300TIP3    H133843   6.461   7.001   5.962
11300TIP3    H233844   6.375   6.950   5.848
11301TIP3   OH233845   7.086   7.619   2.736
11301TIP3    H133846   7.137   7.696   2.762
11301TIP3    H233847   7.089   7.620   2.640
11302TIP3   OH233848   2.439   7.261   0.824
11302TIP3    H133849   2.437   7.198   0.752
11302TIP3    H233850   2.531   7.282   0.834
11303TIP3   OH233851   7.727   3.356   6.718
11303TIP3    H133852   7.728   3.261   6.706
11303TIP3    H233853   7.798   3.374   6.779
11304TIP3   OH233854   2.991   3.715   3.432
11304TIP3    H133855   3.036   3.657   3.493
11304TIP3    H233856   3.045   3.794   3.429
11305TIP3   OH233857   5.997   2.785   3.138
11305TIP3    H133858   5.943   2.726   3.190
11305TIP3    H233859   6.087   2.752   3.149
11306TIP3   OH233860   2.603   3.283   2.499
11306TIP3    H133861   2.538   3.221   2.467
11306TIP3    H233862   2.566   3.317   2.581
11307TIP3   OH233863   4.104   7.019   2.415
11307TIP3    H133864   4.122   7.037   2.507
11307TIP3    H233865   4.016   7.055   2.400
11308TIP3   OH233866   1.242   3.843   6.199
11308TIP3    H133867   1.151   3.859   6.176
11308TIP3    H233868   1.292   3.891   6.134
11309TIP3   OH233869   7.568   5.896   2.501
11309TIP3    H133870   7.548   5.989   2.497
11309TIP3    H233871   7.596   5.874   2.412
11310TIP3   OH233872   6.635   3.284   1.461
11310TIP3    H133873   6.635   3.244   1.374
11310TIP3    H233874   6.717   3.255   1.500
11311TIP3   OH233875   3.639   5.756   3.613
11311TIP3    H133876   3.661   5.848   3.596
11311TIP3    H233877   3.633   5.750   3.708
11312TIP3   OH233878   6.230   5.931   6.641
11312TIP3    H133879   6.150   5.907   6.594
11312TIP3    H233880   6.206   6.009   6.691
11313TIP3   OH233881   3.393   2.192   0.819
11313TIP3    H133882   3.456   2.262   0.835
11313TIP3    H233883   3.308   2.234   0.825
11314TIP3   OH233884   1.927   1.166   6.147
11314TIP3    H133885   1.923   1.174   6.052
11314TIP3    H233886   1.931   1.257   6.179
11315TIP3   OH233887   6.920   3.603   6.362
11315TIP3    H133888   6.991   3.541   6.343
11315TIP3    H233889   6.923   3.616   6.456
11316TIP3   OH233890   0.165   4.934   1.058
11316TIP3    H133891   0.250   4.963   1.093
11316TIP3    H233892   0.127   5.013   1.020
11317TIP3   OH233893   4.779   2.865   3.060
11317TIP3    H133894   4.798   2.933   2.995
11317TIP3    H233895   4.860   2.857   3.110
11318TIP3   OH233896   5.572   3.421   2.484
11318TIP3    H133897   5.560   3.365   2.407
11318TIP3    H233898   5.584   3.509   2.449
11319TIP3   OH233899   4.910   4.188   2.490
11319TIP3    H133900   4.964   4.118   2.527
11319TIP3    H233901   4.850   4.213   2.560
11320TIP3   OH233902   1.605   0.174   1.122
11320TIP3    H133903   1.619   0.266   1.100
11320TIP3    H233904   1.580   0.133   1.038
11321TIP3   OH233905   5.557   4.413   6.165
11321TIP3    H133906   5.588   4.357   6.095
11321TIP3    H233907   5.583   4.368   6.246
11322TIP3   OH233908   5.223   3.043   0.656
11322TIP3    H133909   5.202   3.129   0.691
11322TIP3    H233910   5.311   3.052   0.620
11323TIP3   OH233911   5.817   7.775   4.365
11323TIP3    H133912   5.842   7.845   4.305
11323TIP3    H233913   5.897   7.755   4.413
11324TIP3   OH233914   1.167   3.006   0.547
11324TIP3    H133915   1.184   3.082   0.603
11324TIP3    H233916   1.083   3.024   0.507
11325TIP3   OH233917   6.727   6.697   0.355
11325TIP3    H133918   6.807   6.695   0.407
11325TIP3    H233919   6.722   6.611   0.314
11326TIP3   OH233920   5.040   0.034   2.403
11326TIP3    H133921   5.034  -0.012   2.320
11326TIP3    H233922   4.952   0.029   2.440
11327TIP3   OH233923   7.718   2.639   6.218
11327TIP3    H133924   7.704   2.709   6.280
11327TIP3    H233925   7.754   2.567   6.270
11328TIP3   OH233926   2.048   6.744   0.981
11328TIP3    H133927   1.987   6.750   0.908
11328TIP3    H233928   2.018   6.668   1.032
11329TIP3   OH233929   6.629   1.471   3.925
11329TIP3    H133930   6.723   1.485   3.923
11329TIP3    H233931   6.597   1.505   3.841
11330TIP3   OH233932   4.772   6.850   0.694
11330TIP3    H133933   4.768   6.776   0.754
11330TIP3    H233934   4.804   6.922   0.748
11331TIP3   OH233935   0.090   7.738   3.045
11331TIP3    H133936   0.176   7.736   3.002
11331TIP3    H233937   0.077   7.649   3.077
11332TIP3   OH233938   3.518   5.923   1.054
11332TIP3    H133939   3.560   5.975   0.985
11332TIP3    H233940   3.465   5.986   1.103
11333TIP3   OH233941   6.310   1.534   1.798
11333TIP3    H133942   6.305   1.565   1.708
11333TIP3    H233943   6.370   1.460   1.795
11334TIP3   OH233944   3.781   1.949   5.507
11334TIP3    H133945   3.792   2.042   5.484
11334TIP3    H233946   3.750   1.908   5.427
11335TIP3   OH233947   7.813   6.033   4.748
11335TIP3    H133948   7.878   6.067   4.810
11335TIP3    H233949   7.858   5.962   4.703
11336TIP3   OH233950   0.166   1.367   2.528
11336TIP3    H133951   0.164   1.360   2.433
11336TIP3    H233952   0.240   1.426   2.546
11337TIP3   OH233953   2.378   6.799   4.710
11337TIP3    H133954   2.333   6.762   4.634
11337TIP3    H233955   2.440   6.732   4.737
11338TIP3   OH233956   3.117   3.239   6.418
11338TIP3    H133957   3.188   3.302   6.426
11338TIP3    H233958   3.159   3.154   6.428
11339TIP3   OH233959   5.380   0.149   6.682
11339TIP3    H133960   5.327   0.075   6.653
11339TIP3    H233961   5.375   0.146   6.778
11340TIP3   OH233962   2.911   7.454   6.681
11340TIP3    H133963   2.865   7.534   6.656
11340TIP3    H233964   3.002   7.480   6.691
11341TIP3   OH233965   5.375   1.615   2.770
11341TIP3    H133966   5.464   1.646   2.756
11341TIP3    H233967   5.350   1.651   2.855
11342TIP3   OH233968   4.357   4.472   0.854
11342TIP3    H133969   4.264   4.447   0.848
11342TIP3    H233970   4.361   4.531   0.928
11343TIP3   OH233971   1.184   4.378   1.715
11343TIP3    H133972   1.274   4.380   1.749
11343TIP3    H233973   1.130   4.355   1.791
11344TIP3   OH233974   7.686   2.149   3.886
11344TIP3    H133975   7.702   2.239   3.913
11344TIP3    H233976   7.748   2.097   3.936
11345TIP3   OH233977   4.767   3.251   5.922
11345TIP3    H133978   4.720   3.172   5.896
11345TIP3    H233979   4.836   3.260   5.857
11346TIP3   OH233980   5.841   5.906   0.678
11346TIP3    H133981   5.898   5.909   0.601
11346TIP3    H233982   5.798   5.821   0.674
11347TIP3   OH233983   6.401   5.850   1.193
11347TIP3    H133984   6.447   5.774   1.228
11347TIP3    H233985   6.405   5.838   1.098
11348TIP3   OH233986   0.113   5.434   2.523
11348TIP3    H133987   0.207   5.422   2.534
11348TIP3    H233988   0.077   5.434   2.611
11349TIP3   OH233989   2.529   3.962   2.067
11349TIP3    H133990   2.549   4.045   2.111
11349TIP3    H233991   2.435   3.967   2.049
11350TIP3   OH233992   2.294   5.710   6.082
11350TIP3    H133993   2.224   5.764   6.119
11350TIP3    H233994   2.313   5.646   6.150
11351TIP3   OH233995   5.883   6.142   6.066
11351TIP3    H133996   5.794   6.151   6.100
11351TIP3    H233997   5.933   6.209   6.112
11352TIP3   OH233998   5.617   4.852   5.846
11352TIP3    H133999   5.662   4.808   5.774
11352TIP3    H234000   5.609   4.785   5.913
11353TIP3   OH234001   1.865   4.691   1.231
11353TIP3    H134002   1.956   4.681   1.204
11353TIP3    H234003   1.870   4.739   1.313
11354TIP3   OH234004   1.906   2.503   2.467
11354TIP3    H134005   1.915   2.508   2.562
11354TIP3    H234006   1.922   2.592   2.436
11355TIP3   OH234007   4.392   2.939   1.177
11355TIP3    H134008   4.429   3.024   1.202
11355TIP3    H234009   4.313   2.931   1.230
11356TIP3   OH234010   8.133  -0.041   0.889
11356TIP3    H134011   8.088   0.036   0.923
11356TIP3    H234012   8.179  -0.009   0.811
11357TIP3   OH234013   2.109   0.760   5.974
11357TIP3    H134014   2.030   0.706   5.978
11357TIP3    H234015   2.095   0.817   5.898
11358TIP3   OH234016   6.110   6.250   0.576
11358TIP3    H134017   6.177   6.187   0.604
11358TIP3    H234018   6.038   6.238   0.638
11359TIP3   OH234019   4.724   1.717   1.402
11359TIP3    H134020   4.784   1.784   1.434
11359TIP3    H234021   4.672   1.693   1.478
11360TIP3   OH234022   7.224   4.324   5.265
11360TIP3    H134023   7.137   4.340   5.229
11360TIP3    H234024   7.213   4.331   5.360
11361TIP3   OH234025   2.173   4.643   0.033
11361TIP3    H134026   2.256   4.626   0.077
11361TIP3    H234027   2.197   4.674  -0.054
11362TIP3   OH234028   6.762   4.515   2.924
11362TIP3    H134029   6.739   4.599   2.885
11362TIP3    H234030   6.730   4.520   3.014
11363TIP3   OH234031   1.960   0.812   0.445
11363TIP3    H134032   2.036   0.842   0.397
11363TIP3    H234033   1.924   0.741   0.392
11364TIP3   OH234034   3.437   7.722   1.849
11364TIP3    H134035   3.381   7.683   1.781
11364TIP3    H234036   3.522   7.680   1.837
11365TIP3   OH234037   7.933   6.463   5.088
11365TIP3    H134038   8.021   6.477   5.053
11365TIP3    H234039   7.946   6.452   5.182
11366TIP3   OH234040   1.929   2.834   1.478
11366TIP3    H134041   1.837   2.826   1.454
11366TIP3    H234042   1.959   2.744   1.490
11367TIP3   OH234043   0.356   6.497   4.134
11367TIP3    H134044   0.372   6.591   4.143
11367TIP3    H234045   0.359   6.481   4.040
11368TIP3   OH234046   5.367   3.992   1.472
11368TIP3    H134047   5.424   4.035   1.408
11368TIP3    H234048   5.365   4.051   1.547
11369TIP3   OH234049   8.026   6.800   4.913
11369TIP3    H134050   7.982   6.791   4.998
11369TIP3    H234051   8.116   6.774   4.929
11370TIP3   OH234052   5.555   3.139   5.590
11370TIP3    H134053   5.524   3.146   5.680
11370TIP3    H234054   5.607   3.058   5.588
11371TIP3   OH234055   6.851   5.199   5.135
11371TIP3    H134056   6.763   5.216   5.102
11371TIP3    H234057   6.856   5.104   5.142
11372TIP3   OH234058   1.136   1.318   2.066
11372TIP3    H134059   1.225   1.286   2.054
11372TIP3    H234060   1.081   1.247   2.033
11373TIP3   OH234061   7.995   3.259   5.713
11373TIP3    H134062   8.008   3.283   5.621
11373TIP3    H234063   8.077   3.217   5.738
11374TIP3   OH234064   7.789   0.824   3.934
11374TIP3    H134065   7.748   0.908   3.958
11374TIP3    H234066   7.795   0.826   3.839
11375TIP3   OH234067   7.594   5.740   6.261
11375TIP3    H134068   7.629   5.742   6.350
11375TIP3    H234069   7.589   5.832   6.235
11376TIP3   OH234070   3.805   5.641   0.031
11376TIP3    H134071   3.880   5.644  -0.027
11376TIP3    H234072   3.826   5.705   0.100
11377TIP3   OH234073   6.200   5.361   0.387
11377TIP3    H134074   6.120   5.414   0.392
11377TIP3    H234075   6.168   5.272   0.368
11378TIP3   OH234076   1.482   0.089   6.619
11378TIP3    H134077   1.561   0.036   6.629
11378TIP3    H234078   1.510   0.165   6.569
11379TIP3   OH234079   7.697   3.327   2.403
11379TIP3    H134080   7.671   3.397   2.343
11379TIP3    H234081   7.793   3.332   2.405
11380TIP3   OH234082   3.587   4.830   2.655
11380TIP3    H134083   3.604   4.922   2.672
11380TIP3    H234084   3.561   4.794   2.739
11381TIP3   OH234085   4.103   4.435   2.642
11381TIP3    H134086   4.193   4.451   2.672
11381TIP3    H234087   4.111   4.433   2.546
11382TIP3   OH234088   4.380   3.405  -0.015
11382TIP3    H134089   4.371   3.328   0.041
11382TIP3    H234090   4.315   3.467   0.018
11383TIP3   OH234091   5.902   2.603   3.361
11383TIP3    H134092   5.980   2.586   3.412
11383TIP3    H234093   5.914   2.552   3.281
11384TIP3   OH234094   4.418   6.302   0.504
11384TIP3    H134095   4.419   6.381   0.450
11384TIP3    H234096   4.447   6.331   0.591
11385TIP3   OH234097   1.276   2.118   4.615
11385TIP3    H134098   1.200   2.170   4.588
11385TIP3    H234099   1.347   2.182   4.622
11386TIP3   OH234100   5.756   5.939   3.531
11386TIP3    H134101   5.693   5.877   3.495
11386TIP3    H234102   5.703   6.016   3.553
11387TIP3   OH234103   6.752   3.379   4.465
11387TIP3    H134104   6.794   3.297   4.489
11387TIP3    H234105   6.804   3.446   4.509
11388TIP3   OH234106   1.529   7.625   1.607
11388TIP3    H134107   1.598   7.584   1.660
11388TIP3    H234108   1.482   7.551   1.568
11389TIP3   OH234109   7.052   4.336   6.352
11389TIP3    H134110   7.056   4.376   6.439
11389TIP3    H234111   7.122   4.378   6.302
11390TIP3   OH234112   2.238   6.743   3.308
11390TIP3    H134113   2.170   6.786   3.256
11390TIP3    H234114   2.194   6.666   3.346
11391TIP3   OH234115   5.974   6.631   6.099
11391TIP3    H134116   6.049   6.608   6.045
11391TIP3    H234117   5.908   6.663   6.037
11392TIP3   OH234118   3.742   5.229   4.951
11392TIP3    H134119   3.709   5.187   4.872
11392TIP3    H234120   3.674   5.291   4.976
11393TIP3   OH234121   1.561   1.704   1.418
11393TIP3    H134122   1.521   1.779   1.462
11393TIP3    H234123   1.589   1.738   1.333
11394TIP3   OH234124   3.518   6.897   3.610
11394TIP3    H134125   3.463   6.881   3.534
11394TIP3    H234126   3.458   6.892   3.685
11395TIP3   OH234127   5.679   5.114   2.187
11395TIP3    H134128   5.704   5.206   2.186
11395TIP3    H234129   5.743   5.071   2.131
11396TIP3   OH234130   6.467   3.468   5.497
11396TIP3    H134131   6.513   3.407   5.555
11396TIP3    H234132   6.393   3.419   5.463
11397TIP3   OH234133   8.101   7.745   3.973
11397TIP3    H134134   8.083   7.829   3.931
11397TIP3    H234135   8.015   7.715   4.004
11398TIP3   OH234136   3.204   6.345   0.717
11398TIP3    H134137   3.195   6.403   0.642
11398TIP3    H234138   3.214   6.404   0.792
11399TIP3   OH234139   5.837   1.169   6.327
11399TIP3    H134140   5.826   1.098   6.264
11399TIP3    H234141   5.851   1.125   6.411
11400TIP3   OH234142   3.451   0.690   3.065
11400TIP3    H134143   3.375   0.743   3.041
11400TIP3    H234144   3.487   0.661   2.981
11401TIP3   OH234145   2.734   3.883   1.446
11401TIP3    H134146   2.770   3.803   1.485
11401TIP3    H234147   2.722   3.943   1.520
11402TIP3   OH234148   0.099   7.518   3.212
11402TIP3    H134149   0.194   7.524   3.204
11402TIP3    H234150   0.082   7.429   3.242
11403TIP3   OH234151   1.414   4.407   0.343
11403TIP3    H134152   1.347   4.476   0.332
11403TIP3    H234153   1.404   4.352   0.265
11404TIP3   OH234154   1.030   0.899   0.798
11404TIP3    H134155   1.062   0.989   0.798
11404TIP3    H234156   1.109   0.846   0.811
11405TIP3   OH234157   1.583   0.687   2.968
11405TIP3    H134158   1.526   0.757   2.936
11405TIP3    H234159   1.633   0.727   3.039
11406TIP3   OH234160   2.616   0.584   4.244
11406TIP3    H134161   2.604   0.674   4.213
11406TIP3    H234162   2.621   0.532   4.164
11407TIP3   OH234163   0.950   2.361   3.089
11407TIP3    H134164   0.945   2.384   3.181
11407TIP3    H234165   1.030   2.309   3.081
11408TIP3   OH234166   1.613   0.970   0.424
11408TIP3    H134167   1.677   1.038   0.447
11408TIP3    H234168   1.630   0.952   0.332
11409TIP3   OH234169   0.144   0.467   5.622
11409TIP3    H134170   0.138   0.482   5.716
11409TIP3    H234171   0.193   0.543   5.589
11410TIP3   OH234172   2.728   7.661   1.406
11410TIP3    H134173   2.797   7.617   1.456
11410TIP3    H234174   2.673   7.589   1.374
11411TIP3   OH234175   8.000   5.036   0.505
11411TIP3    H134176   7.926   5.044   0.565
11411TIP3    H234177   7.997   4.945   0.475
11412TIP3   OH234178   2.303   7.730   5.385
11412TIP3    H134179   2.362   7.677   5.438
11412TIP3    H234180   2.229   7.672   5.365
11413TIP3   OH234181   0.457   5.894   5.441
11413TIP3    H134182   0.517   5.969   5.437
11413TIP3    H234183   0.380   5.922   5.391
11414TIP3   OH234184   1.371   6.474   2.247
11414TIP3    H134185   1.360   6.568   2.238
11414TIP3    H234186   1.311   6.449   2.317
11415TIP3   OH234187   2.563   4.990   5.422
11415TIP3    H134188   2.553   4.933   5.346
11415TIP3    H234189   2.651   4.971   5.454
11416TIP3   OH234190   2.842   0.832   0.349
11416TIP3    H134191   2.801   0.862   0.268
11416TIP3    H234192   2.769   0.802   0.403
11417TIP3   OH234193   1.884   1.903   1.384
11417TIP3    H134194   1.801   1.880   1.344
11417TIP3    H234195   1.950   1.872   1.322
11418TIP3   OH234196   0.041   4.881   6.599
11418TIP3    H134197   0.112   4.833   6.642
11418TIP3    H234198   0.021   4.953   6.659
11419TIP3   OH234199   2.908   3.314   6.224
11419TIP3    H134200   2.943   3.249   6.285
11419TIP3    H234201   2.814   3.315   6.241
11420TIP3   OH234202   4.219   1.102   3.993
11420TIP3    H134203   4.160   1.066   4.059
11420TIP3    H234204   4.305   1.066   4.015
11421TIP3   OH234205   3.519   4.080   5.686
11421TIP3    H134206   3.527   4.082   5.591
11421TIP3    H234207   3.431   4.047   5.702
11422TIP3   OH234208   4.759   2.469   0.824
11422TIP3    H134209   4.783   2.539   0.884
11422TIP3    H234210   4.673   2.439   0.854
11423TIP3   OH234211   3.400   0.228   3.014
11423TIP3    H134212   3.495   0.214   3.014
11423TIP3    H234213   3.365   0.159   2.958
11424TIP3   OH234214   0.417   3.325   1.596
11424TIP3    H134215   0.459   3.349   1.679
11424TIP3    H234216   0.323   3.329   1.614
11425TIP3   OH234217   3.957   4.407   5.281
11425TIP3    H134218   3.969   4.459   5.201
11425TIP3    H234219   3.965   4.316   5.252
11426TIP3   OH234220   1.179   1.322   1.314
11426TIP3    H134221   1.209   1.327   1.224
11426TIP3    H234222   1.257   1.343   1.366
11427TIP3   OH234223   5.891   0.358   1.151
11427TIP3    H134224   5.812   0.338   1.101
11427TIP3    H234225   5.920   0.443   1.117
11428TIP3   OH234226   5.562   4.856   1.166
11428TIP3    H134227   5.477   4.875   1.206
11428TIP3    H234228   5.595   4.780   1.214
11429TIP3   OH234229   0.299   0.151   1.575
11429TIP3    H134230   0.350   0.232   1.573
11429TIP3    H234231   0.319   0.108   1.492
11430TIP3   OH234232   0.346   4.873   4.179
11430TIP3    H134233   0.435   4.905   4.164
11430TIP3    H234234   0.303   4.878   4.094
11431TIP3   OH234235   8.106   3.832   5.398
11431TIP3    H134236   8.049   3.795   5.466
11431TIP3    H234237   8.048   3.886   5.345
11432TIP3   OH234238   4.755   6.014   2.820
11432TIP3    H134239   4.791   6.102   2.826
11432TIP3    H234240   4.808   5.962   2.880
11433TIP3   OH234241   2.983   0.154   2.342
11433TIP3    H134242   3.002   0.156   2.248
11433TIP3    H234243   2.900   0.201   2.350
11434TIP3   OH234244   6.645   3.658   3.123
11434TIP3    H134245   6.707   3.601   3.077
11434TIP3    H234246   6.628   3.730   3.062
11435TIP3   OH234247   4.199   3.087   6.309
11435TIP3    H134248   4.118   3.043   6.337
11435TIP3    H234249   4.231   3.130   6.389
11436TIP3   OH234250   6.639   2.485   3.661
11436TIP3    H134251   6.583   2.515   3.590
11436TIP3    H234252   6.596   2.516   3.741
11437TIP3   OH234253   1.293   0.788   3.789
11437TIP3    H134254   1.315   0.706   3.745
11437TIP3    H234255   1.364   0.848   3.767
11438TIP3   OH234256   6.192   4.340   0.366
11438TIP3    H134257   6.192   4.254   0.406
11438TIP3    H234258   6.232   4.327   0.280
11439TIP3   OH234259   4.515   3.244   6.169
11439TIP3    H134260   4.546   3.264   6.081
11439TIP3    H234261   4.421   3.262   6.167
11440TIP3   OH234262   7.043   7.640   1.689
11440TIP3    H134263   7.018   7.590   1.611
11440TIP3    H234264   6.963   7.684   1.717
11441TIP3   OH234265   1.861   1.922   2.671
11441TIP3    H134266   1.849   1.980   2.746
11441TIP3    H234267   1.933   1.864   2.695
11442TIP3   OH234268   2.504   4.441   6.206
11442TIP3    H134269   2.489   4.488   6.287
11442TIP3    H234270   2.416   4.413   6.178
11443TIP3   OH234271   4.776   0.774   6.635
11443TIP3    H134272   4.702   0.833   6.618
11443TIP3    H234273   4.785   0.723   6.554
11444TIP3   OH234274   2.518   1.474   3.847
11444TIP3    H134275   2.540   1.513   3.762
11444TIP3    H234276   2.436   1.427   3.832
11445TIP3   OH234277   6.774   2.532   2.118
11445TIP3    H134278   6.837   2.461   2.134
11445TIP3    H234279   6.750   2.562   2.205
11446TIP3   OH234280   3.793   2.605   5.789
11446TIP3    H134281   3.749   2.545   5.850
11446TIP3    H234282   3.830   2.548   5.722
11447TIP3   OH234283   6.504   7.707   1.679
11447TIP3    H134284   6.574   7.690   1.616
11447TIP3    H234285   6.485   7.622   1.717
11448TIP3   OH234286   1.222   4.061   2.259
11448TIP3    H134287   1.176   4.084   2.178
11448TIP3    H234288   1.235   3.967   2.253
11449TIP3   OH234289   8.011   1.504   3.732
11449TIP3    H134290   8.050   1.418   3.746
11449TIP3    H234291   8.079   1.554   3.686
11450TIP3   OH234292   0.494   7.052   5.780
11450TIP3    H134293   0.570   6.998   5.800
11450TIP3    H234294   0.448   7.061   5.864
11451TIP3   OH234295   4.573   7.141   3.599
11451TIP3    H134296   4.506   7.108   3.658
11451TIP3    H234297   4.598   7.226   3.635
11452TIP3   OH234298   1.889   3.522   2.969
11452TIP3    H134299   1.892   3.509   2.874
11452TIP3    H234300   1.805   3.566   2.984
11453TIP3   OH234301   7.849   0.082   3.532
11453TIP3    H134302   7.758   0.109   3.520
11453TIP3    H234303   7.900   0.155   3.499
11454TIP3   OH234304   4.243   4.414   4.792
11454TIP3    H134305   4.242   4.424   4.697
11454TIP3    H234306   4.322   4.363   4.810
11455TIP3   OH234307   8.172   3.508   6.230
11455TIP3    H134308   8.179   3.458   6.311
11455TIP3    H234309   8.251   3.563   6.229
11456TIP3   OH234310   4.054   1.169   3.337
11456TIP3    H134311   4.037   1.224   3.414
11456TIP3    H234312   4.145   1.190   3.313
11457TIP3   OH234313   0.871   5.955   0.697
11457TIP3    H134314   0.899   5.864   0.701
11457TIP3    H234315   0.798   5.955   0.635
11458TIP3   OH234316   1.038   3.868   3.665
11458TIP3    H134317   0.978   3.938   3.692
11458TIP3    H234318   0.989   3.787   3.678
11459TIP3   OH234319   0.715   5.261   0.129
11459TIP3    H134320   0.667   5.217   0.058
11459TIP3    H234321   0.805   5.230   0.120
11460TIP3   OH234322   8.018   7.024   0.970
11460TIP3    H134323   8.018   6.938   1.012
11460TIP3    H234324   7.969   7.080   1.031
11461TIP3   OH234325   4.846   0.810   1.137
11461TIP3    H134326   4.760   0.774   1.115
11461TIP3    H234327   4.905   0.734   1.136
11462TIP3   OH234328   6.428   2.482   3.129
11462TIP3    H134329   6.513   2.511   3.095
11462TIP3    H234330   6.444   2.393   3.159
11463TIP3   OH234331   7.866   3.001   1.609
11463TIP3    H134332   7.867   3.097   1.601
11463TIP3    H234333   7.832   2.970   1.525
11464TIP3   OH234334   0.937   6.080   2.531
11464TIP3    H134335   1.006   6.128   2.485
11464TIP3    H234336   0.887   6.038   2.462
11465TIP3   OH234337   4.435   4.239   2.067
11465TIP3    H134338   4.521   4.201   2.081
11465TIP3    H234339   4.421   4.232   1.972
11466TIP3   OH234340   3.546   5.182   5.282
11466TIP3    H134341   3.598   5.110   5.318
11466TIP3    H234342   3.603   5.259   5.289
11467TIP3   OH234343   7.171   4.682   2.058
11467TIP3    H134344   7.146   4.775   2.059
11467TIP3    H234345   7.104   4.639   2.110
11468TIP3   OH234346   0.642   2.183   5.261
11468TIP3    H134347   0.600   2.104   5.230
11468TIP3    H234348   0.638   2.244   5.187
11469TIP3   OH234349   6.777   4.332   6.000
11469TIP3    H134350   6.864   4.368   6.015
11469TIP3    H234351   6.717   4.402   6.023
11470TIP3   OH234352   5.567   2.210   4.759
11470TIP3    H134353   5.629   2.277   4.790
11470TIP3    H234354   5.548   2.157   4.836
11471TIP3   OH234355   4.515   5.713   6.688
11471TIP3    H134356   4.520   5.655   6.764
11471TIP3    H234357   4.497   5.654   6.614
11472TIP3   OH234358   7.442   2.019   1.346
11472TIP3    H134359   7.492   2.024   1.265
11472TIP3    H234360   7.446   1.926   1.371
11473TIP3   OH234361   4.577   1.246   0.835
11473TIP3    H134362   4.611   1.160   0.861
11473TIP3    H234363   4.587   1.301   0.912
11474TIP3   OH234364   3.402   6.903   2.836
11474TIP3    H134365   3.469   6.881   2.901
11474TIP3    H234366   3.382   6.996   2.852
11475TIP3   OH234367   3.933   2.104   5.814
11475TIP3    H134368   3.965   2.014   5.823
11475TIP3    H234369   3.838   2.096   5.812
11476TIP3   OH234370   5.518   0.794   6.578
11476TIP3    H134371   5.507   0.886   6.554
11476TIP3    H234372   5.612   0.784   6.594
11477TIP3   OH234373   7.369   1.899   1.795
11477TIP3    H134374   7.461   1.872   1.801
11477TIP3    H234375   7.344   1.916   1.886
11478TIP3   OH234376   2.817   5.420   2.736
11478TIP3    H134377   2.764   5.462   2.804
11478TIP3    H234378   2.874   5.489   2.703
11479TIP3   OH234379   4.411   4.750   6.542
11479TIP3    H134380   4.424   4.670   6.592
11479TIP3    H234381   4.457   4.818   6.591
11480TIP3   OH234382   7.919   3.834   5.001
11480TIP3    H134383   7.839   3.796   4.964
11480TIP3    H234384   7.983   3.764   4.997
11481TIP3   OH234385   1.079   0.982   1.623
11481TIP3    H134386   1.154   0.954   1.569
11481TIP3    H234387   1.031   0.901   1.640
11482TIP3   OH234388   7.594   6.134   3.820
11482TIP3    H134389   7.510   6.175   3.839
11482TIP3    H234390   7.580   6.087   3.738
11483TIP3   OH234391   6.920   1.554   3.888
11483TIP3    H134392   6.883   1.614   3.823
11483TIP3    H234393   6.999   1.519   3.846
11484TIP3   OH234394   0.498   3.313   4.065
11484TIP3    H134395   0.505   3.221   4.038
11484TIP3    H234396   0.457   3.310   4.152
11485TIP3   OH234397   6.868   1.809   4.750
11485TIP3    H134398   6.773   1.804   4.758
11485TIP3    H234399   6.895   1.721   4.726
11486TIP3   OH234400   4.457   6.981   1.780
11486TIP3    H134401   4.546   6.950   1.794
11486TIP3    H234402   4.407   6.902   1.756
11487TIP3   OH234403   4.083   1.364   2.185
11487TIP3    H134404   4.037   1.444   2.208
11487TIP3    H234405   4.014   1.299   2.170
11488TIP3   OH234406   5.567   2.463   5.804
11488TIP3    H134407   5.549   2.389   5.746
11488TIP3    H234408   5.568   2.425   5.892
11489TIP3   OH234409   1.561   4.736   6.263
11489TIP3    H134410   1.481   4.718   6.215
11489TIP3    H234411   1.589   4.651   6.297
11490TIP3   OH234412   3.169   7.312   0.729
11490TIP3    H134413   3.177   7.298   0.824
11490TIP3    H234414   3.257   7.296   0.695
11491TIP3   OH234415   5.424   3.436   5.043
11491TIP3    H134416   5.342   3.456   5.088
11491TIP3    H234417   5.492   3.443   5.111
11492TIP3   OH234418   1.767   4.120   2.897
11492TIP3    H134419   1.698   4.104   2.832
11492TIP3    H234420   1.743   4.062   2.970
11493TIP3   OH234421   7.461   4.268   0.848
11493TIP3    H134422   7.418   4.218   0.918
11493TIP3    H234423   7.535   4.213   0.822
11494TIP3   OH234424   3.016   3.470   1.418
11494TIP3    H134425   2.921   3.473   1.435
11494TIP3    H234426   3.038   3.561   1.396
11495TIP3   OH234427   4.043   3.323   5.159
11495TIP3    H134428   4.019   3.231   5.167
11495TIP3    H234429   3.974   3.361   5.104
11496TIP3   OH234430   5.647   4.108   1.912
11496TIP3    H134431   5.645   4.203   1.903
11496TIP3    H234432   5.709   4.092   1.983
11497TIP3   OH234433   7.863   3.170   2.956
11497TIP3    H134434   7.810   3.091   2.952
11497TIP3    H234435   7.829   3.218   3.031
11498TIP3   OH234436   0.139   7.226   1.334
11498TIP3    H134437   0.206   7.295   1.333
11498TIP3    H234438   0.166   7.168   1.404
11499TIP3   OH234439   7.264   1.382   1.780
11499TIP3    H134440   7.278   1.303   1.833
11499TIP3    H234441   7.296   1.453   1.834
11500TIP3   OH234442   0.466   7.833   3.233
11500TIP3    H134443   0.474   7.920   3.271
11500TIP3    H234444   0.536   7.782   3.273
11501TIP3   OH234445   3.359   6.937   4.206
11501TIP3    H134446   3.379   7.029   4.188
11501TIP3    H234447   3.267   6.927   4.183
11502TIP3   OH234448   2.760   7.054   5.856
11502TIP3    H134449   2.687   7.050   5.917
11502TIP3    H234450   2.835   7.022   5.906
11503TIP3   OH234451   1.831   7.000   3.097
11503TIP3    H134452   1.801   6.979   3.009
11503TIP3    H234453   1.875   7.085   3.088
11504TIP3   OH234454   4.635   1.842   6.501
11504TIP3    H134455   4.710   1.831   6.558
11504TIP3    H234456   4.598   1.754   6.492
11505TIP3   OH234457   6.292   4.942   4.502
11505TIP3    H134458   6.345   4.866   4.480
11505TIP3    H234459   6.354   5.015   4.504
11506TIP3   OH234460   4.909   3.027   2.873
11506TIP3    H134461   4.853   3.032   2.796
11506TIP3    H234462   4.985   2.977   2.845
11507TIP3   OH234463   7.511   0.382   3.777
11507TIP3    H134464   7.602   0.365   3.752
11507TIP3    H234465   7.494   0.471   3.746
11508TIP3   OH234466   0.662   6.574   5.041
11508TIP3    H134467   0.697   6.493   5.078
11508TIP3    H234468   0.730   6.639   5.056
11509TIP3   OH234469   2.682   5.083   3.047
11509TIP3    H134470   2.672   5.025   3.122
11509TIP3    H234471   2.592   5.107   3.023
11510TIP3   OH234472   3.171   0.238   6.804
11510TIP3    H134473   3.152   0.155   6.846
11510TIP3    H234474   3.177   0.301   6.876
11511TIP3   OH234475   6.845   3.849   5.216
11511TIP3    H134476   6.933   3.845   5.252
11511TIP3    H234477   6.810   3.933   5.245
11512TIP3   OH234478   2.849   2.977   2.810
11512TIP3    H134479   2.823   3.054   2.760
11512TIP3    H234480   2.870   2.912   2.743
11513TIP3   OH234481   0.058   1.302   4.296
11513TIP3    H134482   0.062   1.207   4.285
11513TIP3    H234483  -0.034   1.324   4.281
11514TIP3   OH234484   1.262   0.763   0.454
11514TIP3    H134485   1.309   0.711   0.389
11514TIP3    H234486   1.306   0.743   0.537
11515TIP3   OH234487   1.485   6.673   3.859
11515TIP3    H134488   1.423   6.633   3.798
11515TIP3    H234489   1.519   6.599   3.911
11516TIP3   OH234490   3.633   7.238   3.957
11516TIP3    H134491   3.631   7.297   3.882
11516TIP3    H234492   3.710   7.266   4.008
11517TIP3   OH234493   3.051   6.652   3.479
11517TIP3    H134494   3.075   6.657   3.386
11517TIP3    H234495   2.961   6.683   3.482
11518TIP3   OH234496   7.999   7.518   2.997
11518TIP3    H134497   8.011   7.611   2.982
11518TIP3    H234498   7.957   7.512   3.083
11519TIP3   OH234499   4.769   4.609   1.774
11519TIP3    H134500   4.732   4.662   1.844
11519TIP3    H234501   4.863   4.609   1.790
11520TIP3   OH234502   1.083   7.322   5.234
11520TIP3    H134503   1.057   7.363   5.316
11520TIP3    H234504   1.149   7.381   5.197
11521TIP3   OH234505   1.959   6.574   5.857
11521TIP3    H134506   2.033   6.514   5.861
11521TIP3    H234507   1.995   6.655   5.821
11522TIP3   OH234508   6.637   4.396   4.899
11522TIP3    H134509   6.554   4.431   4.868
11522TIP3    H234510   6.622   4.374   4.990
11523TIP3   OH234511   4.130   1.206   0.020
11523TIP3    H134512   4.128   1.201   0.115
11523TIP3    H234513   4.046   1.168  -0.007
11524TIP3   OH234514   5.914   1.134   0.327
11524TIP3    H134515   5.846   1.103   0.387
11524TIP3    H234516   5.990   1.149   0.382
11525TIP3   OH234517   0.229   6.581   5.697
11525TIP3    H134518   0.306   6.592   5.753
11525TIP3    H234519   0.264   6.543   5.616
11526TIP3   OH234520   0.214   6.153   0.785
11526TIP3    H134521   0.286   6.091   0.780
11526TIP3    H234522   0.142   6.111   0.737
11527TIP3   OH234523   4.977   1.452   4.836
11527TIP3    H134524   4.901   1.429   4.783
11527TIP3    H234525   4.979   1.548   4.834
11528TIP3   OH234526   8.133   2.394   1.636
11528TIP3    H134527   8.133   2.298   1.632
11528TIP3    H234528   8.208   2.416   1.690
11529TIP3   OH234529   4.700   7.558   4.361
11529TIP3    H134530   4.689   7.569   4.456
11529TIP3    H234531   4.641   7.486   4.339
11530TIP3   OH234532   3.429   5.642   3.433
11530TIP3    H134533   3.423   5.729   3.394
11530TIP3    H234534   3.509   5.645   3.485
11531TIP3   OH234535   2.777   7.238   4.570
11531TIP3    H134536   2.816   7.249   4.657
11531TIP3    H234537   2.740   7.150   4.572
11532TIP3   OH234538   2.711   5.803   1.196
11532TIP3    H134539   2.734   5.712   1.215
11532TIP3    H234540   2.617   5.808   1.212
11533TIP3   OH234541   6.285   1.771   5.487
11533TIP3    H134542   6.211   1.807   5.438
11533TIP3    H234543   6.245   1.714   5.552
11534TIP3   OH234544   1.670   2.915   1.739
11534TIP3    H134545   1.612   2.887   1.810
11534TIP3    H234546   1.713   2.994   1.772
11535TIP3   OH234547   6.101   6.671   5.610
11535TIP3    H134548   6.023   6.723   5.628
11535TIP3    H234549   6.126   6.694   5.520
11536TIP3   OH234550   6.378   3.373   0.089
11536TIP3    H134551   6.367   3.294   0.142
11536TIP3    H234552   6.465   3.405   0.110
11537TIP3   OH234553   1.726   4.810   5.836
11537TIP3    H134554   1.711   4.724   5.873
11537TIP3    H234555   1.784   4.794   5.762
11538TIP3   OH234556   1.186   1.997   0.589
11538TIP3    H134557   1.110   2.055   0.585
11538TIP3    H234558   1.155   1.914   0.554
11539TIP3   OH234559   6.214   0.209   5.905
11539TIP3    H134560   6.170   0.294   5.900
11539TIP3    H234561   6.277   0.210   5.833
11540TIP3   OH234562   7.177   7.811   4.957
11540TIP3    H134563   7.143   7.895   4.927
11540TIP3    H234564   7.151   7.806   5.049
11541TIP3   OH234565   7.136   0.016   2.821
11541TIP3    H134566   7.175   0.071   2.889
11541TIP3    H234567   7.060   0.065   2.790
11542TIP3   OH234568   1.565   2.335   0.868
11542TIP3    H134569   1.492   2.354   0.809
11542TIP3    H234570   1.579   2.417   0.916
11543TIP3   OH234571   5.987   3.471   5.695
11543TIP3    H134572   5.949   3.517   5.620
11543TIP3    H234573   6.014   3.386   5.660
11544TIP3   OH234574   2.711   5.855   3.388
11544TIP3    H134575   2.617   5.867   3.399
11544TIP3    H234576   2.731   5.773   3.433
11545TIP3   OH234577   4.460   1.394   1.385
11545TIP3    H134578   4.397   1.322   1.393
11545TIP3    H234579   4.491   1.409   1.474
11546TIP3   OH234580   7.303   3.700   1.173
11546TIP3    H134581   7.228   3.759   1.177
11546TIP3    H234582   7.327   3.697   1.080
11547TIP3   OH234583   4.354   6.016   5.008
11547TIP3    H134584   4.432   5.971   5.039
11547TIP3    H234585   4.282   5.959   5.034
11548TIP3   OH234586   7.868   0.714   1.409
11548TIP3    H134587   7.941   0.659   1.379
11548TIP3    H234588   7.844   0.676   1.493
11549TIP3   OH234589   8.001   7.256   3.535
11549TIP3    H134590   8.051   7.333   3.559
11549TIP3    H234591   8.065   7.196   3.498
11550TIP3   OH234592   5.531   3.460   0.076
11550TIP3    H134593   5.474   3.498   0.009
11550TIP3    H234594   5.574   3.386   0.033
11551TIP3   OH234595   1.265   5.577   4.757
11551TIP3    H134596   1.254   5.489   4.723
11551TIP3    H234597   1.265   5.566   4.852
11552TIP3   OH234598   6.815   6.393   3.296
11552TIP3    H134599   6.822   6.388   3.200
11552TIP3    H234600   6.773   6.311   3.321
11553TIP3   OH234601   6.251   7.234   0.953
11553TIP3    H134602   6.328   7.182   0.929
11553TIP3    H234603   6.283   7.324   0.958
11554TIP3   OH234604   0.551   5.667   4.302
11554TIP3    H134605   0.484   5.605   4.330
11554TIP3    H234606   0.614   5.614   4.253
11555TIP3   OH234607   3.336   1.779   1.794
11555TIP3    H134608   3.419   1.775   1.747
11555TIP3    H234609   3.305   1.869   1.782
11556TIP3   OH234610   4.353   6.358   2.527
11556TIP3    H134611   4.323   6.290   2.467
11556TIP3    H234612   4.446   6.338   2.540
11557TIP3   OH234613   5.795   1.955   5.322
11557TIP3    H134614   5.701   1.949   5.307
11557TIP3    H234615   5.834   1.898   5.255
11558TIP3   OH234616   0.098   7.307   4.193
11558TIP3    H134617   0.102   7.284   4.101
11558TIP3    H234618   0.161   7.379   4.203
11559TIP3   OH234619   5.761   1.057   3.996
11559TIP3    H134620   5.852   1.061   4.024
11559TIP3    H234621   5.758   0.985   3.933
11560TIP3   OH234622   4.261   3.638   2.744
11560TIP3    H134623   4.336   3.579   2.733
11560TIP3    H234624   4.190   3.580   2.772
11561TIP3   OH234625   7.474   1.859   2.992
11561TIP3    H134626   7.561   1.855   2.951
11561TIP3    H234627   7.414   1.869   2.919
11562TIP3   OH234628   6.389   5.078   2.007
11562TIP3    H134629   6.358   4.988   2.010
11562TIP3    H234630   6.485   5.071   2.012
11563TIP3   OH234631   0.452   4.743   2.094
11563TIP3    H134632   0.473   4.781   2.009
11563TIP3    H234633   0.392   4.671   2.074
11564TIP3   OH234634   3.961   5.459   5.998
11564TIP3    H134635   3.925   5.414   5.921
11564TIP3    H234636   3.913   5.421   6.072
11565TIP3   OH234637   6.094   0.603   6.575
11565TIP3    H134638   6.122   0.680   6.525
11565TIP3    H234639   6.100   0.631   6.666
11566TIP3   OH234640   3.663   6.626   6.325
11566TIP3    H134641   3.642   6.548   6.377
11566TIP3    H234642   3.582   6.647   6.279
11567TIP3   OH234643   4.011   6.697   5.367
11567TIP3    H134644   3.923   6.725   5.343
11567TIP3    H234645   4.068   6.742   5.304
11568TIP3   OH234646   5.847   6.206   0.990
11568TIP3    H134647   5.895   6.154   1.055
11568TIP3    H234648   5.906   6.279   0.970
11569TIP3   OH234649   5.598   7.432   2.419
11569TIP3    H134650   5.640   7.428   2.505
11569TIP3    H234651   5.668   7.460   2.360
11570TIP3   OH234652   3.655   3.028   5.025
11570TIP3    H134653   3.614   2.959   5.076
11570TIP3    H234654   3.618   3.020   4.937
11571TIP3   OH234655   2.472   2.354   6.732
11571TIP3    H134656   2.463   2.259   6.726
11571TIP3    H234657   2.442   2.386   6.647
11572TIP3   OH234658   1.423   3.110   1.845
11572TIP3    H134659   1.470   3.141   1.767
11572TIP3    H234660   1.332   3.098   1.815
11573TIP3   OH234661   2.249   3.259   3.472
11573TIP3    H134662   2.315   3.189   3.471
11573TIP3    H234663   2.300   3.338   3.488
11574TIP3   OH234664   3.728   5.018   6.710
11574TIP3    H134665   3.640   4.986   6.688
11574TIP3    H234666   3.779   4.938   6.724
11575TIP3   OH234667   0.053   6.809   5.682
11575TIP3    H134668  -0.011   6.811   5.754
11575TIP3    H234669   0.108   6.733   5.702
11576TIP3   OH234670   1.171   3.777   0.910
11576TIP3    H134671   1.171   3.831   0.831
11576TIP3    H234672   1.080   3.776   0.939
11577TIP3   OH234673   1.046   0.223   3.048
11577TIP3    H134674   1.036   0.144   2.994
11577TIP3    H234675   1.119   0.270   3.008
11578TIP3   OH234676   1.318   6.310   4.386
11578TIP3    H134677   1.293   6.395   4.349
11578TIP3    H234678   1.250   6.291   4.451
11579TIP3   OH234679   7.109   3.303   3.689
11579TIP3    H134680   7.200   3.323   3.710
11579TIP3    H234681   7.059   3.336   3.764
11580TIP3   OH234682   2.351   5.494   2.171
11580TIP3    H134683   2.333   5.488   2.265
11580TIP3    H234684   2.266   5.476   2.130
11581TIP3   OH234685   2.319   1.911   4.903
11581TIP3    H134686   2.269   1.860   4.839
11581TIP3    H234687   2.346   1.990   4.857
11582TIP3   OH234688   5.684   4.126   0.506
11582TIP3    H134689   5.742   4.068   0.457
11582TIP3    H234690   5.635   4.068   0.563
11583TIP3   OH234691   2.866   1.633   5.101
11583TIP3    H134692   2.890   1.716   5.142
11583TIP3    H234693   2.777   1.616   5.132
11584TIP3   OH234694   7.793   3.110   2.062
11584TIP3    H134695   7.836   3.084   2.144
11584TIP3    H234696   7.855   3.087   1.993
11585TIP3   OH234697  -0.007   7.112   0.175
11585TIP3    H134698   0.017   7.067   0.256
11585TIP3    H234699   0.060   7.085   0.111
11586TIP3   OH234700   5.823   4.038   6.719
11586TIP3    H134701   5.889   4.009   6.656
11586TIP3    H234702   5.842   3.986   6.798
11587TIP3   OH234703   4.413   1.556   3.079
11587TIP3    H134704   4.365   1.629   3.118
11587TIP3    H234705   4.453   1.594   3.000
11588TIP3   OH234706   5.415   6.492   4.425
11588TIP3    H134707   5.377   6.579   4.412
11588TIP3    H234708   5.370   6.458   4.502
11589TIP3   OH234709   4.210   1.811   1.461
11589TIP3    H134710   4.170   1.727   1.487
11589TIP3    H234711   4.298   1.807   1.498
11590TIP3   OH234712   3.486   0.634   2.777
11590TIP3    H134713   3.556   0.699   2.771
11590TIP3    H234714   3.511   0.566   2.714
11591TIP3   OH234715   0.456   6.952   2.131
11591TIP3    H134716   0.371   6.960   2.087
11591TIP3    H234717   0.436   6.965   2.223
11592TIP3   OH234718   4.863   7.309   4.560
11592TIP3    H134719   4.931   7.355   4.512
11592TIP3    H234720   4.806   7.271   4.493
11593TIP3   OH234721   1.013   6.817   0.917
11593TIP3    H134722   1.042   6.787   0.831
11593TIP3    H234723   0.973   6.741   0.958
11594TIP3   OH234724   7.502   4.683   2.655
11594TIP3    H134725   7.503   4.633   2.736
11594TIP3    H234726   7.416   4.664   2.616
11595TIP3   OH234727   1.287   6.656   2.545
11595TIP3    H134728   1.273   6.749   2.528
11595TIP3    H234729   1.381   6.644   2.535
11596TIP3   OH234730   5.039   4.214   0.563
11596TIP3    H134731   5.018   4.121   0.553
11596TIP3    H234732   5.076   4.221   0.651
11597TIP3   OH234733   5.479   6.030   6.024
11597TIP3    H134734   5.495   5.935   6.027
11597TIP3    H234735   5.387   6.038   6.002
11598TIP3   OH234736   0.447   2.082   2.198
11598TIP3    H134737   0.530   2.048   2.231
11598TIP3    H234738   0.428   2.030   2.120
11599TIP3   OH234739   6.877   7.364   3.256
11599TIP3    H134740   6.890   7.284   3.206
11599TIP3    H234741   6.856   7.335   3.345
11600TIP3   OH234742   7.014   7.118   5.529
11600TIP3    H134743   6.969   7.086   5.607
11600TIP3    H234744   7.105   7.093   5.542
11601TIP3   OH234745   7.009   2.973   5.801
11601TIP3    H134746   7.023   2.878   5.794
11601TIP3    H234747   7.080   3.012   5.750
11602TIP3   OH234748   4.831   0.470   4.660
11602TIP3    H134749   4.884   0.518   4.597
11602TIP3    H234750   4.769   0.420   4.607
11603TIP3   OH234751   0.246   1.548   3.939
11603TIP3    H134752   0.314   1.481   3.947
11603TIP3    H234753   0.165   1.498   3.927
11604TIP3   OH234754   3.684   0.203   0.602
11604TIP3    H134755   3.751   0.190   0.669
11604TIP3    H234756   3.714   0.152   0.527
11605TIP3   OH234757   6.300   0.768   6.031
11605TIP3    H134758   6.302   0.759   5.935
11605TIP3    H234759   6.329   0.683   6.064
11606TIP3   OH234760   1.855   4.694   6.736
11606TIP3    H134761   1.899   4.667   6.655
11606TIP3    H234762   1.898   4.777   6.760
11607TIP3   OH234763   2.689   1.591   4.709
11607TIP3    H134764   2.682   1.576   4.804
11607TIP3    H234765   2.630   1.525   4.671
11608TIP3   OH234766   2.410   1.516   6.017
11608TIP3    H134767   2.371   1.430   6.010
11608TIP3    H234768   2.466   1.511   6.095
11609TIP3   OH234769   7.117   6.662   0.227
11609TIP3    H134770   7.104   6.571   0.254
11609TIP3    H234771   7.169   6.656   0.146
11610TIP3   OH234772   8.236   2.620   6.492
11610TIP3    H134773   8.314   2.625   6.437
11610TIP3    H234774   8.268   2.589   6.577
11611TIP3   OH234775   1.926   3.043   5.861
11611TIP3    H134776   1.857   2.985   5.892
11611TIP3    H234777   1.935   3.023   5.768
11612TIP3   OH234778   2.048   0.520   5.309
11612TIP3    H134779   2.064   0.426   5.315
11612TIP3    H234780   1.968   0.528   5.257
11613TIP3   OH234781   0.655   5.440   4.967
11613TIP3    H134782   0.710   5.509   5.006
11613TIP3    H234783   0.582   5.431   5.028
11614TIP3   OH234784   1.841   7.196   1.658
11614TIP3    H134785   1.881   7.117   1.623
11614TIP3    H234786   1.788   7.167   1.732
11615TIP3   OH234787   4.851   5.036   0.841
11615TIP3    H134788   4.832   5.116   0.793
11615TIP3    H234789   4.918   4.992   0.788
11616TIP3   OH234790   1.691   5.078   4.346
11616TIP3    H134791   1.680   5.004   4.406
11616TIP3    H234792   1.637   5.055   4.270
11617TIP3   OH234793   7.379   1.565   4.449
11617TIP3    H134794   7.377   1.606   4.535
11617TIP3    H234795   7.411   1.477   4.465
11618TIP3   OH234796   2.335   0.412   6.662
11618TIP3    H134797   2.429   0.428   6.657
11618TIP3    H234798   2.326   0.317   6.652
11619TIP3   OH234799   0.967   2.174   4.863
11619TIP3    H134800   0.988   2.082   4.880
11619TIP3    H234801   0.885   2.189   4.911
11620TIP3   OH234802   0.040   5.233   2.379
11620TIP3    H134803   0.035   5.322   2.413
11620TIP3    H234804   0.091   5.240   2.299
11621TIP3   OH234805   6.000   7.542   6.479
11621TIP3    H134806   6.039   7.469   6.432
11621TIP3    H234807   5.908   7.542   6.453
11622TIP3   OH234808   1.641   4.167   1.486
11622TIP3    H134809   1.639   4.261   1.466
11622TIP3    H234810   1.584   4.158   1.563
11623TIP3   OH234811   3.456   6.012   6.174
11623TIP3    H134812   3.451   6.049   6.086
11623TIP3    H234813   3.549   6.020   6.198
11624TIP3   OH234814   7.770   2.277   1.051
11624TIP3    H134815   7.854   2.323   1.055
11624TIP3    H234816   7.718   2.328   0.989
11625TIP3   OH234817   0.614   7.194   4.513
11625TIP3    H134818   0.602   7.193   4.608
11625TIP3    H234819   0.688   7.252   4.498
11626TIP3   OH234820   3.408   4.743   6.472
11626TIP3    H134821   3.358   4.694   6.407
11626TIP3    H234822   3.498   4.744   6.439
11627TIP3   OH234823   1.712   5.121   6.683
11627TIP3    H134824   1.649   5.167   6.737
11627TIP3    H234825   1.745   5.050   6.737
11628TIP3   OH234826   4.872   7.764   5.472
11628TIP3    H134827   4.794   7.799   5.429
11628TIP3    H234828   4.841   7.687   5.520
11629TIP3   OH234829   7.335   5.489   3.245
11629TIP3    H134830   7.290   5.460   3.325
11629TIP3    H234831   7.340   5.411   3.190
11630TIP3   OH234832   4.065   0.591   3.058
11630TIP3    H134833   4.083   0.510   3.010
11630TIP3    H234834   4.119   0.657   3.014
11631TIP3   OH234835   6.833   5.358   1.882
11631TIP3    H134836   6.835   5.428   1.948
11631TIP3    H234837   6.864   5.401   1.802
11632TIP3   OH234838   6.205   7.623   0.700
11632TIP3    H134839   6.159   7.602   0.619
11632TIP3    H234840   6.288   7.576   0.694
11633TIP3   OH234841   8.352   5.819   1.499
11633TIP3    H134842   8.407   5.880   1.450
11633TIP3    H234843   8.304   5.874   1.561
11634TIP3   OH234844   0.342   1.660   1.380
11634TIP3    H134845   0.304   1.588   1.429
11634TIP3    H234846   0.337   1.633   1.288
11635TIP3   OH234847   4.108   4.706   6.309
11635TIP3    H134848   4.187   4.759   6.305
11635TIP3    H234849   4.056   4.734   6.233
11636TIP3   OH234850   2.824   1.595   1.804
11636TIP3    H134851   2.919   1.585   1.798
11636TIP3    H234852   2.806   1.598   1.898
11637TIP3   OH234853   7.221   3.194   5.731
11637TIP3    H134854   7.221   3.270   5.672
11637TIP3    H234855   7.205   3.231   5.818
11638TIP3   OH234856   4.488   1.612   1.207
11638TIP3    H134857   4.559   1.662   1.247
11638TIP3    H234858   4.453   1.559   1.278
11639TIP3   OH234859   2.261   5.818   1.791
11639TIP3    H134860   2.339   5.772   1.822
11639TIP3    H234861   2.234   5.770   1.712
11640TIP3   OH234862   5.144   0.199   1.923
11640TIP3    H134863   5.110   0.278   1.880
11640TIP3    H234864   5.074   0.173   1.983
11641TIP3   OH234865   6.246   2.895   0.616
11641TIP3    H134866   6.252   2.800   0.621
11641TIP3    H234867   6.204   2.921   0.698
11642TIP3   OH234868   3.300   4.261   5.261
11642TIP3    H134869   3.286   4.167   5.271
11642TIP3    H234870   3.284   4.279   5.168
11643TIP3   OH234871   1.204   5.688   0.385
11643TIP3    H134872   1.217   5.602   0.424
11643TIP3    H234873   1.291   5.728   0.388
11644TIP3   OH234874   0.178   7.001   2.100
11644TIP3    H134875   0.138   7.074   2.146
11644TIP3    H234876   0.128   6.924   2.128
11645TIP3   OH234877   0.223   2.174   1.644
11645TIP3    H134878   0.304   2.209   1.681
11645TIP3    H234879   0.193   2.241   1.583
11646TIP3   OH234880   2.844   6.181   2.140
11646TIP3    H134881   2.770   6.134   2.179
11646TIP3    H234882   2.818   6.196   2.049
11647TIP3   OH234883   6.846   3.305   3.898
11647TIP3    H134884   6.772   3.342   3.850
11647TIP3    H234885   6.850   3.213   3.870
11648TIP3   OH234886   3.891   3.145   2.481
11648TIP3    H134887   3.871   3.053   2.499
11648TIP3    H234888   3.834   3.194   2.541
11649TIP3   OH234889   0.650   1.869   4.532
11649TIP3    H134890   0.564   1.886   4.492
11649TIP3    H234891   0.711   1.869   4.458
11650TIP3   OH234892   3.142   2.792   1.519
11650TIP3    H134893   3.223   2.828   1.557
11650TIP3    H234894   3.080   2.865   1.522
11651TIP3   OH234895   0.164   4.407   5.568
11651TIP3    H134896   0.223   4.421   5.643
11651TIP3    H234897   0.150   4.495   5.533
11652TIP3   OH234898   0.844   5.350   5.548
11652TIP3    H134899   0.821   5.430   5.596
11652TIP3    H234900   0.861   5.285   5.616
11653TIP3   OH234901   1.914   6.167   3.588
11653TIP3    H134902   1.981   6.130   3.531
11653TIP3    H234903   1.852   6.210   3.529
11654TIP3   OH234904   2.042   0.334   2.722
11654TIP3    H134905   2.014   0.372   2.805
11654TIP3    H234906   2.022   0.240   2.731
11655TIP3   OH234907   1.577   4.785   0.758
11655TIP3    H134908   1.534   4.845   0.697
11655TIP3    H234909   1.587   4.836   0.839
11656TIP3   OH234910   7.650   5.938   2.792
11656TIP3    H134911   7.734   5.911   2.828
11656TIP3    H234912   7.647   5.896   2.706
11657TIP3   OH234913   2.410   7.438   2.662
11657TIP3    H134914   2.425   7.345   2.644
11657TIP3    H234915   2.495   7.470   2.693
11658TIP3   OH234916   4.551   6.571   3.165
11658TIP3    H134917   4.472   6.526   3.194
11658TIP3    H234918   4.519   6.637   3.103
11659TIP3   OH234919   2.536   2.806   3.301
11659TIP3    H134920   2.536   2.875   3.235
11659TIP3    H234921   2.542   2.725   3.251
11660TIP3   OH234922   4.830   1.075   4.201
11660TIP3    H134923   4.921   1.105   4.197
11660TIP3    H234924   4.795   1.115   4.280
11661TIP3   OH234925   0.011   1.081   1.502
11661TIP3    H134926   0.092   1.129   1.486
11661TIP3    H234927  -0.020   1.113   1.587
11662TIP3   OH234928   7.959   7.796   6.273
11662TIP3    H134929   8.019   7.832   6.207
11662TIP3    H234930   7.896   7.867   6.288
11663TIP3   OH234931   2.337   5.946   1.047
11663TIP3    H134932   2.358   5.863   1.090
11663TIP3    H234933   2.398   6.009   1.086
11664TIP3   OH234934   2.591   0.015   1.693
11664TIP3    H134935   2.665   0.031   1.752
11664TIP3    H234936   2.618   0.051   1.609
11665TIP3   OH234937   4.536   5.717   0.263
11665TIP3    H134938   4.460   5.671   0.227
11665TIP3    H234939   4.548   5.793   0.206
11666TIP3   OH234940   3.170   6.004   1.745
11666TIP3    H134941   3.078   5.997   1.771
11666TIP3    H234942   3.219   5.971   1.820
11667TIP3   OH234943   7.190   2.460   3.933
11667TIP3    H134944   7.155   2.499   3.852
11667TIP3    H234945   7.200   2.367   3.912
11668TIP3   OH234946   1.077   1.905   0.359
11668TIP3    H134947   0.987   1.917   0.328
11668TIP3    H234948   1.129   1.968   0.309
11669TIP3   OH234949   7.856   4.971   1.417
11669TIP3    H134950   7.847   5.066   1.408
11669TIP3    H234951   7.824   4.936   1.333
11670TIP3   OH234952   2.839   0.975   1.241
11670TIP3    H134953   2.892   0.896   1.250
11670TIP3    H234954   2.759   0.957   1.290
11671TIP3   OH234955   1.153   0.054   5.884
11671TIP3    H134956   1.106   0.070   5.967
11671TIP3    H234957   1.200   0.135   5.868
11672TIP3   OH234958   3.270   5.138   2.493
11672TIP3    H134959   3.317   5.210   2.535
11672TIP3    H234960   3.306   5.134   2.404
11673TIP3   OH234961   1.558   4.535   0.858
11673TIP3    H134962   1.651   4.527   0.834
11673TIP3    H234963   1.529   4.614   0.813
11674TIP3   OH234964   3.901   0.784   1.969
11674TIP3    H134965   3.851   0.742   1.899
11674TIP3    H234966   3.887   0.877   1.956
11675TIP3   OH234967   1.266   0.741   2.935
11675TIP3    H134968   1.175   0.718   2.954
11675TIP3    H234969   1.297   0.783   3.014
11676TIP3   OH234970   0.903   0.661   0.700
11676TIP3    H134971   0.919   0.742   0.749
11676TIP3    H234972   0.945   0.675   0.615
11677TIP3   OH234973   5.820   4.270   5.418
11677TIP3    H134974   5.847   4.214   5.491
11677TIP3    H234975   5.768   4.339   5.459
11678TIP3   OH234976   7.734   2.181   6.158
11678TIP3    H134977   7.790   2.207   6.231
11678TIP3    H234978   7.648   2.167   6.197
11679TIP3   OH234979   7.059   2.711   5.189
11679TIP3    H134980   7.116   2.740   5.260
11679TIP3    H234981   7.081   2.619   5.176
11680TIP3   OH234982   0.063   0.076   5.615
11680TIP3    H134983  -0.023   0.065   5.658
11680TIP3    H234984   0.044   0.067   5.522
11681TIP3   OH234985   0.477   1.552   2.617
11681TIP3    H134986   0.505   1.462   2.603
11681TIP3    H234987   0.449   1.555   2.708
11682TIP3   OH234988   6.628   0.509   4.897
11682TIP3    H134989   6.534   0.507   4.917
11682TIP3    H234990   6.636   0.459   4.816
11683TIP3   OH234991   5.145   4.157   2.960
11683TIP3    H134992   5.061   4.112   2.973
11683TIP3    H234993   5.119   4.246   2.933
11684TIP3   OH234994   2.373   6.798   2.532
11684TIP3    H134995   2.300   6.739   2.551
11684TIP3    H234996   2.365   6.818   2.439
11685TIP3   OH234997   8.156   3.067   3.849
11685TIP3    H134998   8.111   3.149   3.828
11685TIP3    H234999   8.161   3.020   3.766
11686TIP3   OH235000   2.004   2.444   3.810
11686TIP3    H135001   2.001   2.539   3.798
11686TIP3    H235002   1.917   2.414   3.782
11687TIP3   OH235003   6.662   2.528   3.030
11687TIP3    H135004   6.690   2.527   2.939
11687TIP3    H235005   6.686   2.615   3.062
11688TIP3   OH235006   7.384   5.273   3.077
11688TIP3    H135007   7.440   5.199   3.054
11688TIP3    H235008   7.431   5.350   3.046
11689TIP3   OH235009   6.538   4.827   5.985
11689TIP3    H135010   6.475   4.767   6.025
11689TIP3    H235011   6.525   4.910   6.030
11690TIP3   OH235012   3.013   4.468   2.935
11690TIP3    H135013   3.093   4.463   2.987
11690TIP3    H235014   3.020   4.393   2.875
11691TIP3   OH235015   5.195   5.191   1.013
11691TIP3    H135016   5.271   5.203   0.956
11691TIP3    H235017   5.226   5.216   1.100
11692TIP3   OH235018   1.484   6.468   4.593
11692TIP3    H135019   1.469   6.446   4.501
11692TIP3    H235020   1.575   6.500   4.595
11693TIP3   OH235021   0.030   2.608   2.400
11693TIP3    H135022  -0.040   2.648   2.349
11693TIP3    H235023   0.011   2.634   2.490
11694TIP3   OH235024   0.685   6.052   0.516
11694TIP3    H135025   0.609   6.096   0.555
11694TIP3    H235026   0.648   5.980   0.466
11695TIP3   OH235027   1.645   0.566   6.395
11695TIP3    H135028   1.731   0.536   6.427
11695TIP3    H235029   1.656   0.661   6.383
11696TIP3   OH235030   1.305   7.500   5.140
11696TIP3    H135031   1.230   7.527   5.086
11696TIP3    H235032   1.381   7.515   5.084
11697TIP3   OH235033   5.978   6.769   6.783
11697TIP3    H135034   6.052   6.716   6.813
11697TIP3    H235035   5.908   6.705   6.766
11698TIP3   OH235036   2.525   1.307   2.423
11698TIP3    H135037   2.504   1.239   2.486
11698TIP3    H235038   2.442   1.325   2.378
11699TIP3   OH235039   0.090   7.665   1.244
11699TIP3    H135040   0.174   7.698   1.214
11699TIP3    H235041   0.046   7.635   1.164
11700TIP3   OH235042   7.672   6.357   5.971
11700TIP3    H135043   7.746   6.309   5.935
11700TIP3    H235044   7.711   6.419   6.032
11701TIP3   OH235045   7.678   7.142   3.122
11701TIP3    H135046   7.690   7.094   3.040
11701TIP3    H235047   7.767   7.166   3.149
11702TIP3   OH235048   3.889   5.688   1.715
11702TIP3    H135049   3.963   5.741   1.744
11702TIP3    H235050   3.852   5.737   1.642
11703TIP3   OH235051   6.530   0.038   3.757
11703TIP3    H135052   6.610   0.090   3.759
11703TIP3    H235053   6.556  -0.048   3.790
11704TIP3   OH235054   5.077   0.889   0.918
11704TIP3    H135055   5.113   0.863   0.833
11704TIP3    H235056   5.136   0.958   0.949
11705TIP3   OH235057   6.958   7.277   5.795
11705TIP3    H135058   6.970   7.198   5.848
11705TIP3    H235059   6.894   7.252   5.728
11706TIP3   OH235060   8.071   6.719   1.109
11706TIP3    H135061   8.010   6.650   1.137
11706TIP3    H235062   8.158   6.681   1.122
11707TIP3   OH235063   5.549   2.431   1.547
11707TIP3    H135064   5.496   2.361   1.508
11707TIP3    H235065   5.583   2.480   1.472
11708TIP3   OH235066   8.132   1.519   4.108
11708TIP3    H135067   8.099   1.456   4.044
11708TIP3    H235068   8.205   1.563   4.064
11709TIP3   OH235069   3.056   1.024   6.478
11709TIP3    H135070   3.144   0.996   6.451
11709TIP3    H235071   3.072   1.098   6.538
11710TIP3   OH235072   7.908   4.926   5.274
11710TIP3    H135073   7.875   4.989   5.338
11710TIP3    H235074   7.930   4.980   5.197
11711TIP3   OH235075   4.345   1.705   6.098
11711TIP3    H135076   4.429   1.693   6.054
11711TIP3    H235077   4.280   1.681   6.032
11712TIP3   OH235078   4.210   5.319   4.976
11712TIP3    H135079   4.184   5.382   5.044
11712TIP3    H235080   4.144   5.330   4.907
11713TIP3   OH235081   0.835   5.642   4.087
11713TIP3    H135082   0.910   5.701   4.087
11713TIP3    H235083   0.763   5.694   4.050
11714TIP3   OH235084   7.886   2.096   4.117
11714TIP3    H135085   7.963   2.095   4.061
11714TIP3    H235086   7.870   2.003   4.137
11715TIP3   OH235087   5.285   1.574   1.572
11715TIP3    H135088   5.275   1.527   1.654
11715TIP3    H235089   5.377   1.601   1.571
11716TIP3   OH235090   0.860   4.743   5.837
11716TIP3    H135091   0.802   4.694   5.895
11716TIP3    H235092   0.822   4.831   5.835
11717TIP3   OH235093   0.031   5.455   6.125
11717TIP3    H135094   0.017   5.549   6.116
11717TIP3    H235095   0.126   5.446   6.137
11718TIP3   OH235096   4.347   3.946   6.226
11718TIP3    H135097   4.371   3.914   6.139
11718TIP3    H235098   4.281   4.014   6.210
11719TIP3   OH235099   3.467   3.609   2.150
11719TIP3    H135100   3.524   3.570   2.216
11719TIP3    H235101   3.431   3.535   2.102
11720TIP3   OH235102   3.735   3.945   5.787
11720TIP3    H135103   3.768   3.914   5.703
11720TIP3    H235104   3.667   4.009   5.765
11721TIP3   OH235105   1.047   5.914   6.114
11721TIP3    H135106   1.052   5.850   6.186
11721TIP3    H235107   1.020   5.862   6.038
11722TIP3   OH235108   2.486   1.739   0.398
11722TIP3    H135109   2.414   1.779   0.447
11722TIP3    H235110   2.565   1.768   0.443
11723TIP3   OH235111   4.784   4.260   5.737
11723TIP3    H135112   4.773   4.215   5.820
11723TIP3    H235113   4.802   4.351   5.762
11724TIP3   OH235114   4.919   0.555   3.891
11724TIP3    H135115   4.855   0.552   3.962
11724TIP3    H235116   4.959   0.641   3.899
11725TIP3   OH235117   1.062   4.522   1.451
11725TIP3    H135118   1.053   4.453   1.385
11725TIP3    H235119   1.152   4.514   1.481
11726TIP3   OH235120   3.424   1.354   0.301
11726TIP3    H135121   3.467   1.286   0.353
11726TIP3    H235122   3.351   1.308   0.258
11727TIP3   OH235123   6.003   1.218   3.816
11727TIP3    H135124   5.989   1.135   3.770
11727TIP3    H235125   6.016   1.193   3.907
11728TIP3   OH235126   2.077   0.428   4.182
11728TIP3    H135127   2.072   0.477   4.100
11728TIP3    H235128   2.117   0.490   4.244
11729TIP3   OH235129   5.035   0.671   0.084
11729TIP3    H135130   5.010   0.579   0.081
11729TIP3    H235131   4.957   0.716   0.116
11730TIP3   OH235132   2.414   6.750   5.335
11730TIP3    H135133   2.379   6.762   5.247
11730TIP3    H235134   2.366   6.812   5.390
11731TIP3   OH235135   5.000   4.889   4.697
11731TIP3    H135136   5.017   4.845   4.780
11731TIP3    H235137   5.068   4.956   4.690
11732TIP3   OH235138   7.565   0.852   1.976
11732TIP3    H135139   7.599   0.841   2.064
11732TIP3    H235140   7.634   0.898   1.929
11733TIP3   OH235141   5.214   3.732   2.471
11733TIP3    H135142   5.234   3.825   2.472
11733TIP3    H235143   5.298   3.690   2.489
11734TIP3   OH235144   2.277   7.213   0.365
11734TIP3    H135145   2.224   7.134   0.357
11734TIP3    H235146   2.258   7.247   0.453
11735TIP3   OH235147   2.440   4.510   5.422
11735TIP3    H135148   2.426   4.498   5.516
11735TIP3    H235149   2.488   4.592   5.415
11736TIP3   OH235150   4.381   1.291   5.637
11736TIP3    H135151   4.349   1.222   5.579
11736TIP3    H235152   4.472   1.303   5.612
11737TIP3   OH235153   3.147   0.609   6.331
11737TIP3    H135154   3.137   0.552   6.406
11737TIP3    H235155   3.175   0.693   6.368
11738TIP3   OH235156   4.555   4.792   4.285
11738TIP3    H135157   4.503   4.821   4.209
11738TIP3    H235158   4.645   4.813   4.261
11739TIP3   OH235159   0.305   0.595   3.373
11739TIP3    H135160   0.269   0.595   3.462
11739TIP3    H235161   0.292   0.685   3.343
11740TIP3   OH235162   2.130   3.859   3.222
11740TIP3    H135163   2.168   3.771   3.215
11740TIP3    H235164   2.186   3.905   3.284
11741TIP3   OH235165   7.644   4.334   1.860
11741TIP3    H135166   7.695   4.278   1.918
11741TIP3    H235167   7.556   4.334   1.898
11742TIP3   OH235168   6.109   4.751   2.019
11742TIP3    H135169   6.176   4.686   2.043
11742TIP3    H235170   6.095   4.737   1.926
11743TIP3   OH235171   5.385   4.691   2.888
11743TIP3    H135172   5.439   4.745   2.945
11743TIP3    H235173   5.308   4.744   2.870
11744TIP3   OH235174   7.333   3.236   1.097
11744TIP3    H135175   7.389   3.250   1.021
11744TIP3    H235176   7.391   3.251   1.172
11745TIP3   OH235177   4.040   3.318   5.741
11745TIP3    H135178   4.135   3.322   5.750
11745TIP3    H235179   4.024   3.318   5.646
11746TIP3   OH235180   4.656   3.151   0.952
11746TIP3    H135181   4.624   3.061   0.949
11746TIP3    H235182   4.730   3.148   1.013
11747TIP3   OH235183   1.603   7.202   5.734
11747TIP3    H135184   1.632   7.227   5.821
11747TIP3    H235185   1.631   7.274   5.677
11748TIP3   OH235186   1.826   0.136   1.337
11748TIP3    H135187   1.753   0.096   1.384
11748TIP3    H235188   1.784   0.200   1.279
11749TIP3   OH235189   5.879   3.249   3.337
11749TIP3    H135190   5.866   3.177   3.275
11749TIP3    H235191   5.968   3.279   3.320
11750TIP3   OH235192   6.032   4.517   0.029
11750TIP3    H135193   6.037   4.436   0.082
11750TIP3    H235194   6.122   4.530  -0.002
11751TIP3   OH235195   6.747   7.812   3.886
11751TIP3    H135196   6.716   7.870   3.816
11751TIP3    H235197   6.690   7.735   3.881
11752TIP3   OH235198   3.230   7.666   6.126
11752TIP3    H135199   3.248   7.740   6.067
11752TIP3    H235200   3.249   7.589   6.073
11753TIP3   OH235201   4.569   2.488   2.174
11753TIP3    H135202   4.579   2.505   2.080
11753TIP3    H235203   4.641   2.535   2.215
11754TIP3   OH235204   1.714   1.061   2.708
11754TIP3    H135205   1.644   1.104   2.758
11754TIP3    H235206   1.794   1.094   2.748
11755TIP3   OH235207   1.240   1.633   3.997
11755TIP3    H135208   1.192   1.696   3.943
11755TIP3    H235209   1.235   1.551   3.948
11756TIP3   OH235210   1.118   7.614   4.971
11756TIP3    H135211   1.027   7.635   4.989
11756TIP3    H235212   1.115   7.527   4.931
11757TIP3   OH235213   6.614   7.079   4.046
11757TIP3    H135214   6.644   6.988   4.055
11757TIP3    H235215   6.694   7.130   4.037
11758TIP3   OH235216   8.196   5.374   4.866
11758TIP3    H135217   8.186   5.334   4.953
11758TIP3    H235218   8.213   5.467   4.885
11759TIP3   OH235219   0.757   4.069   2.148
11759TIP3    H135220   0.789   4.014   2.077
11759TIP3    H235221   0.813   4.048   2.222
11760TIP3   OH235222   4.536   0.516   3.231
11760TIP3    H135223   4.473   0.516   3.303
11760TIP3    H235224   4.567   0.607   3.226
11761TIP3   OH235225   4.657   0.390   1.409
11761TIP3    H135226   4.603   0.405   1.331
11761TIP3    H235227   4.625   0.454   1.473
11762TIP3   OH235228   6.339   7.477   0.119
11762TIP3    H135229   6.260   7.431   0.092
11762TIP3    H235230   6.308   7.560   0.155
11763TIP3   OH235231   6.220   2.282   3.734
11763TIP3    H135232   6.249   2.254   3.821
11763TIP3    H235233   6.264   2.222   3.673
11764TIP3   OH235234   6.376   7.706   1.288
11764TIP3    H135235   6.298   7.690   1.340
11764TIP3    H235236   6.364   7.795   1.253
11765TIP3   OH235237   4.698   7.496   4.033
11765TIP3    H135238   4.704   7.592   4.034
11765TIP3    H235239   4.653   7.474   4.115
11766TIP3   OH235240   5.358   0.198   6.412
11766TIP3    H135241   5.434   0.167   6.362
11766TIP3    H235242   5.386   0.195   6.503
11767TIP3   OH235243   0.967   7.526   2.544
11767TIP3    H135244   0.975   7.537   2.449
11767TIP3    H235245   1.053   7.549   2.578
11768TIP3   OH235246   2.335   4.805   6.017
11768TIP3    H135247   2.244   4.817   6.042
11768TIP3    H235248   2.364   4.892   5.987
11769TIP3   OH235249   0.918   3.736   1.778
11769TIP3    H135250   0.866   3.675   1.725
11769TIP3    H235251   0.877   3.821   1.763
11770TIP3   OH235252   3.478   0.542   2.062
11770TIP3    H135253   3.567   0.526   2.095
11770TIP3    H235254   3.421   0.500   2.127
11771TIP3   OH235255   7.183   0.516   0.819
11771TIP3    H135256   7.165   0.578   0.748
11771TIP3    H235257   7.101   0.511   0.868
11772TIP3   OH235258   3.786   7.024   5.098
11772TIP3    H135259   3.860   6.963   5.099
11772TIP3    H235260   3.732   6.996   5.024
11773TIP3   OH235261   1.903   0.452   0.485
11773TIP3    H135262   1.918   0.437   0.391
11773TIP3    H235263   1.840   0.524   0.488
11774TIP3   OH235264   3.641   6.173   4.016
11774TIP3    H135265   3.662   6.171   4.109
11774TIP3    H235266   3.559   6.224   4.011
11775TIP3   OH235267   2.769   7.555   2.627
11775TIP3    H135268   2.740   7.622   2.689
11775TIP3    H235269   2.713   7.567   2.550
11776TIP3   OH235270   0.413   0.247   0.817
11776TIP3    H135271   0.467   0.182   0.773
11776TIP3    H235272   0.417   0.222   0.910
11777TIP3   OH235273   4.872   6.214   6.252
11777TIP3    H135274   4.886   6.294   6.201
11777TIP3    H235275   4.883   6.241   6.343
11778TIP3   OH235276   0.399   2.630   6.021
11778TIP3    H135277   0.305   2.636   6.006
11778TIP3    H235278   0.431   2.572   5.951
11779TIP3   OH235279   1.888   3.134   3.882
11779TIP3    H135280   1.837   3.123   3.962
11779TIP3    H235281   1.927   3.221   3.889
11780TIP3   OH235282   0.052   3.338   3.064
11780TIP3    H135283   0.126   3.336   3.003
11780TIP3    H235284   0.018   3.427   3.057
11781TIP3   OH235285   5.880   7.077   1.237
11781TIP3    H135286   5.899   7.068   1.331
11781TIP3    H235287   5.966   7.088   1.197
11782TIP3   OH235288   6.259   3.539   5.737
11782TIP3    H135289   6.166   3.535   5.759
11782TIP3    H235290   6.265   3.501   5.650
11783TIP3   OH235291   2.698   0.994   2.948
11783TIP3    H135292   2.639   0.929   2.986
11783TIP3    H235293   2.770   1.002   3.011
11784TIP3   OH235294   7.207   6.690   6.218
11784TIP3    H135295   7.145   6.734   6.159
11784TIP3    H235296   7.201   6.738   6.300
11785TIP3   OH235297   6.571   5.183   5.712
11785TIP3    H135298   6.602   5.267   5.680
11785TIP3    H235299   6.646   5.124   5.700
11786TIP3   OH235300   0.590   3.996   6.089
11786TIP3    H135301   0.640   4.065   6.131
11786TIP3    H235302   0.498   4.021   6.103
11787TIP3   OH235303   2.943   1.924   4.939
11787TIP3    H135304   2.913   1.983   4.869
11787TIP3    H235305   2.958   1.840   4.895
11788TIP3   OH235306   2.320   4.190   5.537
11788TIP3    H135307   2.362   4.275   5.552
11788TIP3    H235308   2.390   4.134   5.503
11789TIP3   OH235309   6.802   1.256   1.945
11789TIP3    H135310   6.862   1.326   1.972
11789TIP3    H235311   6.788   1.271   1.852
11790TIP3   OH235312   7.733   6.040   1.124
11790TIP3    H135313   7.647   6.001   1.139
11790TIP3    H235314   7.773   5.986   1.056
11791TIP3   OH235315   2.578   6.160   1.439
11791TIP3    H135316   2.535   6.086   1.483
11791TIP3    H235317   2.513   6.230   1.442
11792TIP3   OH235318   7.533   4.246   6.121
11792TIP3    H135319   7.502   4.213   6.205
11792TIP3    H235320   7.578   4.328   6.142
11793TIP3   OH235321   1.867   3.691   4.881
11793TIP3    H135322   1.840   3.782   4.870
11793TIP3    H235323   1.894   3.663   4.794
11794TIP3   OH235324   2.189   2.756   0.267
11794TIP3    H135325   2.134   2.701   0.212
11794TIP3    H235326   2.193   2.840   0.221
11795TIP3   OH235327   1.420   2.772   4.902
11795TIP3    H135328   1.462   2.858   4.899
11795TIP3    H235329   1.347   2.784   4.962
11796TIP3   OH235330   6.934   2.544   0.337
11796TIP3    H135331   7.027   2.559   0.317
11796TIP3    H235332   6.887   2.600   0.275
11797TIP3   OH235333   3.047   3.858   5.555
11797TIP3    H135334   3.024   3.784   5.500
11797TIP3    H235335   3.142   3.869   5.543
11798TIP3   OH235336   2.309   2.900   5.392
11798TIP3    H135337   2.257   2.878   5.314
11798TIP3    H235338   2.285   2.991   5.412
11799TIP3   OH235339   8.249   2.998   3.296
11799TIP3    H135340   8.336   3.037   3.310
11799TIP3    H235341   8.204   3.059   3.238
11800TIP3   OH235342   2.214   2.965   5.938
11800TIP3    H135343   2.209   2.869   5.942
11800TIP3    H235344   2.122   2.993   5.942
11801TIP3   OH235345   7.140   5.316   1.466
11801TIP3    H135346   7.224   5.351   1.434
11801TIP3    H235347   7.164   5.235   1.511
11802TIP3   OH235348   6.930   1.263   6.318
11802TIP3    H135349   6.878   1.300   6.389
11802TIP3    H235350   6.961   1.340   6.269
11803TIP3   OH235351   2.795   6.322   1.347
11803TIP3    H135352   2.734   6.268   1.397
11803TIP3    H235353   2.740   6.384   1.300
11804TIP3   OH235354   3.563   5.590   0.129
11804TIP3    H135355   3.587   5.516   0.185
11804TIP3    H235356   3.642   5.609   0.080
11805TIP3   OH235357   4.332   6.886   4.272
11805TIP3    H135358   4.315   6.795   4.297
11805TIP3    H235359   4.311   6.889   4.178
11806TIP3   OH235360   7.375   3.814   2.211
11806TIP3    H135361   7.398   3.762   2.134
11806TIP3    H235362   7.313   3.879   2.179
11807TIP3   OH235363   5.227   6.052   2.979
11807TIP3    H135364   5.218   6.135   2.932
11807TIP3    H235365   5.271   6.075   3.061
11808TIP3   OH235366   7.180   1.456   6.418
11808TIP3    H135367   7.228   1.499   6.488
11808TIP3    H235368   7.097   1.504   6.411
11809TIP3   OH235369   4.417   0.139   2.639
11809TIP3    H135370   4.344   0.193   2.668
11809TIP3    H235371   4.399   0.121   2.546
11810TIP3   OH235372   6.932   1.507   6.185
11810TIP3    H135373   6.840   1.534   6.192
11810TIP3    H235374   6.944   1.486   6.093
11811TIP3   OH235375   5.018   6.492   1.406
11811TIP3    H135376   5.006   6.521   1.316
11811TIP3    H235377   5.094   6.433   1.403
11812TIP3   OH235378   1.220   6.327   4.008
11812TIP3    H135379   1.288   6.260   4.000
11812TIP3    H235380   1.140   6.282   3.980
11813TIP3   OH235381   6.931   7.056   2.861
11813TIP3    H135382   6.950   7.122   2.794
11813TIP3    H235383   6.992   6.985   2.842
11814TIP3   OH235384   7.771   7.263   4.114
11814TIP3    H135385   7.732   7.223   4.036
11814TIP3    H235386   7.717   7.231   4.187
11815TIP3   OH235387   3.974   5.524   5.405
11815TIP3    H135388   4.030   5.481   5.468
11815TIP3    H235389   4.026   5.597   5.372
11816TIP3   OH235390   1.108   6.003   1.165
11816TIP3    H135391   1.133   5.918   1.200
11816TIP3    H235392   1.186   6.034   1.118
11817TIP3   OH235393   2.266   7.515   2.392
11817TIP3    H135394   2.205   7.587   2.409
11817TIP3    H235395   2.346   7.540   2.437
11818TIP3   OH235396   0.792   1.780   4.332
11818TIP3    H135397   0.855   1.721   4.372
11818TIP3    H235398   0.710   1.730   4.331
11819TIP3   OH235399   3.719   5.658   2.223
11819TIP3    H135400   3.782   5.618   2.162
11819TIP3    H235401   3.710   5.748   2.193
11820TIP3   OH235402   7.620   7.259   5.561
11820TIP3    H135403   7.679   7.334   5.558
11820TIP3    H235404   7.544   7.289   5.611
11821TIP3   OH235405   8.213   5.553   2.315
11821TIP3    H135406   8.266   5.616   2.266
11821TIP3    H235407   8.261   5.541   2.397
11822TIP3   OH235408   3.055   2.574   0.466
11822TIP3    H135409   3.062   2.494   0.414
11822TIP3    H235410   3.131   2.626   0.440
11823TIP3   OH235411   5.632   7.797   1.621
11823TIP3    H135412   5.667   7.716   1.583
11823TIP3    H235413   5.705   7.858   1.616
11824TIP3   OH235414   5.146   2.904   5.223
11824TIP3    H135415   5.176   2.972   5.283
11824TIP3    H235416   5.056   2.886   5.250
11825TIP3   OH235417   7.350   7.726   1.695
11825TIP3    H135418   7.270   7.691   1.735
11825TIP3    H235419   7.382   7.791   1.758
11826TIP3   OH235420   1.695   2.206   3.480
11826TIP3    H135421   1.770   2.253   3.517
11826TIP3    H235422   1.734   2.128   3.441
11827TIP3   OH235423   5.993   5.669   6.380
11827TIP3    H135424   5.908   5.628   6.397
11827TIP3    H235425   6.057   5.599   6.393
11828TIP3   OH235426   4.043  -0.019   5.947
11828TIP3    H135427   4.031   0.076   5.935
11828TIP3    H235428   3.975  -0.043   6.010
11829TIP3   OH235429   3.040   4.484   0.756
11829TIP3    H135430   3.117   4.431   0.777
11829TIP3    H235431   3.070   4.543   0.687
11830TIP3   OH235432   5.532   7.239   6.032
11830TIP3    H135433   5.443   7.203   6.032
11830TIP3    H235434   5.539   7.284   5.948
11831TIP3   OH235435   1.821   1.968   0.189
11831TIP3    H135436   1.748   1.984   0.130
11831TIP3    H235437   1.839   2.053   0.230
11832TIP3   OH235438   5.642   2.994   1.739
11832TIP3    H135439   5.564   3.008   1.684
11832TIP3    H235440   5.613   3.015   1.828
11833TIP3   OH235441   7.032   5.531   0.268
11833TIP3    H135442   6.973   5.601   0.295
11833TIP3    H235443   7.094   5.574   0.209
11834TIP3   OH235444   7.171   3.510   4.342
11834TIP3    H135445   7.226   3.471   4.410
11834TIP3    H235446   7.231   3.569   4.295
11835TIP3   OH235447   1.659   2.125   2.231
11835TIP3    H135448   1.676   2.060   2.300
11835TIP3    H235449   1.735   2.182   2.233
11836TIP3   OH235450   5.980   7.727   2.166
11836TIP3    H135451   5.947   7.816   2.154
11836TIP3    H235452   6.040   7.733   2.241
11837TIP3   OH235453   6.368   0.559   3.413
11837TIP3    H135454   6.459   0.538   3.391
11837TIP3    H235455   6.323   0.475   3.407
11838TIP3   OH235456   5.072   5.578   0.574
11838TIP3    H135457   5.138   5.577   0.643
11838TIP3    H235458   5.114   5.626   0.502
11839TIP3   OH235459   3.701   5.986   1.775
11839TIP3    H135460   3.611   6.009   1.751
11839TIP3    H235461   3.726   6.055   1.837
11840TIP3   OH235462   6.416   0.722   6.583
11840TIP3    H135463   6.405   0.633   6.616
11840TIP3    H235464   6.455   0.710   6.496
11841TIP3   OH235465   1.578   1.810   4.554
11841TIP3    H135466   1.560   1.845   4.467
11841TIP3    H235467   1.621   1.883   4.600
11842TIP3   OH235468   0.612   6.168   2.095
11842TIP3    H135469   0.648   6.256   2.097
11842TIP3    H235470   0.658   6.125   2.023
11843TIP3   OH235471   1.084   6.713   4.651
11843TIP3    H135472   1.093   6.688   4.559
11843TIP3    H235473   1.173   6.733   4.679
11844TIP3   OH235474   2.891   4.935   4.247
11844TIP3    H135475   2.808   4.946   4.200
11844TIP3    H235476   2.938   5.017   4.233
11845TIP3   OH235477   3.399   2.755   2.599
11845TIP3    H135478   3.391   2.847   2.574
11845TIP3    H235479   3.493   2.737   2.599
11846TIP3   OH235480   7.255   7.069   3.138
11846TIP3    H135481   7.230   6.978   3.153
11846TIP3    H235482   7.175   7.119   3.153
11847TIP3   OH235483   0.135   3.787   0.095
11847TIP3    H135484   0.173   3.819   0.177
11847TIP3    H235485   0.148   3.859   0.033
11848TIP3   OH235486   7.329   3.351   2.551
11848TIP3    H135487   7.397   3.338   2.616
11848TIP3    H235488   7.275   3.272   2.555
11849TIP3   OH235489   5.242   0.786   0.721
11849TIP3    H135490   5.291   0.793   0.639
11849TIP3    H235491   5.265   0.700   0.755
11850TIP3   OH235492   7.964   5.381   0.509
11850TIP3    H135493   8.000   5.423   0.587
11850TIP3    H235494   7.871   5.370   0.528
11851TIP3   OH235495   2.011   2.112   6.209
11851TIP3    H135496   2.103   2.140   6.202
11851TIP3    H235497   1.970   2.179   6.263
11852TIP3   OH235498   1.802   5.617   3.421
11852TIP3    H135499   1.854   5.640   3.344
11852TIP3    H235500   1.740   5.689   3.430
11853TIP3   OH235501   0.428   3.893   4.871
11853TIP3    H135502   0.371   3.866   4.943
11853TIP3    H235503   0.507   3.927   4.913
11854TIP3   OH235504   1.849   0.280   2.158
11854TIP3    H135505   1.924   0.249   2.209
11854TIP3    H235506   1.843   0.373   2.177
11855TIP3   OH235507   7.865   5.193   1.112
11855TIP3    H135508   7.795   5.190   1.048
11855TIP3    H235509   7.821   5.215   1.195
11856TIP3   OH235510   4.473   5.712   3.826
11856TIP3    H135511   4.470   5.642   3.761
11856TIP3    H235512   4.497   5.668   3.907
11857TIP3   OH235513   1.942   4.586   0.591
11857TIP3    H135514   1.999   4.662   0.585
11857TIP3    H235515   1.942   4.549   0.502
11858TIP3   OH235516   2.274   3.766   0.527
11858TIP3    H135517   2.309   3.689   0.481
11858TIP3    H235518   2.311   3.841   0.479
11859TIP3   OH235519   8.230   0.134   3.361
11859TIP3    H135520   8.150   0.185   3.362
11859TIP3    H235521   8.214   0.063   3.423
11860TIP3   OH235522   6.328   4.179   0.779
11860TIP3    H135523   6.329   4.273   0.794
11860TIP3    H235524   6.267   4.145   0.846
11861TIP3   OH235525   4.375   5.836   2.228
11861TIP3    H135526   4.357   5.900   2.159
11861TIP3    H235527   4.353   5.881   2.309
11862TIP3   OH235528   0.433   4.947   3.452
11862TIP3    H135529   0.517   4.921   3.492
11862TIP3    H235530   0.368   4.891   3.494
11863TIP3   OH235531   6.694   7.383   1.640
11863TIP3    H135532   6.665   7.410   1.727
11863TIP3    H235533   6.786   7.410   1.636
11864TIP3   OH235534   2.138   7.197   5.203
11864TIP3    H135535   2.047   7.225   5.215
11864TIP3    H235536   2.163   7.234   5.118
11865TIP3   OH235537   7.107   4.013   3.359
11865TIP3    H135538   7.163   3.950   3.314
11865TIP3    H235539   7.020   3.999   3.320
11866TIP3   OH235540   3.045   7.238   1.733
11866TIP3    H135541   3.025   7.148   1.707
11866TIP3    H235542   2.964   7.270   1.773
11867TIP3   OH235543   6.617   0.082   4.403
11867TIP3    H135544   6.713   0.088   4.400
11867TIP3    H235545   6.586   0.166   4.368
11868TIP3   OH235546   7.302   6.894   3.381
11868TIP3    H135547   7.251   6.921   3.457
11868TIP3    H235548   7.358   6.970   3.362
11869TIP3   OH235549   0.759   7.061   2.713
11869TIP3    H135550   0.827   7.101   2.659
11869TIP3    H235551   0.698   7.131   2.731
11870TIP3   OH235552   4.764   3.905   1.087
11870TIP3    H135553   4.856   3.925   1.103
11870TIP3    H235554   4.729   3.983   1.044
11871TIP3   OH235555   3.924   5.957   3.733
11871TIP3    H135556   3.840   5.922   3.762
11871TIP3    H235557   3.959   6.001   3.810
11872TIP3   OH235558   7.811   4.570   5.555
11872TIP3    H135559   7.817   4.662   5.530
11872TIP3    H235560   7.859   4.524   5.486
11873TIP3   OH235561   2.665   6.691   3.224
11873TIP3    H135562   2.727   6.749   3.179
11873TIP3    H235563   2.611   6.751   3.277
11874TIP3   OH235564   4.948   3.136   4.447
11874TIP3    H135565   4.929   3.117   4.539
11874TIP3    H235566   4.988   3.056   4.414
11875TIP3   OH235567   2.163   1.950   4.196
11875TIP3    H135568   2.090   2.010   4.184
11875TIP3    H235569   2.192   1.965   4.286
11876TIP3   OH235570   7.409   7.410   6.616
11876TIP3    H135571   7.416   7.499   6.650
11876TIP3    H235572   7.500   7.380   6.610
11877TIP3   OH235573   2.822   2.272   6.047
11877TIP3    H135574   2.761   2.335   6.086
11877TIP3    H235575   2.854   2.315   5.968
11878TIP3   OH235576   6.035   3.781   4.869
11878TIP3    H135577   6.077   3.724   4.805
11878TIP3    H235578   5.943   3.755   4.868
11879TIP3   OH235579   5.361   3.213   3.404
11879TIP3    H135580   5.389   3.124   3.424
11879TIP3    H235581   5.423   3.269   3.450
11880TIP3   OH235582   8.128   5.958   5.744
11880TIP3    H135583   8.105   5.976   5.652
11880TIP3    H235584   8.173   5.873   5.741
11881TIP3   OH235585   5.322   3.758   3.058
11881TIP3    H135586   5.227   3.745   3.063
11881TIP3    H235587   5.355   3.729   3.143
11882TIP3   OH235588   7.211   2.838   0.861
11882TIP3    H135589   7.197   2.743   0.854
11882TIP3    H235590   7.305   2.849   0.845
11883TIP3   OH235591   5.028   4.986   0.392
11883TIP3    H135592   4.936   5.002   0.370
11883TIP3    H235593   5.047   4.900   0.356
11884TIP3   OH235594   7.247   2.124   6.157
11884TIP3    H135595   7.288   2.207   6.179
11884TIP3    H235596   7.164   2.125   6.206
11885TIP3   OH235597   2.680   7.756   3.785
11885TIP3    H135598   2.716   7.749   3.873
11885TIP3    H235599   2.668   7.850   3.771
11886TIP3   OH235600   8.299   3.163   4.143
11886TIP3    H135601   8.298   3.097   4.213
11886TIP3    H235602   8.212   3.202   4.146
11887TIP3   OH235603   1.589   1.974   0.924
11887TIP3    H135604   1.578   2.055   0.874
11887TIP3    H235605   1.505   1.928   0.914
11888TIP3   OH235606   1.944   6.935   3.745
11888TIP3    H135607   1.866   6.944   3.691
11888TIP3    H235608   1.932   6.851   3.790
11889TIP3   OH235609   0.187   3.943   5.876
11889TIP3    H135610   0.092   3.944   5.863
11889TIP3    H235611   0.216   3.865   5.829
11890TIP3   OH235612   5.800   3.756   3.706
11890TIP3    H135613   5.862   3.750   3.632
11890TIP3    H235614   5.836   3.826   3.761
11891TIP3   OH235615   7.757   7.108   6.073
11891TIP3    H135616   7.711   7.185   6.106
11891TIP3    H235617   7.751   7.115   5.978
11892TIP3   OH235618   5.826   6.241   4.110
11892TIP3    H135619   5.838   6.229   4.016
11892TIP3    H235620   5.806   6.334   4.120
11893TIP3   OH235621   2.179   6.242   4.275
11893TIP3    H135622   2.173   6.147   4.279
11893TIP3    H235623   2.274   6.259   4.275
11894TIP3   OH235624   2.138   7.549   5.647
11894TIP3    H135625   2.091   7.485   5.700
11894TIP3    H235626   2.141   7.509   5.560
11895TIP3   OH235627   2.539   2.266   3.552
11895TIP3    H135628   2.580   2.192   3.596
11895TIP3    H235629   2.567   2.342   3.603
11896TIP3   OH235630   4.686   2.656   3.453
11896TIP3    H135631   4.620   2.590   3.475
11896TIP3    H235632   4.655   2.696   3.372
11897TIP3   OH235633   1.131   1.124   6.689
11897TIP3    H135634   1.042   1.160   6.696
11897TIP3    H235635   1.145   1.080   6.773
11898TIP3   OH235636   5.394   2.674   4.595
11898TIP3    H135637   5.480   2.633   4.587
11898TIP3    H235638   5.334   2.611   4.556
11899TIP3   OH235639   6.202   3.600   2.717
11899TIP3    H135640   6.162   3.550   2.645
11899TIP3    H235641   6.258   3.664   2.672
11900TIP3   OH235642   1.367   4.734   6.064
11900TIP3    H135643   1.354   4.812   6.011
11900TIP3    H235644   1.384   4.664   6.001
11901TIP3   OH235645   8.115   7.383   3.864
11901TIP3    H135646   8.103   7.360   3.956
11901TIP3    H235647   8.208   7.366   3.847
11902TIP3   OH235648   4.750   0.567   5.726
11902TIP3    H135649   4.745   0.514   5.646
11902TIP3    H235650   4.696   0.519   5.789
11903TIP3   OH235651   0.632   3.400   2.372
11903TIP3    H135652   0.688   3.323   2.376
11903TIP3    H235653   0.687   3.469   2.335
11904TIP3   OH235654   1.163   1.116   2.588
11904TIP3    H135655   1.237   1.069   2.626
11904TIP3    H235656   1.191   1.207   2.587
11905TIP3   OH235657   2.644   6.719   0.566
11905TIP3    H135658   2.732   6.756   0.559
11905TIP3    H235659   2.600   6.775   0.630
11906TIP3   OH235660   2.016   6.652   1.317
11906TIP3    H135661   1.971   6.587   1.263
11906TIP3    H235662   1.973   6.735   1.295
11907TIP3   OH235663   7.653   1.501   2.502
11907TIP3    H135664   7.701   1.540   2.575
11907TIP3    H235665   7.596   1.571   2.470
11908TIP3   OH235666   7.451   1.162   1.722
11908TIP3    H135667   7.512   1.118   1.781
11908TIP3    H235668   7.377   1.101   1.714
11909TIP3   OH235669   3.962   7.449   5.404
11909TIP3    H135670   3.962   7.502   5.324
11909TIP3    H235671   4.052   7.420   5.414
11910TIP3   OH235672   4.587   1.686   5.585
11910TIP3    H135673   4.565   1.748   5.654
11910TIP3    H235674   4.573   1.734   5.503
11911TIP3   OH235675   3.601   2.863   2.250
11911TIP3    H135676   3.625   2.955   2.238
11911TIP3    H235677   3.506   2.865   2.261
11912TIP3   OH235678   2.327   0.202   6.382
11912TIP3    H135679   2.383   0.253   6.324
11912TIP3    H235680   2.245   0.251   6.385
11913TIP3   OH235681   6.982   7.165   3.720
11913TIP3    H135682   7.007   7.089   3.773
11913TIP3    H235683   6.944   7.128   3.641
11914TIP3   OH235684   1.504   3.843   3.663
11914TIP3    H135685   1.455   3.925   3.672
11914TIP3    H235686   1.488   3.815   3.573
11915TIP3   OH235687   3.653   5.805   1.262
11915TIP3    H135688   3.583   5.815   1.198
11915TIP3    H235689   3.734   5.817   1.212
11916TIP3   OH235690   0.635   0.805   1.886
11916TIP3    H135691   0.679   0.843   1.810
11916TIP3    H235692   0.629   0.711   1.866
11917TIP3   OH235693   4.479   2.059   1.531
11917TIP3    H135694   4.472   2.131   1.593
11917TIP3    H235695   4.504   1.983   1.584
11918TIP3   OH235696   1.302   0.745   6.140
11918TIP3    H135697   1.246   0.820   6.159
11918TIP3    H235698   1.380   0.758   6.193
11919TIP3   OH235699   8.176   3.391   0.015
11919TIP3    H135700   8.187   3.478   0.055
11919TIP3    H235701   8.093   3.359   0.052
11920TIP3   OH235702   2.313   0.155   1.353
11920TIP3    H135703   2.220   0.170   1.335
11920TIP3    H235704   2.359   0.198   1.280
11921TIP3   OH235705   3.407   4.616   3.401
11921TIP3    H135706   3.323   4.634   3.443
11921TIP3    H235707   3.473   4.652   3.460
11922TIP3   OH235708   1.723   2.094   6.489
11922TIP3    H135709   1.643   2.122   6.444
11922TIP3    H235710   1.792   2.149   6.451
11923TIP3   OH235711   0.527   3.059   5.170
11923TIP3    H135712   0.562   2.971   5.159
11923TIP3    H235713   0.598   3.107   5.212
11924TIP3   OH235714   0.676   1.554   1.233
11924TIP3    H135715   0.757   1.513   1.203
11924TIP3    H235716   0.671   1.531   1.326
11925TIP3   OH235717   5.977   3.517   5.094
11925TIP3    H135718   5.944   3.431   5.068
11925TIP3    H235719   6.066   3.520   5.060
11926TIP3   OH235720   5.397   1.128   0.766
11926TIP3    H135721   5.411   1.176   0.685
11926TIP3    H235722   5.452   1.050   0.758
11927TIP3   OH235723   0.031   1.881   0.914
11927TIP3    H135724   0.027   1.841   1.001
11927TIP3    H235725   0.030   1.807   0.853
11928TIP3   OH235726   0.876   3.696   5.125
11928TIP3    H135727   0.907   3.742   5.048
11928TIP3    H235728   0.918   3.741   5.199
11929TIP3   OH235729   4.214   3.495   4.224
11929TIP3    H135730   4.150   3.426   4.241
11929TIP3    H235731   4.299   3.449   4.223
11930TIP3   OH235732   6.012   0.844   3.530
11930TIP3    H135733   5.952   0.769   3.530
11930TIP3    H235734   6.082   0.819   3.469
11931TIP3   OH235735   7.115   2.188   3.362
11931TIP3    H135736   7.097   2.276   3.396
11931TIP3    H235737   7.076   2.187   3.275
11932TIP3   OH235738   3.651   3.618   2.994
11932TIP3    H135739   3.683   3.529   3.011
11932TIP3    H235740   3.630   3.653   3.081
11933TIP3   OH235741   7.226   4.733   6.071
11933TIP3    H135742   7.305   4.685   6.045
11933TIP3    H235743   7.170   4.732   5.994
11934TIP3   OH235744   5.623   6.839   4.892
11934TIP3    H135745   5.662   6.920   4.927
11934TIP3    H235746   5.536   6.837   4.931
11935TIP3   OH235747   7.447   3.288   1.343
11935TIP3    H135748   7.388   3.227   1.387
11935TIP3    H235749   7.535   3.252   1.358
11936TIP3   OH235750   4.541   4.815   2.185
11936TIP3    H135751   4.578   4.851   2.104
11936TIP3    H235752   4.559   4.721   2.180
11937TIP3   OH235753   1.580   0.889   3.933
11937TIP3    H135754   1.514   0.873   4.000
11937TIP3    H235755   1.541   0.955   3.876
11938TIP3   OH235756   2.569   1.569   2.947
11938TIP3    H135757   2.643   1.542   2.894
11938TIP3    H235758   2.541   1.652   2.908
11939TIP3   OH235759   2.091   3.053   4.156
11939TIP3    H135760   2.017   3.029   4.211
11939TIP3    H235761   2.112   2.974   4.107
11940TIP3   OH235762   0.503   5.530   1.657
11940TIP3    H135763   0.527   5.463   1.593
11940TIP3    H235764   0.469   5.603   1.605
11941TIP3   OH235765   7.643   0.955   2.392
11941TIP3    H135766   7.737   0.953   2.377
11941TIP3    H235767   7.633   0.968   2.486
11942TIP3   OH235768   0.764   6.861   5.518
11942TIP3    H135769   0.753   6.770   5.492
11942TIP3    H235770   0.776   6.908   5.436
11943TIP3   OH235771   7.615  -0.023   4.708
11943TIP3    H135772   7.616  -0.116   4.687
11943TIP3    H235773   7.522  -0.001   4.710
11944TIP3   OH235774   8.220   3.824   6.611
11944TIP3    H135775   8.235   3.892   6.545
11944TIP3    H235776   8.257   3.860   6.692
11945TIP3   OH235777   7.730   0.708   6.291
11945TIP3    H135778   7.757   0.616   6.286
11945TIP3    H235779   7.806   0.758   6.261
11946TIP3   OH235780   5.921   0.207   0.783
11946TIP3    H135781   6.010   0.241   0.787
11946TIP3    H235782   5.900   0.184   0.874
11947TIP3   OH235783   1.434   0.911   2.209
11947TIP3    H135784   1.391   0.959   2.280
11947TIP3    H235785   1.382   0.832   2.199
11948TIP3   OH235786   0.709   7.648   3.710
11948TIP3    H135787   0.789   7.599   3.688
11948TIP3    H235788   0.680   7.685   3.626
11949TIP3   OH235789   1.228   7.034   3.126
11949TIP3    H135790   1.304   7.092   3.133
11949TIP3    H235791   1.158   7.081   3.170
11950TIP3   OH235792   3.207   6.402   6.358
11950TIP3    H135793   3.257   6.329   6.395
11950TIP3    H235794   3.166   6.365   6.280
11951TIP3   OH235795   1.536   2.279   4.312
11951TIP3    H135796   1.600   2.271   4.240
11951TIP3    H235797   1.569   2.351   4.365
11952TIP3   OH235798   2.300   4.636   2.644
11952TIP3    H135799   2.369   4.623   2.709
11952TIP3    H235800   2.322   4.719   2.602
11953TIP3   OH235801   7.316   5.201   0.621
11953TIP3    H135802   7.354   5.117   0.646
11953TIP3    H235803   7.225   5.196   0.651
11954TIP3   OH235804   3.106   0.698   0.531
11954TIP3    H135805   3.073   0.608   0.531
11954TIP3    H235806   3.061   0.741   0.459
11955TIP3   OH235807   6.901   2.009   5.155
11955TIP3    H135808   6.959   1.942   5.119
11955TIP3    H235809   6.877   2.062   5.079
11956TIP3   OH235810   6.424   1.523   3.648
11956TIP3    H135811   6.390   1.554   3.564
11956TIP3    H235812   6.351   1.476   3.688
11957TIP3   OH235813   0.742   0.466   0.810
11957TIP3    H135814   0.726   0.405   0.738
11957TIP3    H235815   0.798   0.534   0.773
11958TIP3   OH235816   4.840   2.585   5.427
11958TIP3    H135817   4.904   2.628   5.484
11958TIP3    H235818   4.870   2.495   5.420
11959TIP3   OH235819   8.282   6.622   6.662
11959TIP3    H135820   8.231   6.548   6.630
11959TIP3    H235821   8.311   6.595   6.750
11960TIP3   OH235822   6.933   0.296   0.369
11960TIP3    H135823   7.025   0.321   0.361
11960TIP3    H235824   6.915   0.302   0.463
11961TIP3   OH235825   7.595   0.025   2.436
11961TIP3    H135826   7.616   0.056   2.524
11961TIP3    H235827   7.581  -0.069   2.446
11962TIP3   OH235828   3.745   5.120   4.226
11962TIP3    H135829   3.706   5.032   4.219
11962TIP3    H235830   3.767   5.129   4.319
11963TIP3   OH235831   5.935   0.509   3.008
11963TIP3    H135832   5.881   0.557   3.071
11963TIP3    H235833   5.953   0.571   2.938
11964TIP3   OH235834   5.452   1.131   0.467
11964TIP3    H135835   5.538   1.088   0.459
11964TIP3    H235836   5.474   1.222   0.484
11965TIP3   OH235837   3.255   6.890   3.481
11965TIP3    H135838   3.217   6.977   3.494
11965TIP3    H235839   3.260   6.880   3.386
11966TIP3   OH235840   4.743   5.083   3.854
11966TIP3    H135841   4.712   5.016   3.794
11966TIP3    H235842   4.662   5.122   3.890
11967TIP3   OH235843   3.803   5.327   5.821
11967TIP3    H135844   3.811   5.291   5.732
11967TIP3    H235845   3.709   5.330   5.837
11968TIP3   OH235846   5.248   2.039   4.566
11968TIP3    H135847   5.225   1.947   4.552
11968TIP3    H235848   5.341   2.044   4.544
11969TIP3   OH235849   5.153   2.977   3.475
11969TIP3    H135850   5.104   3.032   3.535
11969TIP3    H235851   5.140   2.888   3.507
11970TIP3   OH235852   5.567   3.446   5.256
11970TIP3    H135853   5.532   3.448   5.345
11970TIP3    H235854   5.651   3.401   5.265
11971TIP3   OH235855   5.304   1.678   1.902
11971TIP3    H135856   5.291   1.762   1.946
11971TIP3    H235857   5.225   1.668   1.848
11972TIP3   OH235858   6.304   6.064   0.678
11972TIP3    H135859   6.364   6.000   0.715
11972TIP3    H235860   6.265   6.020   0.603
11973TIP3   OH235861   5.237   6.296   1.358
11973TIP3    H135862   5.293   6.348   1.300
11973TIP3    H235863   5.286   6.290   1.440
11974TIP3   OH235864   2.520   5.477   1.251
11974TIP3    H135865   2.556   5.398   1.210
11974TIP3    H235866   2.498   5.534   1.177
11975TIP3   OH235867   2.892   2.857   1.748
11975TIP3    H135868   2.931   2.909   1.678
11975TIP3    H235869   2.815   2.818   1.707
11976TIP3   OH235870   4.699   6.982   6.258
11976TIP3    H135871   4.709   7.041   6.334
11976TIP3    H235872   4.715   6.895   6.293
11977TIP3   OH235873   3.149   5.962   3.431
11977TIP3    H135874   3.107   5.890   3.384
11977TIP3    H235875   3.081   5.994   3.491
11978TIP3   OH235876   4.801   5.382   1.673
11978TIP3    H135877   4.723   5.387   1.618
11978TIP3    H235878   4.829   5.291   1.666
11979TIP3   OH235879   6.595   2.280   0.273
11979TIP3    H135880   6.686   2.288   0.302
11979TIP3    H235881   6.543   2.284   0.353
11980TIP3   OH235882   1.946   1.426   5.034
11980TIP3    H135883   2.005   1.457   4.965
11980TIP3    H235884   1.989   1.450   5.116
11981TIP3   OH235885   0.453   7.552   6.129
11981TIP3    H135886   0.445   7.645   6.147
11981TIP3    H235887   0.370   7.514   6.161
11982TIP3   OH235888   3.923   6.131   0.537
11982TIP3    H135889   4.014   6.148   0.562
11982TIP3    H235890   3.928   6.112   0.444
11983TIP3   OH235891   5.196   1.681   1.348
11983TIP3    H135892   5.145   1.611   1.306
11983TIP3    H235893   5.225   1.643   1.431
11984TIP3   OH235894   0.070   4.719   0.698
11984TIP3    H135895   0.084   4.644   0.755
11984TIP3    H235896   0.126   4.788   0.734
11985TIP3   OH235897   4.674   3.987   0.442
11985TIP3    H135898   4.657   3.949   0.528
11985TIP3    H235899   4.612   4.060   0.435
11986TIP3   OH235900   1.128   3.110   2.163
11986TIP3    H135901   1.083   3.184   2.122
11986TIP3    H235902   1.132   3.043   2.095
11987TIP3   OH235903   7.330   0.894   0.886
11987TIP3    H135904   7.276   0.867   0.811
11987TIP3    H235905   7.274   0.954   0.935
11988TIP3   OH235906   3.454   0.173   1.841
11988TIP3    H135907   3.541   0.135   1.843
11988TIP3    H235908   3.467   0.264   1.814
11989TIP3   OH235909   5.902   0.269   1.808
11989TIP3    H135910   5.895   0.250   1.715
11989TIP3    H235911   5.845   0.205   1.850
11990TIP3   OH235912   5.774   3.700   4.797
11990TIP3    H135913   5.695   3.684   4.849
11990TIP3    H235914   5.777   3.626   4.736
11991TIP3   OH235915   1.067   7.741   3.564
11991TIP3    H135916   1.007   7.815   3.579
11991TIP3    H235917   1.107   7.760   3.479
11992TIP3   OH235918   8.229   3.505   4.707
11992TIP3    H135919   8.247   3.430   4.651
11992TIP3    H235920   8.303   3.507   4.769
11993TIP3   OH235921   3.995   1.102   1.390
11993TIP3    H135922   3.995   1.019   1.437
11993TIP3    H235923   3.967   1.080   1.301
11994TIP3   OH235924   4.868   4.555   2.961
11994TIP3    H135925   4.804   4.502   2.914
11994TIP3    H235926   4.821   4.634   2.986
11995TIP3   OH235927   7.819   6.469   3.022
11995TIP3    H135928   7.735   6.502   3.055
11995TIP3    H235929   7.882   6.489   3.092
11996TIP3   OH235930   2.520   4.198   4.504
11996TIP3    H135931   2.546   4.148   4.582
11996TIP3    H235932   2.572   4.279   4.510
11997TIP3   OH235933   4.563   3.908   6.546
11997TIP3    H135934   4.494   3.973   6.544
11997TIP3    H235935   4.603   3.917   6.633
11998TIP3   OH235936   1.502   6.631   5.400
11998TIP3    H135937   1.513   6.726   5.403
11998TIP3    H235938   1.407   6.618   5.400
11999TIP3   OH235939   3.154   2.549   6.094
11999TIP3    H135940   3.097   2.508   6.159
11999TIP3    H235941   3.238   2.504   6.103
12000TIP3   OH235942   6.001   5.816   0.960
12000TIP3    H135943   6.011   5.817   0.865
12000TIP3    H235944   5.968   5.729   0.980
12001TIP3   OH235945   3.463   1.018   1.742
12001TIP3    H135946   3.386   1.009   1.686
12001TIP3    H235947   3.427   1.032   1.830
12002TIP3   OH235948   4.548   3.362   0.596
12002TIP3    H135949   4.598   3.435   0.632
12002TIP3    H235950   4.479   3.403   0.544
12003TIP3   OH235951   6.245   2.434   5.780
12003TIP3    H135952   6.276   2.523   5.764
12003TIP3    H235953   6.275   2.413   5.869
12004TIP3   OH235954   0.484   2.039   1.321
12004TIP3    H135955   0.530   1.961   1.291
12004TIP3    H235956   0.512   2.108   1.262
12005TIP3   OH235957   2.047   5.273   2.341
12005TIP3    H135958   2.106   5.222   2.286
12005TIP3    H235959   2.029   5.353   2.291
12006TIP3   OH235960   4.940   1.066   0.096
12006TIP3    H135961   4.961   0.981   0.057
12006TIP3    H235962   4.939   1.127   0.022
12007TIP3   OH235963   1.336   4.301   2.344
12007TIP3    H135964   1.300   4.222   2.303
12007TIP3    H235965   1.261   4.344   2.383
12008TIP3   OH235966   6.321   6.166   4.675
12008TIP3    H135967   6.260   6.094   4.660
12008TIP3    H235968   6.389   6.155   4.609
12009TIP3   OH235969   1.888   6.874   5.873
12009TIP3    H135970   1.800   6.906   5.852
12009TIP3    H235971   1.936   6.882   5.791
12010TIP3   OH235972   0.112   6.855   1.234
12010TIP3    H135973   0.176   6.884   1.169
12010TIP3    H235974   0.164   6.838   1.313
12011TIP3   OH235975   6.497   5.065   4.705
12011TIP3    H135976   6.426   5.000   4.712
12011TIP3    H235977   6.457   5.138   4.658
12012TIP3   OH235978   7.220   5.526   0.867
12012TIP3    H135979   7.246   5.513   0.959
12012TIP3    H235980   7.229   5.621   0.853
12013TIP3   OH235981   3.569   7.410   1.352
12013TIP3    H135982   3.525   7.487   1.317
12013TIP3    H235983   3.627   7.381   1.281
12014TIP3   OH235984   6.672   4.781   1.052
12014TIP3    H135985   6.684   4.840   1.126
12014TIP3    H235986   6.753   4.789   1.002
12015TIP3   OH235987   5.789   6.968   3.330
12015TIP3    H135988   5.765   7.043   3.385
12015TIP3    H235989   5.752   6.989   3.244
12016TIP3   OH235990   4.683   2.627   3.863
12016TIP3    H135991   4.768   2.637   3.906
12016TIP3    H235992   4.635   2.706   3.886
12017TIP3   OH235993   2.934   2.771   4.179
12017TIP3    H135994   2.863   2.707   4.182
12017TIP3    H235995   2.918   2.821   4.100
12018TIP3   OH235996   2.380   6.106   4.517
12018TIP3    H135997   2.285   6.104   4.504
12018TIP3    H235998   2.396   6.046   4.590
12019TIP3   OH235999   7.035   1.569   2.251
12019TIP3    H136000   7.125   1.597   2.264
12019TIP3    H236001   6.989   1.597   2.330
12020TIP3   OH236002   2.482   0.112   0.728
12020TIP3    H136003   2.417   0.079   0.790
12020TIP3    H236004   2.532   0.034   0.703
12021TIP3   OH236005   3.327   3.692   4.150
12021TIP3    H136006   3.260   3.645   4.200
12021TIP3    H236007   3.278   3.761   4.104
12022TIP3   OH236008   5.510   2.065   0.898
12022TIP3    H136009   5.446   2.134   0.879
12022TIP3    H236010   5.514   2.063   0.994
12023TIP3   OH236011   0.683   6.901   2.487
12023TIP3    H136012   0.753   6.884   2.424
12023TIP3    H236013   0.729   6.908   2.571
12024TIP3   OH236014   4.489   7.088   3.107
12024TIP3    H136015   4.413   7.043   3.144
12024TIP3    H236016   4.455   7.137   3.032
12025TIP3   OH236017   4.627   4.422   2.940
12025TIP3    H136018   4.600   4.331   2.951
12025TIP3    H236019   4.633   4.456   3.029
12026TIP3   OH236020   2.380   3.084   2.374
12026TIP3    H136021   2.453   3.022   2.381
12026TIP3    H236022   2.354   3.081   2.282
12027TIP3   OH236023   7.471   1.152   5.388
12027TIP3    H136024   7.405   1.105   5.338
12027TIP3    H236025   7.554   1.124   5.350
12028TIP3   OH236026   7.950   7.071   1.377
12028TIP3    H136027   8.001   7.079   1.458
12028TIP3    H236028   8.006   7.020   1.319
12029TIP3   OH236029   4.397   1.996   6.472
12029TIP3    H136030   4.486   1.960   6.468
12029TIP3    H236031   4.355   1.965   6.392
12030TIP3   OH236032   4.824   3.738   0.478
12030TIP3    H136033   4.734   3.708   0.490
12030TIP3    H236034   4.878   3.659   0.484
12031TIP3   OH236035   6.569   3.114   1.961
12031TIP3    H136036   6.568   3.208   1.976
12031TIP3    H236037   6.490   3.097   1.910
12032TIP3   OH236038   7.573   3.113   6.440
12032TIP3    H136039   7.594   3.205   6.424
12032TIP3    H236040   7.493   3.097   6.391
12033TIP3   OH236041   3.803   4.297   1.197
12033TIP3    H136042   3.862   4.249   1.139
12033TIP3    H236043   3.861   4.336   1.262
12034TIP3   OH236044   3.385   0.123   0.491
12034TIP3    H136045   3.364   0.177   0.415
12034TIP3    H236046   3.465   0.161   0.527
12035TIP3   OH236047   7.892   2.682   2.026
12035TIP3    H136048   7.838   2.741   1.974
12035TIP3    H236049   7.970   2.732   2.048
12036TIP3   OH236050   4.426   7.831   3.807
12036TIP3    H136051   4.452   7.881   3.884
12036TIP3    H236052   4.356   7.773   3.838
12037TIP3   OH236053   2.332   2.181   6.361
12037TIP3    H136054   2.420   2.218   6.361
12037TIP3    H236055   2.325   2.135   6.278
12038TIP3   OH236056   1.575   2.004   4.359
12038TIP3    H136057   1.628   2.080   4.383
12038TIP3    H236058   1.484   2.033   4.373
12039TIP3   OH236059   1.207   3.190   1.679
12039TIP3    H136060   1.237   3.207   1.590
12039TIP3    H236061   1.132   3.132   1.669
12040TIP3   OH236062   5.777   7.223   2.919
12040TIP3    H136063   5.822   7.169   2.984
12040TIP3    H236064   5.843   7.286   2.890
12041TIP3   OH236065   1.466   5.823   1.450
12041TIP3    H136066   1.527   5.842   1.379
12041TIP3    H236067   1.521   5.790   1.521
12042TIP3   OH236068   5.445   7.025   0.369
12042TIP3    H136069   5.528   7.024   0.321
12042TIP3    H236070   5.378   7.028   0.300
12043TIP3   OH236071   0.525   1.646   6.064
12043TIP3    H136072   0.498   1.661   6.155
12043TIP3    H236073   0.620   1.662   6.064
12044TIP3   OH236074   1.426   5.589   4.497
12044TIP3    H136075   1.393   5.598   4.587
12044TIP3    H236076   1.347   5.577   4.444
12045TIP3   OH236077   3.178   7.442   1.390
12045TIP3    H136078   3.236   7.367   1.398
12045TIP3    H236079   3.140   7.434   1.302
12046TIP3   OH236080   5.412   0.213   0.753
12046TIP3    H136081   5.363   0.220   0.835
12046TIP3    H236082   5.359   0.154   0.699
12047TIP3   OH236083   1.316   4.659   2.444
12047TIP3    H136084   1.333   4.621   2.530
12047TIP3    H236085   1.402   4.657   2.400
12048TIP3   OH236086   1.836   0.536   3.560
12048TIP3    H136087   1.927   0.508   3.556
12048TIP3    H236088   1.794   0.489   3.488
12049TIP3   OH236089   7.551   0.086   3.820
12049TIP3    H136090   7.536   0.160   3.879
12049TIP3    H236091   7.500   0.106   3.742
12050TIP3   OH236092   1.935   2.373   5.356
12050TIP3    H136093   1.949   2.388   5.449
12050TIP3    H236094   1.914   2.459   5.320
12051TIP3   OH236095   8.063   7.501   2.207
12051TIP3    H136096   8.037   7.416   2.172
12051TIP3    H236097   8.073   7.486   2.301
12052TIP3   OH236098   6.585   0.346   2.378
12052TIP3    H136099   6.660   0.362   2.321
12052TIP3    H236100   6.509   0.366   2.324
12053TIP3   OH236101   5.490   2.034   1.750
12053TIP3    H136102   5.562   2.061   1.692
12053TIP3    H236103   5.533   1.999   1.828
12054TIP3   OH236104   8.309   4.768   4.001
12054TIP3    H136105   8.233   4.803   3.955
12054TIP3    H236106   8.283   4.680   4.027
12055TIP3   OH236107   2.945   1.869   5.210
12055TIP3    H136108   2.939   1.947   5.265
12055TIP3    H236109   2.948   1.902   5.121
12056TIP3   OH236110   6.327   3.626   1.826
12056TIP3    H136111   6.244   3.606   1.783
12056TIP3    H236112   6.333   3.562   1.897
12057TIP3   OH236113   8.241   3.597   2.988
12057TIP3    H136114   8.187   3.665   2.948
12057TIP3    H236115   8.325   3.640   3.003
12058TIP3   OH236116   5.781   1.463   4.082
12058TIP3    H136117   5.723   1.532   4.047
12058TIP3    H236118   5.745   1.442   4.168
12059TIP3   OH236119   1.233   5.303   1.170
12059TIP3    H136120   1.275   5.219   1.149
12059TIP3    H236121   1.166   5.314   1.103
12060TIP3   OH236122   6.242   6.502   5.995
12060TIP3    H136123   6.316   6.475   5.940
12060TIP3    H236124   6.254   6.452   6.076
12061TIP3   OH236125   7.616   6.318   0.329
12061TIP3    H136126   7.692   6.373   0.310
12061TIP3    H236127   7.544   6.379   0.343
12062TIP3   OH236128   0.261   3.841   4.294
12062TIP3    H136129   0.243   3.935   4.287
12062TIP3    H236130   0.306   3.819   4.212
12063TIP3   OH236131   5.355   5.515   5.588
12063TIP3    H136132   5.390   5.438   5.543
12063TIP3    H236133   5.411   5.587   5.558
12064TIP3   OH236134   2.502   0.191   4.350
12064TIP3    H136135   2.521   0.277   4.387
12064TIP3    H236136   2.407   0.191   4.337
12065TIP3   OH236137   0.180   6.623   0.525
12065TIP3    H136138   0.221   6.537   0.536
12065TIP3    H236139   0.246   6.684   0.559
12066TIP3   OH236140   0.405   3.660   3.144
12066TIP3    H136141   0.491   3.700   3.155
12066TIP3    H236142   0.394   3.604   3.221
12067TIP3   OH236143   4.658   6.283   0.005
12067TIP3    H136144   4.567   6.305   0.025
12067TIP3    H236145   4.686   6.229   0.079
12068TIP3   OH236146   3.691   2.426   5.992
12068TIP3    H136147   3.752   2.414   6.064
12068TIP3    H236148   3.647   2.342   5.983
12069TIP3   OH236149   1.742   3.420   6.357
12069TIP3    H136150   1.826   3.400   6.399
12069TIP3    H236151   1.692   3.339   6.363
12070TIP3   OH236152   6.073   1.942   1.373
12070TIP3    H136153   6.100   1.912   1.459
12070TIP3    H236154   6.108   2.031   1.367
12071TIP3   OH236155   1.230   4.823   3.830
12071TIP3    H136156   1.238   4.801   3.737
12071TIP3    H236157   1.166   4.760   3.864
12072TIP3   OH236158   6.089   3.199   6.633
12072TIP3    H136159   6.168   3.191   6.688
12072TIP3    H236160   6.060   3.289   6.647
12073TIP3   OH236161   0.863   3.121   4.038
12073TIP3    H136162   0.855   3.028   4.059
12073TIP3    H236163   0.773   3.152   4.030
12074TIP3   OH236164   8.066   6.220   4.092
12074TIP3    H136165   7.978   6.225   4.055
12074TIP3    H236166   8.060   6.154   4.161
12075TIP3   OH236167   7.632   1.428   0.885
12075TIP3    H136168   7.580   1.509   0.890
12075TIP3    H236169   7.567   1.359   0.870
12076TIP3   OH236170   6.398   1.820   0.428
12076TIP3    H136171   6.435   1.756   0.488
12076TIP3    H236172   6.341   1.769   0.370
12077TIP3   OH236173   4.816   0.754   4.263
12077TIP3    H136174   4.856   0.806   4.194
12077TIP3    H236175   4.839   0.799   4.344
12078TIP3   OH236176   1.935   1.286   2.519
12078TIP3    H136177   1.914   1.252   2.432
12078TIP3    H236178   1.851   1.290   2.564
12079TIP3   OH236179   3.079   5.961   4.650
12079TIP3    H136180   3.150   5.973   4.587
12079TIP3    H236181   3.120   5.976   4.736
12080TIP3   OH236182   0.455   1.877   1.539
12080TIP3    H136183   0.419   1.835   1.461
12080TIP3    H236184   0.414   1.963   1.541
12081TIP3   OH236185   0.317   5.487   6.140
12081TIP3    H136186   0.389   5.433   6.108
12081TIP3    H236187   0.337   5.575   6.108
12082TIP3   OH236188   5.027   0.608   2.887
12082TIP3    H136189   5.095   0.553   2.925
12082TIP3    H236190   5.016   0.575   2.798
12083TIP3   OH236191   2.005   4.664   2.772
12083TIP3    H136192   2.084   4.611   2.783
12083TIP3    H236193   1.933   4.605   2.794
12084TIP3   OH236194   0.388   3.120   5.398
12084TIP3    H136195   0.310   3.065   5.390
12084TIP3    H236196   0.449   3.083   5.334
12085TIP3   OH236197   4.381   3.416   5.416
12085TIP3    H136198   4.452   3.424   5.480
12085TIP3    H236199   4.426   3.400   5.333
12086TIP3   OH236200   7.554   1.268   3.409
12086TIP3    H136201   7.540   1.224   3.493
12086TIP3    H236202   7.512   1.353   3.420
12087TIP3   OH236203   1.970   3.128   1.486
12087TIP3    H136204   1.908   3.177   1.433
12087TIP3    H236205   1.948   3.036   1.470
12088TIP3   OH236206   7.554   3.154   3.992
12088TIP3    H136207   7.561   3.112   4.078
12088TIP3    H236208   7.625   3.218   3.990
12089TIP3   OH236209   4.021   5.047   3.455
12089TIP3    H136210   4.113   5.026   3.439
12089TIP3    H236211   4.024   5.111   3.526
12090TIP3   OH236212   7.360   3.537   0.238
12090TIP3    H136213   7.358   3.616   0.292
12090TIP3    H236214   7.271   3.502   0.242
12091TIP3   OH236215   5.129   3.885   4.347
12091TIP3    H136216   5.177   3.965   4.327
12091TIP3    H236217   5.084   3.862   4.265
12092TIP3   OH236218   7.447   2.687   5.777
12092TIP3    H136219   7.523   2.657   5.827
12092TIP3    H236220   7.376   2.630   5.804
12093TIP3   OH236221   3.305   3.405   5.095
12093TIP3    H136222   3.243   3.477   5.081
12093TIP3    H236223   3.369   3.414   5.024
12094TIP3   OH236224   7.142   6.054   5.778
12094TIP3    H136225   7.164   6.115   5.708
12094TIP3    H236226   7.108   6.109   5.848
12095TIP3   OH236227   0.148   3.543   1.432
12095TIP3    H136228   0.108   3.459   1.456
12095TIP3    H236229   0.185   3.528   1.345
12096TIP3   OH236230   5.172   0.883   2.923
12096TIP3    H136231   5.168   0.978   2.937
12096TIP3    H236232   5.084   0.852   2.943
12097TIP3   OH236233   3.168   5.886   2.337
12097TIP3    H136234   3.089   5.839   2.364
12097TIP3    H236235   3.237   5.853   2.395
12098TIP3   OH236236   7.333   7.366   4.612
12098TIP3    H136237   7.302   7.453   4.634
12098TIP3    H236238   7.254   7.315   4.596
12099TIP3   OH236239   1.380   7.506   3.377
12099TIP3    H136240   1.331   7.512   3.459
12099TIP3    H236241   1.442   7.435   3.392
12100TIP3   OH236242   8.054   5.152   4.740
12100TIP3    H136243   8.045   5.243   4.771
12100TIP3    H236244   7.976   5.137   4.687
12101TIP3   OH236245   5.554   7.431   1.989
12101TIP3    H136246   5.476   7.376   1.990
12101TIP3    H236247   5.541   7.490   1.915
12102TIP3   OH236248   6.212   1.797   1.183
12102TIP3    H136249   6.173   1.850   1.253
12102TIP3    H236250   6.306   1.797   1.202
12103TIP3   OH236251   3.463   4.865   0.644
12103TIP3    H136252   3.450   4.801   0.574
12103TIP3    H236253   3.505   4.939   0.600
12104TIP3   OH236254   5.018   4.476   1.415
12104TIP3    H136255   4.942   4.521   1.378
12104TIP3    H236256   5.040   4.526   1.494
12105TIP3   OH236257   2.187   1.086   0.114
12105TIP3    H136258   2.256   1.101   0.050
12105TIP3    H236259   2.198   1.156   0.179
12106TIP3   OH236260   2.568   7.491   2.946
12106TIP3    H136261   2.628   7.563   2.930
12106TIP3    H236262   2.622   7.412   2.937
12107TIP3   OH236263   0.591   5.169   0.533
12107TIP3    H136264   0.542   5.192   0.453
12107TIP3    H236265   0.525   5.131   0.591
12108TIP3   OH236266   0.802   4.910   0.781
12108TIP3    H136267   0.854   4.854   0.723
12108TIP3    H236268   0.734   4.946   0.725
12109TIP3   OH236269   8.112   6.503   0.524
12109TIP3    H136270   8.159   6.432   0.569
12109TIP3    H236271   8.147   6.502   0.435
12110TIP3   OH236272   2.193   7.552   1.494
12110TIP3    H136273   2.115   7.598   1.527
12110TIP3    H236274   2.188   7.563   1.399
12111TIP3   OH236275   7.489   5.496   4.969
12111TIP3    H136276   7.450   5.477   4.884
12111TIP3    H236277   7.431   5.453   5.032
12112TIP3   OH236278   0.029   5.990   0.636
12112TIP3    H136279   0.093   5.929   0.598
12112TIP3    H236280  -0.027   6.015   0.563
12113TIP3   OH236281   1.158   3.350   4.348
12113TIP3    H136282   1.074   3.380   4.383
12113TIP3    H236283   1.146   3.256   4.336
12114TIP3   OH236284   2.377   7.736   1.605
12114TIP3    H136285   2.334   7.658   1.569
12114TIP3    H236286   2.346   7.808   1.551
12115TIP3   OH236287   4.841   2.695   0.985
12115TIP3    H136288   4.866   2.744   0.907
12115TIP3    H236289   4.923   2.686   1.034
12116TIP3   OH236290   5.388   0.557   1.999
12116TIP3    H136291   5.307   0.603   1.977
12116TIP3    H236292   5.423   0.605   2.074
12117TIP3   OH236293   4.840   0.569   3.091
12117TIP3    H136294   4.791   0.633   3.142
12117TIP3    H236295   4.903   0.621   3.041
12118TIP3   OH236296   6.475   2.433   2.607
12118TIP3    H136297   6.526   2.502   2.649
12118TIP3    H236298   6.515   2.351   2.637
12119TIP3   OH236299   4.168   4.046   4.758
12119TIP3    H136300   4.192   3.954   4.743
12119TIP3    H236301   4.186   4.060   4.851
12120TIP3   OH236302   1.406   3.127   5.590
12120TIP3    H136303   1.488   3.176   5.598
12120TIP3    H236304   1.426   3.054   5.531
12121TIP3   OH236305   1.069   3.226   5.735
12121TIP3    H136306   1.115   3.281   5.671
12121TIP3    H236307   1.130   3.217   5.808
12122TIP3   OH236308   5.606   3.098   1.025
12122TIP3    H136309   5.573   3.098   1.115
12122TIP3    H236310   5.701   3.100   1.035
12123TIP3   OH236311   7.046   3.644   1.511
12123TIP3    H136312   7.080   3.566   1.467
12123TIP3    H236313   7.031   3.617   1.601
12124TIP3   OH236314   5.773   5.279   1.098
12124TIP3    H136315   5.766   5.291   1.004
12124TIP3    H236316   5.759   5.367   1.135
12125TIP3   OH236317   4.437   7.602   1.563
12125TIP3    H136318   4.434   7.679   1.505
12125TIP3    H236319   4.433   7.638   1.651
12126TIP3   OH236320   7.797   1.813   2.269
12126TIP3    H136321   7.780   1.720   2.253
12126TIP3    H236322   7.741   1.859   2.207
12127TIP3   OH236323   3.014   1.852   0.569
12127TIP3    H136324   2.977   1.918   0.511
12127TIP3    H236325   2.960   1.774   0.554
12128TIP3   OH236326   2.190   0.827   0.276
12128TIP3    H136327   2.279   0.826   0.309
12128TIP3    H236328   2.182   0.910   0.229
12129TIP3   OH236329   8.005   2.019   0.312
12129TIP3    H136330   7.939   1.951   0.325
12129TIP3    H236331   7.991   2.050   0.223
12130TIP3   OH236332   4.496   6.551   0.991
12130TIP3    H136333   4.506   6.468   1.038
12130TIP3    H236334   4.403   6.571   0.997
12131TIP3   OH236335   7.966   6.950   5.730
12131TIP3    H136336   7.924   7.034   5.749
12131TIP3    H236337   8.030   6.970   5.661
12132TIP3   OH236338   6.279   7.817   0.024
12132TIP3    H136339   6.304   7.903   0.055
12132TIP3    H236340   6.330   7.804  -0.056
12133TIP3   OH236341   0.512   3.803   3.474
12133TIP3    H136342   0.453   3.729   3.465
12133TIP3    H236343   0.599   3.765   3.479
12134TIP3   OH236344   5.633   1.616   5.881
12134TIP3    H136345   5.676   1.604   5.966
12134TIP3    H236346   5.632   1.711   5.868
12135TIP3   OH236347   8.157   4.776   4.280
12135TIP3    H136348   8.190   4.791   4.191
12135TIP3    H236349   8.113   4.858   4.304
12136TIP3   OH236350   3.298   5.530   0.200
12136TIP3    H136351   3.296   5.442   0.236
12136TIP3    H236352   3.389   5.558   0.210
12137TIP3   OH236353   5.619   4.020   2.450
12137TIP3    H136354   5.573   3.977   2.522
12137TIP3    H236355   5.663   4.095   2.491
12138TIP3   OH236356   4.302   4.504   3.900
12138TIP3    H136357   4.335   4.589   3.869
12138TIP3    H236358   4.208   4.508   3.882
12139TIP3   OH236359   0.568   7.834   2.246
12139TIP3    H136360   0.542   7.785   2.325
12139TIP3    H236361   0.524   7.789   2.174
12140TIP3   OH236362   7.177   3.221   0.385
12140TIP3    H136363   7.111   3.153   0.374
12140TIP3    H236364   7.261   3.174   0.384
12141TIP3   OH236365   1.294   3.018   6.804
12141TIP3    H136366   1.294   2.953   6.734
12141TIP3    H236367   1.327   3.098   6.763
12142TIP3   OH236368   2.528   7.729   2.475
12142TIP3    H136369   2.498   7.812   2.438
12142TIP3    H236370   2.560   7.752   2.563
12143TIP3   OH236371   7.525   2.834   2.150
12143TIP3    H136372   7.585   2.880   2.208
12143TIP3    H236373   7.554   2.743   2.152
12144TIP3   OH236374   2.962   5.220   6.169
12144TIP3    H136375   2.944   5.204   6.261
12144TIP3    H236376   2.939   5.312   6.156
12145TIP3   OH236377   6.233   3.083   3.261
12145TIP3    H136378   6.195   3.036   3.335
12145TIP3    H236379   6.327   3.082   3.277
12146TIP3   OH236380   0.569   4.530   3.943
12146TIP3    H136381   0.612   4.445   3.945
12146TIP3    H236382   0.486   4.514   3.898
12147TIP3   OH236383   7.274   5.982   0.617
12147TIP3    H136384   7.350   5.945   0.573
12147TIP3    H236385   7.308   6.018   0.699
12148TIP3   OH236386   4.023   1.584   3.305
12148TIP3    H136387   4.071   1.568   3.224
12148TIP3    H236388   3.972   1.505   3.320
12149TIP3   OH236389   3.585   2.611   0.722
12149TIP3    H136390   3.613   2.561   0.645
12149TIP3    H236391   3.662   2.663   0.745
12150TIP3   OH236392   1.495   0.224   2.759
12150TIP3    H136393   1.554   0.155   2.726
12150TIP3    H236394   1.544   0.305   2.747
12151TIP3   OH236395   6.814   3.540   2.916
12151TIP3    H136396   6.729   3.511   2.885
12151TIP3    H236397   6.853   3.462   2.956
12152TIP3   OH236398   1.748   4.168   2.114
12152TIP3    H136399   1.808   4.239   2.139
12152TIP3    H236400   1.743   4.113   2.192
12153TIP3   OH236401   7.209   5.950   5.447
12153TIP3    H136402   7.172   5.991   5.525
12153TIP3    H236403   7.168   5.997   5.374
12154TIP3   OH236404   4.929   0.245   4.779
12154TIP3    H136405   4.970   0.257   4.865
12154TIP3    H236406   4.882   0.328   4.764
12155TIP3   OH236407   1.496   0.075   3.074
12155TIP3    H136408   1.452   0.008   3.023
12155TIP3    H236409   1.479   0.157   3.027
12156TIP3   OH236410   3.574   1.928   1.481
12156TIP3    H136411   3.661   1.945   1.445
12156TIP3    H236412   3.531   2.014   1.478
12157TIP3   OH236413   5.831   3.431   4.721
12157TIP3    H136414   5.905   3.383   4.759
12157TIP3    H236415   5.759   3.416   4.781
12158TIP3   OH236416   0.616   2.312   4.666
12158TIP3    H136417   0.622   2.328   4.760
12158TIP3    H236418   0.707   2.309   4.636
12159TIP3   OH236419   7.042   4.929   5.568
12159TIP3    H136420   7.097   5.005   5.586
12159TIP3    H236421   7.094   4.854   5.597
12160TIP3   OH236422   1.410   0.544   5.597
12160TIP3    H136423   1.457   0.626   5.582
12160TIP3    H236424   1.333   0.569   5.648
12161TIP3   OH236425   7.358   1.353   6.762
12161TIP3    H136426   7.390   1.263   6.755
12161TIP3    H236427   7.437   1.408   6.752
12162TIP3   OH236428   6.765   0.716   2.778
12162TIP3    H136429   6.782   0.729   2.685
12162TIP3    H236430   6.719   0.796   2.805
12163TIP3   OH236431   6.406   4.191   1.202
12163TIP3    H136432   6.488   4.174   1.157
12163TIP3    H236433   6.350   4.233   1.136
12164TIP3   OH236434   1.751   6.938   2.240
12164TIP3    H136435   1.664   6.978   2.230
12164TIP3    H236436   1.775   6.957   2.331
12165TIP3   OH236437   5.351   2.332   3.308
12165TIP3    H136438   5.274   2.283   3.334
12165TIP3    H236439   5.317   2.414   3.272
12166TIP3   OH236440   3.828   6.103   5.300
12166TIP3    H136441   3.806   6.195   5.281
12166TIP3    H236442   3.920   6.095   5.276
12167TIP3   OH236443   1.923   5.321   1.772
12167TIP3    H136444   1.830   5.302   1.779
12167TIP3    H236445   1.965   5.250   1.821
12168TIP3   OH236446   0.401   1.136   1.971
12168TIP3    H136447   0.320   1.089   1.953
12168TIP3    H236448   0.372   1.220   2.007
12169TIP3   OH236449   5.624   5.751   2.820
12169TIP3    H136450   5.707   5.740   2.867
12169TIP3    H236451   5.631   5.692   2.745
12170TIP3   OH236452   1.384   4.230   3.186
12170TIP3    H136453   1.413   4.226   3.095
12170TIP3    H236454   1.404   4.143   3.221
12171TIP3   OH236455   1.925   0.918   6.695
12171TIP3    H136456   1.939   1.008   6.664
12171TIP3    H236457   1.950   0.864   6.621
12172TIP3   OH236458   0.709   3.954   3.082
12172TIP3    H136459   0.775   4.023   3.072
12172TIP3    H236460   0.740   3.901   3.155
12173TIP3   OH236461   0.411   4.670   3.656
12173TIP3    H136462   0.331   4.711   3.623
12173TIP3    H236463   0.459   4.741   3.698
12174TIP3   OH236464   2.822   3.610   4.948
12174TIP3    H136465   2.881   3.572   5.013
12174TIP3    H236466   2.749   3.643   4.999
12175TIP3   OH236467   1.008   3.435   0.046
12175TIP3    H136468   0.986   3.412   0.136
12175TIP3    H236469   0.976   3.361  -0.006
12176TIP3   OH236470   2.848   7.600   5.114
12176TIP3    H136471   2.773   7.651   5.144
12176TIP3    H236472   2.824   7.509   5.129
12177TIP3   OH236473   0.968   2.821   0.211
12177TIP3    H136474   0.973   2.871   0.129
12177TIP3    H236475   0.987   2.731   0.184
12178TIP3   OH236476   5.468   3.636   2.307
12178TIP3    H136477   5.539   3.631   2.242
12178TIP3    H236478   5.444   3.729   2.308
12179TIP3   OH236479   6.857   1.590   2.468
12179TIP3    H136480   6.770   1.553   2.454
12179TIP3    H236481   6.844   1.657   2.535
12180TIP3   OH236482   4.538   4.014   2.461
12180TIP3    H136483   4.510   4.059   2.541
12180TIP3    H236484   4.619   3.970   2.485
12181TIP3   OH236485   6.030   5.873   2.144
12181TIP3    H136486   6.009   5.825   2.224
12181TIP3    H236487   6.119   5.906   2.159
12182TIP3   OH236488   5.335   2.276   0.798
12182TIP3    H136489   5.321   2.298   0.706
12182TIP3    H236490   5.409   2.330   0.825
12183TIP3   OH236491   5.630   4.657   6.057
12183TIP3    H136492   5.615   4.698   6.143
12183TIP3    H236493   5.611   4.564   6.071
12184TIP3   OH236494   7.366   2.961   2.376
12184TIP3    H136495   7.448   2.997   2.344
12184TIP3    H236496   7.390   2.878   2.417
12185TIP3   OH236497   2.850   1.895   5.615
12185TIP3    H136498   2.856   1.807   5.578
12185TIP3    H236499   2.844   1.953   5.539
12186TIP3   OH236500   3.122   0.868   1.366
12186TIP3    H136501   3.187   0.884   1.298
12186TIP3    H236502   3.143   0.782   1.401
12187TIP3   OH236503   2.248   1.126   2.037
12187TIP3    H136504   2.237   1.212   1.996
12187TIP3    H236505   2.296   1.143   2.117
12188TIP3   OH236506   3.787   5.335   4.071
12188TIP3    H136507   3.767   5.255   4.120
12188TIP3    H236508   3.755   5.406   4.127
12189TIP3   OH236509   0.402   1.549   0.706
12189TIP3    H136510   0.405   1.464   0.750
12189TIP3    H236511   0.312   1.558   0.676
12190TIP3   OH236512   4.836   6.263   2.843
12190TIP3    H136513   4.892   6.239   2.770
12190TIP3    H236514   4.884   6.332   2.888
12191TIP3   OH236515   3.802   3.825   6.165
12191TIP3    H136516   3.786   3.916   6.142
12191TIP3    H236517   3.760   3.814   6.251
12192TIP3   OH236518   2.919   6.841   4.772
12192TIP3    H136519   2.930   6.830   4.867
12192TIP3    H236520   2.862   6.917   4.763
12193TIP3   OH236521   6.517   0.571   4.406
12193TIP3    H136522   6.461   0.628   4.458
12193TIP3    H236523   6.581   0.629   4.366
12194TIP3   OH236524   1.612   5.478   3.925
12194TIP3    H136525   1.642   5.404   3.977
12194TIP3    H236526   1.682   5.543   3.934
12195TIP3   OH236527   5.995   4.784   0.468
12195TIP3    H136528   6.021   4.702   0.425
12195TIP3    H236529   5.920   4.760   0.522
12196TIP3   OH236530   6.640   4.561   6.164
12196TIP3    H136531   6.735   4.563   6.174
12196TIP3    H236532   6.608   4.628   6.224
12197TIP3   OH236533  -0.045   7.125   6.570
12197TIP3    H136534  -0.066   7.033   6.559
12197TIP3    H236535   0.025   7.126   6.635
12198TIP3   OH236536   7.658   3.842   5.569
12198TIP3    H136537   7.634   3.822   5.659
12198TIP3    H236538   7.632   3.933   5.556
12199TIP3   OH236539   4.247   1.916   5.831
12199TIP3    H136540   4.270   1.990   5.888
12199TIP3    H236541   4.165   1.882   5.868
12200TIP3   OH236542   4.291   5.556   2.681
12200TIP3    H136543   4.219   5.583   2.625
12200TIP3    H236544   4.370   5.588   2.636
12201TIP3   OH236545   1.588   2.150   2.885
12201TIP3    H136546   1.544   2.067   2.905
12201TIP3    H236547   1.560   2.209   2.956
12202TIP3   OH236548   2.556   0.752   2.609
12202TIP3    H136549   2.619   0.681   2.611
12202TIP3    H236550   2.609   0.832   2.611
12203TIP3   OH236551   0.249   2.820   3.649
12203TIP3    H136552   0.325   2.764   3.666
12203TIP3    H236553   0.273   2.906   3.683
12204TIP3   OH236554   6.168   4.346   3.392
12204TIP3    H136555   6.172   4.269   3.335
12204TIP3    H236556   6.078   4.378   3.383
12205TIP3   OH236557   1.369   5.624   1.689
12205TIP3    H136558   1.324   5.583   1.616
12205TIP3    H236559   1.300   5.672   1.736
12206TIP3   OH236560   4.036   6.502   0.219
12206TIP3    H136561   4.051   6.489   0.312
12206TIP3    H236562   3.973   6.574   0.214
12207TIP3   OH236563   6.637   5.447   0.549
12207TIP3    H136564   6.726   5.415   0.557
12207TIP3    H236565   6.644   5.542   0.560
12208TIP3   OH236566   5.715   3.869   1.127
12208TIP3    H136567   5.716   3.963   1.147
12208TIP3    H236568   5.732   3.863   1.033
12209TIP3   OH236569   0.827   4.970   5.248
12209TIP3    H136570   0.797   5.054   5.280
12209TIP3    H236571   0.779   4.905   5.300
12210TIP3   OH236572   4.871   6.002   6.658
12210TIP3    H136573   4.863   5.956   6.574
12210TIP3    H236574   4.911   6.086   6.636
12211TIP3   OH236575   7.276   2.378   6.699
12211TIP3    H136576   7.181   2.371   6.689
12211TIP3    H236577   7.292   2.470   6.721
12212TIP3   OH236578   1.765   0.504   4.315
12212TIP3    H136579   1.780   0.543   4.229
12212TIP3    H236580   1.673   0.479   4.314
12213TIP3   OH236581   5.127   7.099   6.417
12213TIP3    H136582   5.126   7.024   6.477
12213TIP3    H236583   5.107   7.062   6.331
12214TIP3   OH236584   4.250   6.223   3.986
12214TIP3    H136585   4.163   6.193   3.960
12214TIP3    H236586   4.310   6.163   3.942
12215TIP3   OH236587   4.033   7.487   3.834
12215TIP3    H136588   4.053   7.396   3.814
12215TIP3    H236589   4.042   7.533   3.751
12216TIP3   OH236590   6.833   6.165   0.399
12216TIP3    H136591   6.921   6.136   0.423
12216TIP3    H236592   6.785   6.168   0.481
12217TIP3   OH236593   1.839   6.470   5.210
12217TIP3    H136594   1.814   6.502   5.296
12217TIP3    H236595   1.935   6.475   5.209
12218TIP3   OH236596   7.843   2.965   5.149
12218TIP3    H136597   7.855   2.963   5.054
12218TIP3    H236598   7.826   2.874   5.172
12219TIP3   OH236599   0.343   4.704   5.964
12219TIP3    H136600   0.383   4.712   5.877
12219TIP3    H236601   0.352   4.611   5.986
12220TIP3   OH236602   1.211   0.502   1.144
12220TIP3    H136603   1.245   0.588   1.171
12220TIP3    H236604   1.135   0.523   1.090
12221TIP3   OH236605   5.923   0.726   1.748
12221TIP3    H136606   5.997   0.785   1.753
12221TIP3    H236607   5.949   0.650   1.800
12222TIP3   OH236608   5.646   3.422   3.319
12222TIP3    H136609   5.612   3.336   3.292
12222TIP3    H236610   5.741   3.409   3.321
12223TIP3   OH236611   3.556   7.782   5.796
12223TIP3    H136612   3.582   7.864   5.839
12223TIP3    H236613   3.613   7.776   5.719
12224TIP3   OH236614   6.408   5.624   2.367
12224TIP3    H136615   6.326   5.607   2.321
12224TIP3    H236616   6.412   5.555   2.434
12225TIP3   OH236617   4.704   1.322   6.376
12225TIP3    H136618   4.752   1.242   6.355
12225TIP3    H236619   4.748   1.390   6.325
12226TIP3   OH236620   1.897   3.408   1.878
12226TIP3    H136621   1.956   3.398   1.953
12226TIP3    H236622   1.955   3.424   1.804
12227TIP3   OH236623   7.849   1.809   4.746
12227TIP3    H136624   7.869   1.756   4.668
12227TIP3    H236625   7.884   1.895   4.726
12228TIP3   OH236626   7.822   2.860   6.710
12228TIP3    H136627   7.757   2.790   6.700
12228TIP3    H236628   7.885   2.825   6.772
12229TIP3   OH236629   1.933   5.070   4.047
12229TIP3    H136630   1.862   5.006   4.043
12229TIP3    H236631   2.012   5.018   4.061
12230TIP3   OH236632   5.140   4.043   6.593
12230TIP3    H136633   5.177   4.060   6.506
12230TIP3    H236634   5.064   3.987   6.576
12231TIP3   OH236635   2.471   2.789   0.673
12231TIP3    H136636   2.392   2.792   0.727
12231TIP3    H236637   2.442   2.750   0.591
12232TIP3   OH236638   5.294   2.806   1.638
12232TIP3    H136639   5.334   2.768   1.717
12232TIP3    H236640   5.207   2.833   1.667
12233TIP3   OH236641   0.005   4.184   2.910
12233TIP3    H136642   0.001   4.179   2.814
12233TIP3    H236643   0.035   4.098   2.938
12234TIP3   OH236644   0.638   1.595   5.470
12234TIP3    H136645   0.683   1.516   5.499
12234TIP3    H236646   0.547   1.581   5.497
12235TIP3   OH236647   1.750   1.526   0.044
12235TIP3    H136648   1.806   1.461   0.003
12235TIP3    H236649   1.664   1.515   0.002
12236TIP3   OH236650   5.812   5.767   1.389
12236TIP3    H136651   5.884   5.831   1.389
12236TIP3    H236652   5.855   5.683   1.400
12237TIP3   OH236653   8.152   4.514   0.182
12237TIP3    H136654   8.123   4.579   0.118
12237TIP3    H236655   8.090   4.521   0.254
12238TIP3   OH236656   8.063   2.400   2.718
12238TIP3    H136657   8.076   2.378   2.810
12238TIP3    H236658   8.145   2.373   2.675
12239TIP3   OH236659   3.185   2.028   6.022
12239TIP3    H136660   3.116   2.022   6.088
12239TIP3    H236661   3.163   1.961   5.957
12240TIP3   OH236662   3.247   2.472   6.442
12240TIP3    H136663   3.296   2.554   6.436
12240TIP3    H236664   3.208   2.460   6.356
12241TIP3   OH236665   7.036   4.970   4.651
12241TIP3    H136666   6.956   4.996   4.697
12241TIP3    H236667   7.032   4.874   4.648
12242TIP3   OH236668   7.357   1.069   6.745
12242TIP3    H136669   7.341   1.059   6.651
12242TIP3    H236670   7.412   0.995   6.768
12243TIP3   OH236671   8.103   1.701   5.282
12243TIP3    H136672   8.163   1.737   5.217
12243TIP3    H236673   8.044   1.644   5.231
12244TIP3   OH236674   6.601   5.221   3.934
12244TIP3    H136675   6.593   5.125   3.932
12244TIP3    H236676   6.666   5.238   4.002
12245TIP3   OH236677   8.290   6.844   6.487
12245TIP3    H136678   8.382   6.851   6.461
12245TIP3    H236679   8.289   6.770   6.548
12246TIP3   OH236680   7.940   3.113   2.288
12246TIP3    H136681   8.024   3.068   2.296
12246TIP3    H236682   7.891   3.089   2.366
12247TIP3   OH236683   3.424   6.228   6.420
12247TIP3    H136684   3.486   6.158   6.403
12247TIP3    H236685   3.466   6.307   6.385
12248TIP3   OH236686   5.192   1.262   6.473
12248TIP3    H136687   5.134   1.329   6.436
12248TIP3    H236688   5.183   1.273   6.568
12249TIP3   OH236689   0.842   2.799   4.442
12249TIP3    H136690   0.750   2.821   4.432
12249TIP3    H236691   0.889   2.876   4.408
12250TIP3   OH236692   5.987   4.462   5.021
12250TIP3    H136693   5.918   4.396   5.028
12250TIP3    H236694   6.030   4.460   5.107
12251TIP3   OH236695   2.711   2.674   4.716
12251TIP3    H136696   2.709   2.693   4.810
12251TIP3    H236697   2.737   2.757   4.676
12252TIP3   OH236698   7.857   3.510   0.871
12252TIP3    H136699   7.922   3.528   0.803
12252TIP3    H236700   7.903   3.453   0.933
12253TIP3   OH236701   2.334   0.895   1.322
12253TIP3    H136702   2.265   0.867   1.381
12253TIP3    H236703   2.328   0.835   1.248
12254TIP3   OH236704   3.427   6.616   3.376
12254TIP3    H136705   3.410   6.525   3.350
12254TIP3    H236706   3.342   6.649   3.403
12255TIP3   OH236707   5.225   5.714   0.386
12255TIP3    H136708   5.292   5.752   0.442
12255TIP3    H236709   5.272   5.651   0.331
12256TIP3   OH236710   4.458   3.680   0.936
12256TIP3    H136711   4.369   3.663   0.903
12256TIP3    H236712   4.497   3.593   0.944
12257TIP3   OH236713   7.820   7.369   1.616
12257TIP3    H136714   7.885   7.433   1.587
12257TIP3    H236715   7.772   7.413   1.686
12258TIP3   OH236716   0.795   4.003   2.425
12258TIP3    H136717   0.879   3.956   2.427
12258TIP3    H236718   0.743   3.964   2.495
12259TIP3   OH236719   6.272   0.143   2.214
12259TIP3    H136720   6.196   0.088   2.194
12259TIP3    H236721   6.307   0.108   2.295
12260TIP3   OH236722   7.611   3.494   2.192
12260TIP3    H136723   7.692   3.494   2.140
12260TIP3    H236724   7.557   3.425   2.153
12261TIP3   OH236725   7.352   2.213   5.204
12261TIP3    H136726   7.278   2.179   5.154
12261TIP3    H236727   7.356   2.157   5.281
12262TIP3   OH236728   6.185   1.661   3.498
12262TIP3    H136729   6.126   1.592   3.528
12262TIP3    H236730   6.240   1.620   3.431
12263TIP3   OH236731   6.406   6.583   2.133
12263TIP3    H136732   6.431   6.513   2.194
12263TIP3    H236733   6.327   6.621   2.172
12264TIP3   OH236734   4.840   6.550   6.685
12264TIP3    H136735   4.808   6.520   6.600
12264TIP3    H236736   4.930   6.517   6.690
12265TIP3   OH236737   7.205   6.124   2.364
12265TIP3    H136738   7.217   6.188   2.294
12265TIP3    H236739   7.257   6.049   2.337
12266TIP3   OH236740   6.492   5.637   6.543
12266TIP3    H136741   6.471   5.614   6.634
12266TIP3    H236742   6.486   5.733   6.541
12267TIP3   OH236743   6.295   7.134   2.331
12267TIP3    H136744   6.296   7.071   2.259
12267TIP3    H236745   6.225   7.195   2.309
12268TIP3   OH236746   0.128   2.802   1.983
12268TIP3    H136747   0.111   2.837   1.896
12268TIP3    H236748   0.205   2.746   1.972
12269TIP3   OH236749   7.473   4.902   6.379
12269TIP3    H136750   7.494   4.910   6.285
12269TIP3    H236751   7.512   4.980   6.418
12270TIP3   OH236752   1.009   1.682   3.344
12270TIP3    H136753   1.054   1.746   3.290
12270TIP3    H236754   1.054   1.599   3.326
12271TIP3   OH236755   1.311   1.825   5.889
12271TIP3    H136756   1.256   1.762   5.936
12271TIP3    H236757   1.332   1.782   5.806
12272TIP3   OH236758   3.532   2.151   0.491
12272TIP3    H136759   3.572   2.147   0.579
12272TIP3    H236760   3.506   2.243   0.482
12273TIP3   OH236761   6.061   6.207   3.345
12273TIP3    H136762   6.148   6.168   3.337
12273TIP3    H236763   6.076   6.301   3.336
12274TIP3   OH236764   1.579   2.791   5.546
12274TIP3    H136765   1.501   2.824   5.500
12274TIP3    H236766   1.566   2.696   5.549
12275TIP3   OH236767   1.479   6.422   0.464
12275TIP3    H136768   1.540   6.460   0.401
12275TIP3    H236769   1.521   6.342   0.493
12276TIP3   OH236770   3.281   1.625   1.440
12276TIP3    H136771   3.222   1.558   1.404
12276TIP3    H236772   3.225   1.701   1.455
12277TIP3   OH236773   5.315   0.850   5.041
12277TIP3    H136774   5.408   0.864   5.059
12277TIP3    H236775   5.270   0.922   5.085
12278TIP3   OH236776   4.611   6.822   5.208
12278TIP3    H136777   4.532   6.876   5.206
12278TIP3    H236778   4.683   6.884   5.212
12279TIP3   OH236779   3.934   1.789   2.691
12279TIP3    H136780   3.929   1.884   2.699
12279TIP3    H236781   3.911   1.771   2.600
12280TIP3   OH236782   1.455   6.926   3.759
12280TIP3    H136783   1.468   6.844   3.806
12280TIP3    H236784   1.466   6.904   3.667
12281TIP3   OH236785   6.096   7.331   6.334
12281TIP3    H136786   6.085   7.241   6.363
12281TIP3    H236787   6.185   7.333   6.296
12282TIP3   OH236788   6.729   3.000   3.958
12282TIP3    H136789   6.761   2.913   3.934
12282TIP3    H236790   6.721   3.046   3.875
12283TIP3   OH236791   8.228   5.063   0.201
12283TIP3    H136792   8.150   5.010   0.214
12283TIP3    H236793   8.296   5.018   0.251
12284TIP3   OH236794   2.909   0.187   4.835
12284TIP3    H136795   2.848   0.234   4.778
12284TIP3    H236796   2.868   0.189   4.921
12285TIP3   OH236797   4.625   7.441   2.951
12285TIP3    H136798   4.712   7.402   2.958
12285TIP3    H236799   4.586   7.401   2.874
12286TIP3   OH236800   2.244   2.954   6.820
12286TIP3    H136801   2.202   2.878   6.778
12286TIP3    H236802   2.211   3.029   6.772
12287TIP3   OH236803   4.056   5.129   2.580
12287TIP3    H136804   4.075   5.048   2.627
12287TIP3    H236805   4.024   5.100   2.495
12288TIP3   OH236806   7.536   2.121   3.139
12288TIP3    H136807   7.559   2.031   3.114
12288TIP3    H236808   7.478   2.110   3.214
12289TIP3   OH236809   3.100   0.583   2.720
12289TIP3    H136810   3.100   0.513   2.785
12289TIP3    H236811   3.100   0.538   2.636
12290TIP3   OH236812   6.308   5.372   5.047
12290TIP3    H136813   6.373   5.308   5.074
12290TIP3    H236814   6.243   5.322   4.998
12291TIP3   OH236815   0.664   5.755   1.806
12291TIP3    H136816   0.656   5.665   1.837
12291TIP3    H236817   0.608   5.806   1.864
12292TIP3   OH236818   6.191   7.655   6.298
12292TIP3    H136819   6.168   7.675   6.207
12292TIP3    H236820   6.114   7.609   6.332
12293TIP3   OH236821   3.859   2.628   5.188
12293TIP3    H136822   3.786   2.582   5.232
12293TIP3    H236823   3.885   2.696   5.250
12294TIP3   OH236824   1.589   7.605   2.532
12294TIP3    H136825   1.662   7.544   2.520
12294TIP3    H236826   1.602   7.670   2.464
12295TIP3   OH236827   2.506   6.770   6.525
12295TIP3    H136828   2.557   6.690   6.509
12295TIP3    H236829   2.572   6.838   6.536
12296TIP3   OH236830   2.127   1.015   1.827
12296TIP3    H136831   2.108   0.923   1.847
12296TIP3    H236832   2.150   1.054   1.911
12297TIP3   OH236833   7.013   3.000   2.236
12297TIP3    H136834   7.000   3.086   2.276
12297TIP3    H236835   6.962   2.940   2.290
12298TIP3   OH236836   7.406   4.395   0.284
12298TIP3    H136837   7.450   4.390   0.199
12298TIP3    H236838   7.355   4.313   0.290
12299TIP3   OH236839   2.412   7.476   6.591
12299TIP3    H136840   2.320   7.493   6.614
12299TIP3    H236841   2.420   7.381   6.594
12300TIP3   OH236842   0.441   2.257   2.895
12300TIP3    H136843   0.522   2.278   2.942
12300TIP3    H236844   0.372   2.304   2.944
12301TIP3   OH236845   1.717   6.811   1.578
12301TIP3    H136846   1.685   6.764   1.501
12301TIP3    H236847   1.788   6.866   1.545
12302TIP3   OH236848   0.094   4.673   5.691
12302TIP3    H136849   0.067   4.597   5.744
12302TIP3    H236850   0.137   4.731   5.753
12303TIP3   OH236851   4.498   3.641   2.534
12303TIP3    H136852   4.437   3.713   2.521
12303TIP3    H236853   4.443   3.566   2.557
12304TIP3   OH236854   3.657   4.705   6.381
12304TIP3    H136855   3.667   4.653   6.302
12304TIP3    H236856   3.740   4.695   6.427
12305TIP3   OH236857   0.985   0.742   4.596
12305TIP3    H136858   0.927   0.817   4.608
12305TIP3    H236859   1.071   0.773   4.624
12306TIP3   OH236860   3.732   0.327   0.969
12306TIP3    H136861   3.737   0.253   1.029
12306TIP3    H236862   3.749   0.289   0.883
12307TIP3   OH236863   7.908   6.747   5.179
12307TIP3    H136864   7.816   6.757   5.201
12307TIP3    H236865   7.949   6.717   5.261
12308TIP3   OH236866   1.439   4.341   4.143
12308TIP3    H136867   1.376   4.357   4.073
12308TIP3    H236868   1.397   4.275   4.198
12309TIP3   OH236869   6.119   7.078   2.670
12309TIP3    H136870   6.118   7.024   2.590
12309TIP3    H236871   6.035   7.124   2.668
12310TIP3   OH236872   6.253   2.240   2.790
12310TIP3    H136873   6.345   2.234   2.813
12310TIP3    H236874   6.223   2.322   2.830
12311TIP3   OH236875   2.475   2.849   4.393
12311TIP3    H136876   2.526   2.884   4.320
12311TIP3    H236877   2.498   2.756   4.394
12312TIP3   OH236878   2.946   4.224   6.021
12312TIP3    H136879   2.913   4.244   6.108
12312TIP3    H236880   2.877   4.170   5.981
12313TIP3   OH236881   2.448   0.988   2.325
12313TIP3    H136882   2.534   0.947   2.338
12313TIP3    H236883   2.446   1.059   2.389
12314TIP3   OH236884   8.272   0.696   0.155
12314TIP3    H136885   8.239   0.737   0.235
12314TIP3    H236886   8.308   0.769   0.105
12315TIP3   OH236887   1.350   2.098   6.002
12315TIP3    H136888   1.340   2.006   5.978
12315TIP3    H236889   1.445   2.113   5.998
12316TIP3   OH236890   0.313   1.611   4.747
12316TIP3    H136891   0.325   1.684   4.808
12316TIP3    H236892   0.319   1.652   4.660
12317TIP3   OH236893   4.835   6.264   3.432
12317TIP3    H136894   4.826   6.226   3.345
12317TIP3    H236895   4.897   6.337   3.420
12318TIP3   OH236896   7.051   5.090   0.706
12318TIP3    H136897   7.001   5.093   0.625
12318TIP3    H236898   7.106   5.011   0.698
12319TIP3   OH236899   1.585   5.509   1.205
12319TIP3    H136900   1.539   5.568   1.146
12319TIP3    H236901   1.523   5.491   1.276
12320TIP3   OH236902   1.906   0.534   5.948
12320TIP3    H136903   1.908   0.537   5.852
12320TIP3    H236904   1.930   0.444   5.970
12321TIP3   OH236905   3.788   0.211   3.023
12321TIP3    H136906   3.876   0.174   3.014
12321TIP3    H236907   3.802   0.296   3.064
12322TIP3   OH236908   0.236   3.487   1.172
12322TIP3    H136909   0.212   3.465   1.082
12322TIP3    H236910   0.311   3.430   1.191
12323TIP3   OH236911   3.673   1.953   0.372
12323TIP3    H136912   3.636   1.946   0.284
12323TIP3    H236913   3.616   2.016   0.417
12324TIP3   OH236914   1.903   1.146   0.099
12324TIP3    H136915   1.917   1.234   0.065
12324TIP3    H236916   1.990   1.106   0.101
12325TIP3   OH236917   4.169   3.969   5.851
12325TIP3    H136918   4.116   4.048   5.841
12325TIP3    H236919   4.217   3.963   5.769
12326TIP3   OH236920   5.600   3.297   4.910
12326TIP3    H136921   5.520   3.347   4.926
12326TIP3    H236922   5.577   3.236   4.840
12327TIP3   OH236923   2.786   5.092   0.166
12327TIP3    H136924   2.742   5.165   0.208
12327TIP3    H236925   2.879   5.116   0.166
12328TIP3   OH236926   5.124   4.606   0.025
12328TIP3    H136927   5.092   4.695   0.013
12328TIP3    H236928   5.164   4.607   0.112
12329TIP3   OH236929   6.626   2.089   3.371
12329TIP3    H136930   6.701   2.146   3.388
12329TIP3    H236931   6.662   2.000   3.369
12330TIP3   OH236932   2.678   7.515   3.650
12330TIP3    H136933   2.773   7.503   3.643
12330TIP3    H236934   2.667   7.588   3.709
12331TIP3   OH236935   0.902   3.641   3.752
12331TIP3    H136936   0.937   3.672   3.835
12331TIP3    H236937   0.909   3.545   3.757
12332TIP3   OH236938   3.769   0.364   4.859
12332TIP3    H136939   3.771   0.383   4.765
12332TIP3    H236940   3.722   0.281   4.865
12333TIP3   OH236941   4.655   6.762   0.084
12333TIP3    H136942   4.669   6.710   0.163
12333TIP3    H236943   4.676   6.852   0.111
12334TIP3   OH236944   1.030   3.322   2.042
12334TIP3    H136945   1.056   3.410   2.014
12334TIP3    H236946   0.987   3.285   1.965
12335TIP3   OH236947   2.387   6.354   4.958
12335TIP3    H136948   2.336   6.328   5.036
12335TIP3    H236949   2.419   6.442   4.979
12336TIP3   OH236950   3.453   7.340   0.515
12336TIP3    H136951   3.509   7.394   0.459
12336TIP3    H236952   3.466   7.251   0.484
12337TIP3   OH236953   0.762   5.718   2.391
12337TIP3    H136954   0.756   5.730   2.486
12337TIP3    H236955   0.827   5.648   2.379
12338TIP3   OH236956   2.168   2.553   3.562
12338TIP3    H136957   2.108   2.588   3.628
12338TIP3    H236958   2.239   2.617   3.558
12339TIP3   OH236959   2.313   3.926   5.947
12339TIP3    H136960   2.311   3.908   6.040
12339TIP3    H236961   2.286   4.018   5.940
12340TIP3   OH236962   3.679   7.577   4.490
12340TIP3    H136963   3.655   7.533   4.408
12340TIP3    H236964   3.649   7.667   4.479
12341TIP3   OH236965   4.918   1.335   3.121
12341TIP3    H136966   4.945   1.426   3.111
12341TIP3    H236967   4.828   1.340   3.153
12342TIP3   OH236968   1.387   5.524   3.413
12342TIP3    H136969   1.445   5.554   3.343
12342TIP3    H236970   1.442   5.523   3.491
12343TIP3   OH236971   0.723   4.280   2.412
12343TIP3    H136972   0.729   4.188   2.436
12343TIP3    H236973   0.773   4.326   2.480
12344TIP3   OH236974   6.139   1.374   0.083
12344TIP3    H136975   6.171   1.423   0.007
12344TIP3    H236976   6.214   1.371   0.143
12345TIP3   OH236977   2.262   4.827   3.121
12345TIP3    H136978   2.219   4.832   3.206
12345TIP3    H236979   2.230   4.904   3.073
12346TIP3   OH236980   6.035   4.200   2.992
12346TIP3    H136981   6.102   4.145   2.952
12346TIP3    H236982   6.045   4.186   3.086
12347TIP3   OH236983   0.076   0.130   6.057
12347TIP3    H136984   0.126   0.199   6.015
12347TIP3    H236985   0.123   0.114   6.140
12348TIP3   OH236986   3.908   1.310   6.712
12348TIP3    H136987   3.881   1.392   6.753
12348TIP3    H236988   3.845   1.297   6.641
12349TIP3   OH236989   5.062   2.937   1.132
12349TIP3    H136990   5.008   2.925   1.054
12349TIP3    H236991   5.121   3.010   1.110
12350TIP3   OH236992   1.778   4.782   1.881
12350TIP3    H136993   1.770   4.778   1.786
12350TIP3    H236994   1.705   4.728   1.913
12351TIP3   OH236995   0.760   3.021   2.581
12351TIP3    H136996   0.831   3.085   2.590
12351TIP3    H236997   0.701   3.061   2.516
12352TIP3   OH236998   8.021   3.604   1.826
12352TIP3    H136999   7.976   3.664   1.767
12352TIP3    H237000   8.061   3.539   1.768
12353TIP3   OH237001   4.153   4.784   1.759
12353TIP3    H137002   4.205   4.742   1.828
12353TIP3    H237003   4.088   4.837   1.807
12354TIP3   OH237004   7.432   1.569   3.494
12354TIP3    H137005   7.404   1.542   3.581
12354TIP3    H237006   7.528   1.570   3.499
12355TIP3   OH237007   6.855   5.545   3.314
12355TIP3    H137008   6.881   5.475   3.255
12355TIP3    H237009   6.868   5.625   3.263
12356TIP3   OH237010   6.820   0.704   5.481
12356TIP3    H137011   6.805   0.734   5.392
12356TIP3    H237012   6.743   0.731   5.530
12357TIP3   OH237013   2.382   4.631   6.580
12357TIP3    H137014   2.465   4.608   6.622
12357TIP3    H237015   2.405   4.647   6.489
12358TIP3   OH237016   5.580   2.600   5.476
12358TIP3    H137017   5.659   2.653   5.483
12358TIP3    H237018   5.550   2.613   5.386
12359TIP3   OH237019   0.631   6.460   2.355
12359TIP3    H137020   0.657   6.417   2.274
12359TIP3    H237021   0.568   6.527   2.327
12360TIP3   OH237022   0.273   2.861   0.998
12360TIP3    H137023   0.334   2.911   0.944
12360TIP3    H237024   0.278   2.772   0.965
12361TIP3   OH237025   7.705   6.868   1.767
12361TIP3    H137026   7.675   6.812   1.696
12361TIP3    H237027   7.766   6.929   1.724
12362TIP3   OH237028   5.579   4.720   0.872
12362TIP3    H137029   5.629   4.657   0.924
12362TIP3    H237030   5.602   4.699   0.781
12363TIP3   OH237031   5.281   5.207   4.289
12363TIP3    H137032   5.366   5.233   4.253
12363TIP3    H237033   5.237   5.290   4.309
12364TIP3   OH237034   0.011   2.229   6.596
12364TIP3    H137035   0.024   2.320   6.623
12364TIP3    H237036   0.070   2.178   6.651
12365TIP3   OH237037   2.515   3.740   6.496
12365TIP3    H137038   2.538   3.829   6.472
12365TIP3    H237039   2.566   3.723   6.575
12366TIP3   OH237040   7.538   5.521   3.436
12366TIP3    H137041   7.472   5.515   3.368
12366TIP3    H237042   7.489   5.507   3.518
12367TIP3   OH237043   7.655   4.468   3.537
12367TIP3    H137044   7.674   4.558   3.564
12367TIP3    H237045   7.561   4.468   3.519
12368TIP3   OH237046   4.911   4.026   3.474
12368TIP3    H137047   4.999   4.020   3.436
12368TIP3    H237048   4.912   4.109   3.522
12369TIP3   OH237049   0.515   6.080   5.768
12369TIP3    H137050   0.510   6.168   5.730
12369TIP3    H237051   0.606   6.053   5.756
12370TIP3   OH237052   1.193   0.996   6.248
12370TIP3    H137053   1.114   1.044   6.226
12370TIP3    H237054   1.220   1.033   6.332
12371TIP3   OH237055   2.156   0.667   3.714
12371TIP3    H137056   2.238   0.704   3.745
12371TIP3    H237057   2.117   0.626   3.791
12372TIP3   OH237058   4.702   5.928   3.317
12372TIP3    H137059   4.668   5.941   3.406
12372TIP3    H237060   4.627   5.945   3.260
12373TIP3   OH237061   5.940   5.281   5.366
12373TIP3    H137062   5.950   5.362   5.316
12373TIP3    H237063   5.948   5.211   5.301
12374TIP3   OH237064   4.942   6.826   3.002
12374TIP3    H137065   4.923   6.773   2.925
12374TIP3    H237066   4.856   6.843   3.042
12375TIP3   OH237067   5.943   2.029   3.564
12375TIP3    H137068   5.920   2.100   3.624
12375TIP3    H237069   6.007   1.976   3.611
12376TIP3   OH237070   1.037   3.541   0.579
12376TIP3    H137071   1.044   3.448   0.557
12376TIP3    H237072   1.121   3.578   0.552
12377TIP3   OH237073   1.612   0.053   4.269
12377TIP3    H137074   1.590   0.141   4.299
12377TIP3    H237075   1.702   0.040   4.299
12378TIP3   OH237076   7.754   2.671   2.830
12378TIP3    H137077   7.805   2.650   2.908
12378TIP3    H237078   7.802   2.631   2.757
12379TIP3   OH237079   4.867   0.140   5.904
12379TIP3    H137080   4.951   0.095   5.914
12379TIP3    H237081   4.889   0.224   5.865
12380TIP3   OH237082   2.425   5.095   2.984
12380TIP3    H137083   2.410   5.049   2.901
12380TIP3    H237084   2.338   5.111   3.018
12381TIP3   OH237085   7.035   6.991   5.827
12381TIP3    H137086   7.108   6.948   5.870
12381TIP3    H237087   6.958   6.962   5.875
12382TIP3   OH237088   4.325   5.929   1.353
12382TIP3    H137089   4.285   5.946   1.267
12382TIP3    H237090   4.414   5.963   1.345
12383TIP3   OH237091   5.719   2.208   2.117
12383TIP3    H137092   5.633   2.250   2.114
12383TIP3    H237093   5.776   2.272   2.159
12384TIP3   OH237094   2.216   3.789   4.713
12384TIP3    H137095   2.149   3.854   4.730
12384TIP3    H237096   2.168   3.705   4.712
12385TIP3   OH237097   3.623   4.540   4.962
12385TIP3    H137098   3.661   4.616   4.918
12385TIP3    H237099   3.539   4.526   4.918
12386TIP3   OH237100   2.277   0.523   1.632
12386TIP3    H137101   2.199   0.501   1.581
12386TIP3    H237102   2.330   0.444   1.630
12387TIP3   OH237103   5.511   1.295   4.672
12387TIP3    H137104   5.416   1.299   4.681
12387TIP3    H237105   5.526   1.242   4.594
12388TIP3   OH237106   3.600   1.945   6.531
12388TIP3    H137107   3.595   1.867   6.475
12388TIP3    H237108   3.692   1.971   6.527
12389TIP3   OH237109   1.705   5.733   5.958
12389TIP3    H137110   1.676   5.790   5.887
12389TIP3    H237111   1.671   5.774   6.037
12390TIP3   OH237112   6.994   6.544   3.437
12390TIP3    H137113   6.922   6.500   3.392
12390TIP3    H237114   7.070   6.532   3.379
12391TIP3   OH237115   4.466   3.146   3.013
12391TIP3    H137116   4.460   3.179   3.103
12391TIP3    H237117   4.408   3.070   3.012
12392TIP3   OH237118   0.804   4.270   0.652
12392TIP3    H137119   0.823   4.226   0.569
12392TIP3    H237120   0.889   4.282   0.694
12393TIP3   OH237121   3.477   6.732   2.251
12393TIP3    H137122   3.430   6.769   2.326
12393TIP3    H237123   3.410   6.684   2.203
12394TIP3   OH237124   1.191   2.349   3.592
12394TIP3    H137125   1.187   2.254   3.608
12394TIP3    H237126   1.179   2.388   3.678
12395TIP3   OH237127   7.154   2.120   5.027
12395TIP3    H137128   7.069   2.159   5.051
12395TIP3    H237129   7.140   2.026   5.035
12396TIP3   OH237130   6.711   0.075   5.903
12396TIP3    H137131   6.724  -0.013   5.869
12396TIP3    H237132   6.797   0.103   5.933
12397TIP3   OH237133   0.598   2.396   1.968
12397TIP3    H137134   0.602   2.397   1.873
12397TIP3    H237135   0.688   2.378   1.996
12398TIP3   OH237136   4.332   3.623   1.215
12398TIP3    H137137   4.398   3.653   1.152
12398TIP3    H237138   4.364   3.657   1.299
12399TIP3   OH237139   1.843   4.684   0.209
12399TIP3    H137140   1.893   4.765   0.216
12399TIP3    H237141   1.758   4.705   0.247
12400TIP3   OH237142   3.748   1.980   4.196
12400TIP3    H137143   3.745   2.059   4.141
12400TIP3    H237144   3.747   1.907   4.134
12401TIP3   OH237145   1.565   5.648   3.243
12401TIP3    H137146   1.526   5.682   3.163
12401TIP3    H237147   1.578   5.725   3.299
12402TIP3   OH237148   7.258   0.215   3.326
12402TIP3    H137149   7.261   0.189   3.418
12402TIP3    H237150   7.167   0.242   3.312
12403TIP3   OH237151   2.079   7.503   5.023
12403TIP3    H137152   2.096   7.569   4.956
12403TIP3    H237153   2.119   7.423   4.987
12404TIP3   OH237154   3.437   2.848   4.129
12404TIP3    H137155   3.369   2.854   4.197
12404TIP3    H237156   3.500   2.784   4.164
12405TIP3   OH237157   2.963   3.526   0.745
12405TIP3    H137158   2.951   3.621   0.742
12405TIP3    H237159   2.967   3.500   0.653
12406TIP3   OH237160   3.890   3.215   4.514
12406TIP3    H137161   3.914   3.246   4.602
12406TIP3    H237162   3.844   3.132   4.530
12407TIP3   OH237163   3.379   0.264   4.398
12407TIP3    H137164   3.315   0.334   4.404
12407TIP3    H237165   3.427   0.282   4.317
12408TIP3   OH237166   0.203   7.382   0.701
12408TIP3    H137167   0.187   7.471   0.671
12408TIP3    H237168   0.288   7.388   0.746
12409TIP3   OH237169   7.307   5.224   2.389
12409TIP3    H137170   7.248   5.291   2.423
12409TIP3    H237171   7.333   5.256   2.303
12410TIP3   OH237172   0.714   0.400   0.489
12410TIP3    H137173   0.764   0.338   0.436
12410TIP3    H237174   0.725   0.484   0.445
12411TIP3   OH237175   7.194   2.153   1.182
12411TIP3    H137176   7.227   2.201   1.259
12411TIP3    H237177   7.221   2.063   1.197
12412TIP3   OH237178   3.316   7.363   3.371
12412TIP3    H137179   3.307   7.386   3.279
12412TIP3    H237180   3.328   7.446   3.416
12413TIP3   OH237181   8.334   2.817   5.686
12413TIP3    H137182   8.382   2.735   5.700
12413TIP3    H237183   8.389   2.884   5.727
12414TIP3   OH237184   2.979   7.762   2.243
12414TIP3    H137185   2.939   7.843   2.274
12414TIP3    H237186   2.917   7.727   2.179
12415TIP3   OH237187   7.205   3.859   4.025
12415TIP3    H137188   7.275   3.922   4.043
12415TIP3    H237189   7.252   3.779   4.000
12416TIP3   OH237190   4.886   7.543   3.200
12416TIP3    H137191   4.894   7.639   3.197
12416TIP3    H237192   4.937   7.512   3.125
12417TIP3   OH237193   5.923   4.432   4.748
12417TIP3    H137194   5.950   4.455   4.837
12417TIP3    H237195   5.941   4.338   4.740
12418TIP3   OH237196   2.892   1.249   0.926
12418TIP3    H137197   2.950   1.173   0.927
12418TIP3    H237198   2.947   1.322   0.899
12419TIP3   OH237199   7.095   7.440   0.232
12419TIP3    H137200   7.163   7.376   0.207
12419TIP3    H237201   7.019   7.415   0.180
12420TIP3   OH237202   7.994   4.530   3.919
12420TIP3    H137203   8.022   4.570   3.836
12420TIP3    H237204   7.900   4.514   3.907
12421TIP3   OH237205   5.993   4.780   5.162
12421TIP3    H137206   5.995   4.775   5.066
12421TIP3    H237207   6.061   4.719   5.190
12422TIP3   OH237208   7.355   0.150   4.240
12422TIP3    H137209   7.311   0.107   4.313
12422TIP3    H237210   7.418   0.209   4.282
12423TIP3   OH237211   2.539   5.286   4.287
12423TIP3    H137212   2.631   5.260   4.292
12423TIP3    H237213   2.497   5.215   4.238
12424TIP3   OH237214   2.949   6.919   4.409
12424TIP3    H137215   2.861   6.936   4.442
12424TIP3    H237216   2.948   6.827   4.382
12425TIP3   OH237217   4.816   7.599   6.429
12425TIP3    H137218   4.873   7.545   6.483
12425TIP3    H237219   4.822   7.560   6.341
12426TIP3   OH237220   1.441   7.817   4.810
12426TIP3    H137221   1.372   7.778   4.755
12426TIP3    H237222   1.500   7.859   4.747
12427TIP3   OH237223   4.080   2.127   3.441
12427TIP3    H137224   4.080   2.045   3.391
12427TIP3    H237225   4.164   2.167   3.421
12428TIP3   OH237226   5.117   7.451   0.296
12428TIP3    H137227   5.210   7.428   0.291
12428TIP3    H237228   5.106   7.490   0.383
12429TIP3   OH237229   4.186   6.904   5.546
12429TIP3    H137230   4.272   6.873   5.518
12429TIP3    H237231   4.143   6.827   5.584
12430TIP3   OH237232   7.165   1.353   0.345
12430TIP3    H137233   7.105   1.313   0.408
12430TIP3    H237234   7.250   1.350   0.388
12431TIP3   OH237235   7.322   2.698   5.358
12431TIP3    H137236   7.266   2.758   5.407
12431TIP3    H237237   7.408   2.741   5.355
12432TIP3   OH237238   3.001   6.131   1.320
12432TIP3    H137239   2.941   6.205   1.333
12432TIP3    H237240   2.985   6.075   1.396
12433TIP3   OH237241   6.586   2.109   2.389
12433TIP3    H137242   6.641   2.184   2.367
12433TIP3    H237243   6.638   2.058   2.451
12434TIP3   OH237244   4.040   2.090   0.445
12434TIP3    H137245   4.028   2.018   0.383
12434TIP3    H237246   4.055   2.048   0.529
12435TIP3   OH237247   7.305   6.412   3.599
12435TIP3    H137248   7.265   6.337   3.554
12435TIP3    H237249   7.332   6.471   3.528
12436TIP3   OH237250   4.420   2.182   4.938
12436TIP3    H137251   4.485   2.131   4.986
12436TIP3    H237252   4.389   2.247   5.002
12437TIP3   OH237253   4.296   2.819   2.650
12437TIP3    H137254   4.288   2.727   2.676
12437TIP3    H237255   4.278   2.867   2.731
12438TIP3   OH237256   6.495   2.195   5.202
12438TIP3    H137257   6.497   2.224   5.293
12438TIP3    H237258   6.530   2.105   5.205
12439TIP3   OH237259   6.613   4.290   5.435
12439TIP3    H137260   6.600   4.276   5.529
12439TIP3    H237261   6.669   4.367   5.429
12440TIP3   OH237262   6.372   0.505   5.048
12440TIP3    H137263   6.324   0.587   5.037
12440TIP3    H237264   6.319   0.440   5.002
12441TIP3   OH237265   2.266   0.967   2.755
12441TIP3    H137266   2.201   1.028   2.719
12441TIP3    H237267   2.228   0.881   2.739
12442TIP3   OH237268   7.407   1.552   3.775
12442TIP3    H137269   7.373   1.465   3.753
12442TIP3    H237270   7.339   1.591   3.829
12443TIP3   OH237271   3.315   2.543   1.428
12443TIP3    H137272   3.272   2.481   1.486
12443TIP3    H237273   3.276   2.628   1.447
12444TIP3   OH237274   3.889   4.790   1.778
12444TIP3    H137275   3.921   4.712   1.824
12444TIP3    H237276   3.796   4.795   1.800
12445TIP3   OH237277   1.888   3.158   2.076
12445TIP3    H137278   1.911   3.245   2.106
12445TIP3    H237279   1.802   3.168   2.034
12446TIP3   OH237280   4.381   2.466   3.019
12446TIP3    H137281   4.346   2.535   3.075
12446TIP3    H237282   4.473   2.489   3.006
12447TIP3   OH237283   0.245   2.379   3.033
12447TIP3    H137284   0.251   2.459   3.085
12447TIP3    H237285   0.154   2.376   3.003
12448TIP3   OH237286   8.038   5.501   1.404
12448TIP3    H137287   8.054   5.434   1.337
12448TIP3    H237288   8.039   5.452   1.486
12449TIP3   OH237289   1.873   7.115   0.390
12449TIP3    H137290   1.838   7.199   0.419
12449TIP3    H237291   1.888   7.127   0.296
12450TIP3   OH237292   4.741   4.016   6.756
12450TIP3    H137293   4.787   4.027   6.839
12450TIP3    H237294   4.758   4.096   6.707
12451TIP3   OH237295   3.765   2.346   1.401
12451TIP3    H137296   3.798   2.435   1.410
12451TIP3    H237297   3.675   2.357   1.369
12452TIP3   OH237298   7.449   7.637   3.977
12452TIP3    H137299   7.527   7.670   4.021
12452TIP3    H237300   7.483   7.597   3.896
12453TIP3   OH237301  -0.080   6.316   4.974
12453TIP3    H137302  -0.013   6.290   4.911
12453TIP3    H237303  -0.032   6.363   5.043
12454TIP3   OH237304   0.977   7.116   0.704
12454TIP3    H137305   1.019   7.185   0.755
12454TIP3    H237306   0.883   7.135   0.710
12455TIP3   OH237307   5.868   3.121   0.277
12455TIP3    H137308   5.861   3.208   0.237
12455TIP3    H237309   5.951   3.087   0.244
12456TIP3   OH237310   2.108   0.074   6.220
12456TIP3    H137311   2.014   0.080   6.203
12456TIP3    H237312   2.115   0.066   6.315
12457TIP3   OH237313   3.620   2.006   5.758
12457TIP3    H137314   3.539   2.013   5.706
12457TIP3    H237315   3.671   1.938   5.714
12458TIP3   OH237316   4.136   4.654   3.314
12458TIP3    H137317   4.119   4.648   3.408
12458TIP3    H237318   4.094   4.736   3.287
12459TIP3   OH237319   3.145   0.882   2.029
12459TIP3    H137320   3.181   0.964   1.997
12459TIP3    H237321   3.055   0.903   2.053
12460TIP3   OH237322   3.064   1.987   0.235
12460TIP3    H137323   3.126   2.012   0.304
12460TIP3    H237324   3.116   1.935   0.174
12461TIP3   OH237325   0.562   0.554   2.738
12461TIP3    H137326   0.554   0.458   2.736
12461TIP3    H237327   0.656   0.570   2.746
12462TIP3   OH237328   1.978   7.512   1.838
12462TIP3    H137329   2.041   7.584   1.837
12462TIP3    H237330   2.018   7.446   1.895
12463TIP3   OH237331   4.598   7.542   6.689
12463TIP3    H137332   4.577   7.448   6.687
12463TIP3    H237333   4.669   7.552   6.626
12464TIP3   OH237334   5.679   0.819   1.845
12464TIP3    H137335   5.710   0.816   1.755
12464TIP3    H237336   5.710   0.737   1.884
12465TIP3   OH237337   2.689   0.874   4.368
12465TIP3    H137338   2.716   0.941   4.305
12465TIP3    H237339   2.593   0.880   4.369
12466TIP3   OH237340   4.307   0.085   1.064
12466TIP3    H137341   4.321   0.121   1.151
12466TIP3    H237342   4.302   0.162   1.007
12467TIP3   OH237343   0.029   5.100   4.097
12467TIP3    H137344   0.086   5.042   4.148
12467TIP3    H237345   0.053   5.188   4.126
12468TIP3   OH237346   2.861   5.698   1.719
12468TIP3    H137347   2.902   5.762   1.777
12468TIP3    H237348   2.907   5.708   1.636
12469TIP3   OH237349   0.434   6.425   4.372
12469TIP3    H137350   0.416   6.448   4.281
12469TIP3    H237351   0.494   6.493   4.403
12470TIP3   OH237352   6.411   1.684   2.986
12470TIP3    H137353   6.480   1.676   2.919
12470TIP3    H237354   6.436   1.620   3.053
12471TIP3   OH237355   3.086   1.817   6.727
12471TIP3    H137356   3.166   1.782   6.688
12471TIP3    H237357   3.020   1.809   6.658
12472TIP3   OH237358   1.556   0.863   0.159
12472TIP3    H137359   1.528   0.855   0.067
12472TIP3    H237360   1.532   0.779   0.198
12473TIP3   OH237361   0.778   3.601   4.609
12473TIP3    H137362   0.828   3.556   4.678
12473TIP3    H237363   0.699   3.632   4.653
12474TIP3   OH237364   4.903   2.639   2.883
12474TIP3    H137365   4.978   2.662   2.937
12474TIP3    H237366   4.841   2.711   2.895
12475TIP3   OH237367   6.618   5.623   3.125
12475TIP3    H137368   6.615   5.539   3.171
12475TIP3    H237369   6.573   5.607   3.043
12476TIP3   OH237370   6.586   2.923   0.187
12476TIP3    H137371   6.563   2.830   0.190
12476TIP3    H237372   6.558   2.952   0.100
12477TIP3   OH237373   2.201   6.870   5.447
12477TIP3    H137374   2.184   6.794   5.502
12477TIP3    H237375   2.126   6.874   5.387
12478TIP3   OH237376   3.693   0.142   3.586
12478TIP3    H137377   3.676   0.173   3.675
12478TIP3    H237378   3.727   0.219   3.540
12479TIP3   OH237379   4.527   6.623   1.574
12479TIP3    H137380   4.593   6.583   1.517
12479TIP3    H237381   4.444   6.592   1.540
12480TIP3   OH237382   2.560   3.026   0.838
12480TIP3    H137383   2.649   2.993   0.849
12480TIP3    H237384   2.512   2.990   0.913
12481TIP3   OH237385   5.396   4.619   4.929
12481TIP3    H137386   5.393   4.702   4.975
12481TIP3    H237387   5.388   4.553   4.998
12482TIP3   OH237388   8.208   2.935   3.558
12482TIP3    H137389   8.229   2.850   3.598
12482TIP3    H237390   8.218   2.920   3.464
12483TIP3   OH237391   5.188   6.672   0.252
12483TIP3    H137392   5.099   6.683   0.218
12483TIP3    H237393   5.235   6.630   0.180
12484TIP3   OH237394   3.199   2.371   2.694
12484TIP3    H137395   3.135   2.381   2.623
12484TIP3    H237396   3.207   2.277   2.706
12485TIP3   OH237397   1.124   3.344   1.402
12485TIP3    H137398   1.144   3.436   1.387
12485TIP3    H237399   1.207   3.299   1.388
12486TIP3   OH237400   3.291   1.335   3.281
12486TIP3    H137401   3.363   1.310   3.340
12486TIP3    H237402   3.241   1.399   3.330
12487TIP3   OH237403   5.687   5.058   6.220
12487TIP3    H137404   5.732   5.127   6.269
12487TIP3    H237405   5.752   4.988   6.213
12488TIP3   OH237406   7.950   2.005   0.006
12488TIP3    H137407   7.861   2.013   0.040
12488TIP3    H237408   7.958   1.913  -0.020
12489TIP3   OH237409   5.829   4.239   5.046
12489TIP3    H137410   5.753   4.272   5.092
12489TIP3    H237411   5.880   4.194   5.113
12490TIP3   OH237412   7.891   7.625   4.583
12490TIP3    H137413   7.913   7.538   4.615
12490TIP3    H237414   7.810   7.614   4.534
12491TIP3   OH237415   0.118   5.599   1.628
12491TIP3    H137416   0.071   5.667   1.579
12491TIP3    H237417   0.051   5.556   1.680
12492TIP3   OH237418   2.272   1.728   1.946
12492TIP3    H137419   2.206   1.701   2.009
12492TIP3    H237420   2.341   1.663   1.953
12493TIP3   OH237421   2.455   0.920   0.974
12493TIP3    H137422   2.537   0.962   1.000
12493TIP3    H237423   2.439   0.952   0.885
12494TIP3   OH237424   1.649   2.761   2.159
12494TIP3    H137425   1.732   2.769   2.111
12494TIP3    H237426   1.633   2.849   2.193
12495TIP3   OH237427   4.240   1.133   0.591
12495TIP3    H137428   4.201   1.085   0.518
12495TIP3    H237429   4.318   1.082   0.614
12496TIP3   OH237430   1.107   4.072   5.813
12496TIP3    H137431   1.119   4.165   5.831
12496TIP3    H237432   1.185   4.047   5.763
12497TIP3   OH237433   6.795   0.321   5.192
12497TIP3    H137434   6.874   0.366   5.161
12497TIP3    H237435   6.788   0.244   5.136
12498TIP3   OH237436   2.760   3.329   1.047
12498TIP3    H137437   2.759   3.425   1.052
12498TIP3    H237438   2.853   3.306   1.042
12499TIP3   OH237439   1.793   0.272   5.576
12499TIP3    H137440   1.822   0.182   5.587
12499TIP3    H237441   1.738   0.270   5.497
12500TIP3   OH237442   3.450   3.384   1.796
12500TIP3    H137443   3.510   3.332   1.742
12500TIP3    H237444   3.376   3.401   1.738
12501TIP3   OH237445   3.443   6.539   5.117
12501TIP3    H137446   3.351   6.544   5.143
12501TIP3    H237447   3.476   6.628   5.126
12502TIP3   OH237448   3.924   2.450   0.911
12502TIP3    H137449   3.987   2.471   0.980
12502TIP3    H237450   3.958   2.369   0.872
12503TIP3   OH237451   4.764   0.200   0.678
12503TIP3    H137452   4.766   0.105   0.672
12503TIP3    H237453   4.856   0.226   0.684
12504TIP3   OH237454   6.901   5.131   2.587
12504TIP3    H137455   6.910   5.126   2.492
12504TIP3    H237456   6.916   5.223   2.608
12505TIP3   OH237457   2.740   5.408   4.982
12505TIP3    H137458   2.783   5.492   4.964
12505TIP3    H237459   2.697   5.385   4.900
12506TIP3   OH237460   6.814   1.524   0.416
12506TIP3    H137461   6.727   1.496   0.385
12506TIP3    H237462   6.829   1.474   0.496
12507TIP3   OH237463   6.395   6.338   6.315
12507TIP3    H137464   6.302   6.324   6.296
12507TIP3    H237465   6.427   6.389   6.240
12508TIP3   OH237466   2.098   6.646   4.925
12508TIP3    H137467   2.077   6.706   4.853
12508TIP3    H237468   2.030   6.579   4.921
12509TIP3   OH237469   4.196   0.240   6.668
12509TIP3    H137470   4.246   0.263   6.747
12509TIP3    H237471   4.261   0.202   6.609
12510TIP3   OH237472   6.811   7.808   1.456
12510TIP3    H137473   6.892   7.767   1.425
12510TIP3    H237474   6.742   7.750   1.425
12511TIP3   OH237475   5.258   7.451   2.830
12511TIP3    H137476   5.263   7.547   2.824
12511TIP3    H237477   5.336   7.427   2.881
12512TIP3   OH237478   7.894   3.092   4.638
12512TIP3    H137479   7.907   3.181   4.670
12512TIP3    H237480   7.961   3.080   4.570
12513TIP3   OH237481   2.200   6.952   3.717
12513TIP3    H137482   2.198   6.984   3.626
12513TIP3    H237483   2.111   6.923   3.734
12514TIP3   OH237484   3.743   2.717   3.060
12514TIP3    H137485   3.685   2.782   3.100
12514TIP3    H237486   3.825   2.764   3.047
12515TIP3   OH237487   7.190   6.431   6.730
12515TIP3    H137488   7.184   6.350   6.781
12515TIP3    H237489   7.099   6.451   6.706
12516TIP3   OH237490   2.612   6.590   5.782
12516TIP3    H137491   2.666   6.527   5.829
12516TIP3    H237492   2.665   6.669   5.776
12517TIP3   OH237493   5.328   6.465   3.376
12517TIP3    H137494   5.412   6.470   3.330
12517TIP3    H237495   5.309   6.555   3.400
12518TIP3   OH237496   1.094   7.686   2.323
12518TIP3    H137497   1.028   7.666   2.257
12518TIP3    H237498   1.109   7.780   2.315
12519TIP3   OH237499   8.148   2.797   2.034
12519TIP3    H137500   8.242   2.789   2.016
12519TIP3    H237501   8.122   2.877   1.988
12520TIP3   OH237502   6.465   3.808   1.657
12520TIP3    H137503   6.408   3.746   1.703
12520TIP3    H237504   6.501   3.757   1.584
12521TIP3   OH237505   0.453   5.049   5.867
12521TIP3    H137506   0.381   5.077   5.923
12521TIP3    H237507   0.412   5.028   5.783
12522TIP3   OH237508   2.323   4.160   4.855
12522TIP3    H137509   2.285   4.247   4.850
12522TIP3    H237510   2.268   4.113   4.918
12523TIP3   OH237511   0.611   3.123   6.603
12523TIP3    H137512   0.549   3.186   6.639
12523TIP3    H237513   0.589   3.118   6.510
12524TIP3   OH237514   1.666   3.587   2.536
12524TIP3    H137515   1.622   3.522   2.481
12524TIP3    H237516   1.710   3.645   2.474
12525TIP3   OH237517   0.555   1.592   4.946
12525TIP3    H137518   0.509   1.518   4.906
12525TIP3    H237519   0.554   1.573   5.040
12526TIP3   OH237520   3.105   3.116   4.741
12526TIP3    H137521   3.090   3.021   4.732
12526TIP3    H237522   3.031   3.156   4.695
12527TIP3   OH237523   2.263   3.753   5.465
12527TIP3    H137524   2.192   3.784   5.521
12527TIP3    H237525   2.338   3.742   5.524
12528TIP3   OH237526   3.019   0.300   4.214
12528TIP3    H137527   3.049   0.231   4.155
12528TIP3    H237528   3.004   0.256   4.297
12529TIP3   OH237529   1.141   7.130   5.446
12529TIP3    H137530   1.234   7.129   5.424
12529TIP3    H237531   1.114   7.221   5.432
12530TIP3   OH237532   4.935   1.061   5.157
12530TIP3    H137533   4.958   1.143   5.114
12530TIP3    H237534   4.861   1.027   5.106
12531TIP3   OH237535   2.452   4.232   4.000
12531TIP3    H137536   2.491   4.176   3.933
12531TIP3    H237537   2.509   4.222   4.076
12532TIP3   OH237538   3.778   7.433   0.152
12532TIP3    H137539   3.861   7.399   0.186
12532TIP3    H237540   3.768   7.389   0.068
12533TIP3   OH237541   8.284   6.277   1.672
12533TIP3    H137542   8.220   6.347   1.663
12533TIP3    H237543   8.327   6.294   1.756
12534TIP3   OH237544   3.739   1.444   0.311
12534TIP3    H137545   3.688   1.365   0.326
12534TIP3    H237546   3.690   1.513   0.356
12535TIP3   OH237547   6.835   5.966   2.675
12535TIP3    H137548   6.843   5.899   2.607
12535TIP3    H237549   6.852   6.048   2.630
12536TIP3   OH237550   2.741   2.893   1.969
12536TIP3    H137551   2.810   2.904   1.903
12536TIP3    H237552   2.788   2.875   2.050
12537TIP3   OH237553   2.764   3.720   1.677
12537TIP3    H137554   2.858   3.730   1.661
12537TIP3    H237555   2.750   3.755   1.765
12538TIP3   OH237556   6.118   6.935   6.208
12538TIP3    H137557   6.200   6.956   6.164
12538TIP3    H237558   6.090   6.853   6.169
12539TIP3   OH237559   2.286   0.252   4.743
12539TIP3    H137560   2.311   0.300   4.822
12539TIP3    H237561   2.301   0.160   4.765
12540TIP3   OH237562   8.272   3.227   5.757
12540TIP3    H137563   8.239   3.268   5.837
12540TIP3    H237564   8.359   3.193   5.781
12541TIP3   OH237565   4.889   6.486   0.065
12541TIP3    H137566   4.925   6.438   0.139
12541TIP3    H237567   4.856   6.419   0.006
12542TIP3   OH237568   6.736   5.826   6.330
12542TIP3    H137569   6.697   5.770   6.397
12542TIP3    H237570   6.699   5.913   6.347
12543TIP3   OH237571   3.719   4.391   0.789
12543TIP3    H137572   3.791   4.434   0.835
12543TIP3    H237573   3.755   4.370   0.703
12544TIP3   OH237574   7.712   0.131   6.449
12544TIP3    H137575   7.729   0.041   6.424
12544TIP3    H237576   7.765   0.145   6.528
12545TIP3   OH237577   7.413   0.243   2.530
12545TIP3    H137578   7.405   0.168   2.590
12545TIP3    H237579   7.446   0.205   2.449
12546TIP3   OH237580   2.488   0.473   0.173
12546TIP3    H137581   2.446   0.393   0.139
12546TIP3    H237582   2.570   0.479   0.126
12547TIP3   OH237583   2.269   3.709   4.117
12547TIP3    H137584   2.272   3.648   4.044
12547TIP3    H237585   2.356   3.705   4.157
12548TIP3   OH237586   6.370   4.143   3.885
12548TIP3    H137587   6.293   4.112   3.836
12548TIP3    H237588   6.368   4.093   3.966
12549TIP3   OH237589   7.469   0.314   4.891
12549TIP3    H137590   7.471   0.348   4.980
12549TIP3    H237591   7.457   0.392   4.836
12550TIP3   OH237592   7.815   5.270   5.863
12550TIP3    H137593   7.842   5.253   5.773
12550TIP3    H237594   7.890   5.313   5.904
12551TIP3   OH237595   7.749   4.992   6.480
12551TIP3    H137596   7.767   5.017   6.390
12551TIP3    H237597   7.771   5.070   6.531
12552TIP3   OH237598   1.533   4.910   3.158
12552TIP3    H137599   1.541   5.005   3.160
12552TIP3    H237600   1.443   4.893   3.186
12553TIP3   OH237601   4.512   5.190   1.561
12553TIP3    H137602   4.420   5.188   1.536
12553TIP3    H237603   4.552   5.118   1.512
12554TIP3   OH237604   7.463   1.665   6.420
12554TIP3    H137605   7.497   1.704   6.501
12554TIP3    H237606   7.396   1.727   6.390
12555TIP3   OH237607   1.709   0.368   3.114
12555TIP3    H137608   1.740   0.398   3.029
12555TIP3    H237609   1.720   0.443   3.172
12556TIP3   OH237610   0.256   6.487   2.441
12556TIP3    H137611   0.304   6.411   2.474
12556TIP3    H237612   0.185   6.450   2.389
12557TIP3   OH237613   1.980   3.719   5.954
12557TIP3    H137614   1.975   3.626   5.974
12557TIP3    H237615   1.938   3.728   5.868
12558TIP3   OH237616   3.920   1.486   5.694
12558TIP3    H137617   3.917   1.576   5.661
12558TIP3    H237618   3.919   1.432   5.615
12559TIP3   OH237619   5.815   4.341   6.400
12559TIP3    H137620   5.895   4.349   6.451
12559TIP3    H237621   5.845   4.314   6.313
12560TIP3   OH237622   8.217   2.450   4.399
12560TIP3    H137623   8.187   2.524   4.347
12560TIP3    H237624   8.209   2.375   4.341
12561TIP3   OH237625   5.406   5.668   1.061
12561TIP3    H137626   5.464   5.733   1.101
12561TIP3    H237627   5.458   5.631   0.989
12562TIP3   OH237628   7.242   6.429   1.339
12562TIP3    H137629   7.249   6.513   1.384
12562TIP3    H237630   7.286   6.443   1.255
12563TIP3   OH237631   3.812   7.030   1.653
12563TIP3    H137632   3.904   7.052   1.661
12563TIP3    H237633   3.771   7.068   1.731
12564TIP3   OH237634   8.015   4.508   2.840
12564TIP3    H137635   8.096   4.482   2.885
12564TIP3    H237636   7.965   4.426   2.834
12565TIP3   OH237637   4.464   7.232   1.865
12565TIP3    H137638   4.450   7.140   1.843
12565TIP3    H237639   4.380   7.263   1.897
12566TIP3   OH237640   0.434   6.319   5.662
12566TIP3    H137641   0.522   6.332   5.626
12566TIP3    H237642   0.383   6.283   5.589
12567TIP3   OH237643   6.018   0.310   6.464
12567TIP3    H137644   5.962   0.257   6.521
12567TIP3    H237645   6.107   0.280   6.482
12568TIP3   OH237646   6.542   1.284   6.449
12568TIP3    H137647   6.608   1.353   6.448
12568TIP3    H237648   6.589   1.206   6.478
12569TIP3   OH237649   3.215   1.832   6.342
12569TIP3    H137650   3.245   1.896   6.407
12569TIP3    H237651   3.144   1.876   6.296
12570TIP3   OH237652   7.268   4.574   3.944
12570TIP3    H137653   7.333   4.508   3.963
12570TIP3    H237654   7.309   4.657   3.969
12571TIP3   OH237655   7.379   4.351   2.008
12571TIP3    H137656   7.394   4.434   2.053
12571TIP3    H237657   7.343   4.294   2.075
12572TIP3   OH237658   7.180   5.783   5.745
12572TIP3    H137659   7.261   5.751   5.784
12572TIP3    H237660   7.175   5.875   5.771
12573TIP3   OH237661   0.564   0.618   4.715
12573TIP3    H137662   0.540   0.540   4.764
12573TIP3    H237663   0.595   0.586   4.631
12574TIP3   OH237664   1.804   3.276   1.313
12574TIP3    H137665   1.800   3.285   1.218
12574TIP3    H237666   1.713   3.281   1.342
12575TIP3   OH237667   4.576   5.595   2.926
12575TIP3    H137668   4.562   5.501   2.936
12575TIP3    H237669   4.654   5.614   2.977
12576TIP3   OH237670   6.845   6.023   4.981
12576TIP3    H137671   6.925   6.075   4.991
12576TIP3    H237672   6.832   5.983   5.067
12577TIP3   OH237673   6.614   3.241   3.118
12577TIP3    H137674   6.646   3.273   3.202
12577TIP3    H237675   6.522   3.269   3.115
12578TIP3   OH237676   4.141   7.588   2.274
12578TIP3    H137677   4.052   7.623   2.269
12578TIP3    H237678   4.172   7.614   2.361
12579TIP3   OH237679   4.082   7.590   0.825
12579TIP3    H137680   4.110   7.516   0.772
12579TIP3    H237681   4.020   7.552   0.888
12580TIP3   OH237682   8.191   5.248   6.288
12580TIP3    H137683   8.149   5.196   6.220
12580TIP3    H237684   8.248   5.309   6.241
12581TIP3   OH237685   2.273   1.805   1.667
12581TIP3    H137686   2.285   1.721   1.713
12581TIP3    H237687   2.179   1.811   1.653
12582TIP3   OH237688   3.208   3.942   3.702
12582TIP3    H137689   3.179   3.853   3.721
12582TIP3    H237690   3.156   3.969   3.627
12583TIP3   OH237691   6.311   6.787   5.317
12583TIP3    H137692   6.365   6.708   5.320
12583TIP3    H237693   6.353   6.849   5.377
12584TIP3   OH237694   3.626   4.445   0.395
12584TIP3    H137695   3.624   4.356   0.430
12584TIP3    H237696   3.697   4.488   0.442
12585TIP3   OH237697   3.404   7.219   1.453
12585TIP3    H137698   3.382   7.166   1.376
12585TIP3    H237699   3.453   7.293   1.417
12586TIP3   OH237700   1.838   3.462   2.705
12586TIP3    H137701   1.873   3.408   2.634
12586TIP3    H237702   1.759   3.502   2.668
12587TIP3   OH237703   4.731   5.925   5.582
12587TIP3    H137704   4.775   5.873   5.650
12587TIP3    H237705   4.795   5.992   5.559
12588TIP3   OH237706   7.546   0.521   1.134
12588TIP3    H137707   7.639   0.520   1.115
12588TIP3    H237708   7.525   0.613   1.151
12589TIP3   OH237709   4.533   3.759   4.831
12589TIP3    H137710   4.534   3.697   4.758
12589TIP3    H237711   4.469   3.721   4.892
12590TIP3   OH237712   5.795   4.846   1.939
12590TIP3    H137713   5.731   4.915   1.923
12590TIP3    H237714   5.861   4.887   1.995
12591TIP3   OH237715   2.908   2.857   5.920
12591TIP3    H137716   2.851   2.780   5.914
12591TIP3    H237717   2.997   2.822   5.911
12592TIP3   OH237718   5.260   6.164   2.324
12592TIP3    H137719   5.211   6.211   2.256
12592TIP3    H237720   5.244   6.214   2.404
12593TIP3   OH237721   4.192   2.699   0.481
12593TIP3    H137722   4.128   2.662   0.542
12593TIP3    H237723   4.144   2.708   0.399
12594TIP3   OH237724   1.897   1.382   6.411
12594TIP3    H137725   1.896   1.417   6.500
12594TIP3    H237726   1.820   1.421   6.369
12595TIP3   OH237727   7.547   5.572   5.501
12595TIP3    H137728   7.637   5.562   5.531
12595TIP3    H237729   7.549   5.649   5.443
12596TIP3   OH237730   5.995   2.427   3.781
12596TIP3    H137731   5.952   2.342   3.791
12596TIP3    H237732   6.086   2.406   3.760
12597TIP3   OH237733   7.058   0.977   3.544
12597TIP3    H137734   7.052   0.912   3.474
12597TIP3    H237735   7.067   1.061   3.498
12598TIP3   OH237736   2.788   0.409   3.092
12598TIP3    H137737   2.704   0.428   3.134
12598TIP3    H237738   2.807   0.319   3.116
12599TIP3   OH237739   6.209   4.303   5.781
12599TIP3    H137740   6.251   4.242   5.721
12599TIP3    H237741   6.178   4.374   5.724
12600TIP3   OH237742   1.803   3.808   5.303
12600TIP3    H137743   1.862   3.840   5.234
12600TIP3    H237744   1.834   3.851   5.382
12601TIP3   OH237745   4.883   1.666   6.621
12601TIP3    H137746   4.798   1.631   6.593
12601TIP3    H237747   4.920   1.597   6.676
12602TIP3   OH237748   7.357   1.458   5.145
12602TIP3    H137749   7.303   1.399   5.092
12602TIP3    H237750   7.446   1.428   5.130
12603TIP3   OH237751   0.948   1.372   0.271
12603TIP3    H137752   0.964   1.466   0.282
12603TIP3    H237753   1.012   1.330   0.328
12604TIP3   OH237754   5.977   4.484   1.058
12604TIP3    H137755   6.030   4.563   1.055
12604TIP3    H237756   5.927   4.485   0.976
12605TIP3   OH237757   6.809   0.808   5.236
12605TIP3    H137758   6.871   0.812   5.163
12605TIP3    H237759   6.754   0.732   5.217
12606TIP3   OH237760   8.130   1.655   4.346
12606TIP3    H137761   8.133   1.592   4.273
12606TIP3    H237762   8.200   1.627   4.405
12607TIP3   OH237763   6.826   2.752   0.186
12607TIP3    H137764   6.769   2.736   0.110
12607TIP3    H237765   6.833   2.847   0.190
12608TIP3   OH237766   6.995   7.216   1.992
12608TIP3    H137767   7.060   7.286   1.999
12608TIP3    H237768   7.036   7.153   1.933
12609TIP3   OH237769   1.782   5.487   4.354
12609TIP3    H137770   1.799   5.548   4.281
12609TIP3    H237771   1.789   5.400   4.315
12610TIP3   OH237772   8.000   0.616   3.113
12610TIP3    H137773   7.957   0.702   3.112
12610TIP3    H237774   7.973   0.574   3.031
12611TIP3   OH237775   6.945   0.185   2.741
12611TIP3    H137776   6.873   0.239   2.772
12611TIP3    H237777   6.983   0.234   2.668
12612TIP3   OH237778   4.599   7.075   2.331
12612TIP3    H137779   4.533   7.097   2.397
12612TIP3    H237780   4.591   6.980   2.321
12613TIP3   OH237781   6.525   7.276   5.810
12613TIP3    H137782   6.538   7.370   5.818
12613TIP3    H237783   6.453   7.256   5.869
12614TIP3   OH237784   2.388   7.384   5.880
12614TIP3    H137785   2.337   7.330   5.821
12614TIP3    H237786   2.386   7.338   5.964
12615TIP3   OH237787   1.344   6.189   1.749
12615TIP3    H137788   1.368   6.280   1.730
12615TIP3    H237789   1.339   6.147   1.664
12616TIP3   OH237790   7.341   0.225   1.600
12616TIP3    H137791   7.268   0.261   1.550
12616TIP3    H237792   7.299   0.170   1.666
12617TIP3   OH237793   3.456   0.958   3.307
12617TIP3    H137794   3.478   0.968   3.215
12617TIP3    H237795   3.362   0.944   3.309
12618TIP3   OH237796   4.833   6.065   3.811
12618TIP3    H137797   4.796   5.977   3.804
12618TIP3    H237798   4.759   6.119   3.840
12619TIP3   OH237799   1.777   0.402   3.853
12619TIP3    H137800   1.695   0.434   3.816
12619TIP3    H237801   1.750   0.338   3.919
12620TIP3   OH237802   7.523   1.725   1.126
12620TIP3    H137803   7.598   1.768   1.086
12620TIP3    H237804   7.473   1.689   1.051
12621TIP3   OH237805   4.100   6.789   3.877
12621TIP3    H137806   4.009   6.788   3.905
12621TIP3    H237807   4.097   6.766   3.784
12622TIP3   OH237808   2.654   5.538   5.510
12622TIP3    H137809   2.579   5.597   5.510
12622TIP3    H237810   2.665   5.513   5.602
12623TIP3   OH237811   3.616   4.946   5.396
12623TIP3    H137812   3.544   4.960   5.457
12623TIP3    H237813   3.679   4.894   5.446
12624TIP3   OH237814   0.299   6.447   0.303
12624TIP3    H137815   0.344   6.520   0.346
12624TIP3    H237816   0.247   6.406   0.372
12625TIP3   OH237817   1.309   5.960   5.696
12625TIP3    H137818   1.392   5.983   5.738
12625TIP3    H237819   1.311   6.006   5.612
12626TIP3   OH237820   2.118   0.220   5.686
12626TIP3    H137821   2.049   0.155   5.674
12626TIP3    H237822   2.091   0.271   5.762
12627TIP3   OH237823   7.271   1.675   2.446
12627TIP3    H137824   7.318   1.755   2.422
12627TIP3    H237825   7.314   1.606   2.395
12628TIP3   OH237826   6.891   1.780   0.537
12628TIP3    H137827   6.802   1.813   0.534
12628TIP3    H237828   6.884   1.691   0.502
12629TIP3   OH237829   6.943   4.230   5.362
12629TIP3    H137830   6.902   4.223   5.448
12629TIP3    H237831   6.912   4.153   5.315
12630TIP3   OH237832   5.717   3.265   4.041
12630TIP3    H137833   5.643   3.204   4.035
12630TIP3    H237834   5.677   3.352   4.031
12631TIP3   OH237835   4.390   4.028   3.749
12631TIP3    H137836   4.343   4.026   3.665
12631TIP3    H237837   4.416   3.937   3.764
12632TIP3   OH237838   2.470   1.495   4.141
12632TIP3    H137839   2.379   1.472   4.161
12632TIP3    H237840   2.474   1.494   4.045
12633TIP3   OH237841   3.710   5.752   6.018
12633TIP3    H137842   3.725   5.843   5.993
12633TIP3    H237843   3.796   5.720   6.045
12634TIP3   OH237844   7.272   2.656   6.703
12634TIP3    H137845   7.281   2.649   6.798
12634TIP3    H237846   7.205   2.723   6.690
12635TIP3   OH237847   5.084   0.414   4.252
12635TIP3    H137848   5.055   0.339   4.199
12635TIP3    H237849   5.119   0.476   4.189
12636TIP3   OH237850   0.902   1.565   0.586
12636TIP3    H137851   0.813   1.600   0.579
12636TIP3    H237852   0.902   1.488   0.529
12637TIP3   OH237853   7.705   3.605   0.070
12637TIP3    H137854   7.796   3.596   0.099
12637TIP3    H237855   7.684   3.519   0.034
12638TIP3   OH237856   2.010   5.446   0.811
12638TIP3    H137857   2.020   5.531   0.769
12638TIP3    H237858   1.916   5.431   0.813
12639TIP3   OH237859   3.374   6.603   3.911
12639TIP3    H137860   3.406   6.663   3.978
12639TIP3    H237861   3.321   6.658   3.853
12640TIP3   OH237862   3.926   0.354   5.113
12640TIP3    H137863   3.861   0.388   5.174
12640TIP3    H237864   3.900   0.388   5.028
12641TIP3   OH237865   6.079   2.173   0.710
12641TIP3    H137866   6.076   2.248   0.651
12641TIP3    H237867   6.079   2.097   0.652
12642TIP3   OH237868   4.367   5.279   0.158
12642TIP3    H137869   4.416   5.279   0.076
12642TIP3    H237870   4.279   5.253   0.133
12643TIP3   OH237871   7.338   2.276   6.449
12643TIP3    H137872   7.361   2.184   6.465
12643TIP3    H237873   7.290   2.302   6.528
12644TIP3   OH237874   4.943   1.385   5.234
12644TIP3    H137875   4.983   1.380   5.321
12644TIP3    H237876   4.858   1.426   5.250
12645TIP3   OH237877   2.905   4.112   0.209
12645TIP3    H137878   2.823   4.116   0.160
12645TIP3    H237879   2.932   4.020   0.202
12646TIP3   OH237880   7.791   0.332   1.822
12646TIP3    H137881   7.794   0.313   1.916
12646TIP3    H237882   7.711   0.289   1.792
12647TIP3   OH237883   5.915   6.494   3.419
12647TIP3    H137884   5.983   6.551   3.456
12647TIP3    H237885   5.930   6.409   3.460
12648TIP3   OH237886   5.533   2.110   5.736
12648TIP3    H137887   5.541   2.185   5.677
12648TIP3    H237888   5.573   2.140   5.818
12649TIP3   OH237889   5.138   0.542   5.258
12649TIP3    H137890   5.213   0.553   5.200
12649TIP3    H237891   5.128   0.626   5.302
12650TIP3   OH237892   3.358   6.411   4.444
12650TIP3    H137893   3.352   6.416   4.539
12650TIP3    H237894   3.445   6.446   4.423
12651TIP3   OH237895   2.898   6.462   0.717
12651TIP3    H137896   2.917   6.486   0.808
12651TIP3    H237897   2.810   6.425   0.720
12652TIP3   OH237898   7.969   7.308   2.049
12652TIP3    H137899   8.031   7.272   1.986
12652TIP3    H237900   7.885   7.270   2.024
12653TIP3   OH237901   4.654   1.962   6.239
12653TIP3    H137902   4.650   1.913   6.321
12653TIP3    H237903   4.745   1.952   6.209
12654TIP3   OH237904   5.535   5.449   0.490
12654TIP3    H137905   5.446   5.419   0.508
12654TIP3    H237906   5.548   5.523   0.550
12655TIP3   OH237907   6.190   5.967   3.680
12655TIP3    H137908   6.270   5.980   3.731
12655TIP3    H237909   6.119   5.983   3.742
12656TIP3   OH237910   6.792   0.325   1.598
12656TIP3    H137911   6.810   0.231   1.604
12656TIP3    H237912   6.840   0.354   1.520
12657TIP3   OH237913   1.250   3.701   1.690
12657TIP3    H137914   1.329   3.647   1.682
12657TIP3    H237915   1.179   3.637   1.694
12658TIP3   OH237916   6.702   3.135   3.733
12658TIP3    H137917   6.630   3.194   3.709
12658TIP3    H237918   6.684   3.055   3.683
12659TIP3   OH237919   6.039   0.594   3.275
12659TIP3    H137920   5.945   0.597   3.255
12659TIP3    H237921   6.044   0.549   3.359
12660TIP3   OH237922   7.058   1.726   6.341
12660TIP3    H137923   7.023   1.651   6.294
12660TIP3    H237924   6.982   1.783   6.356
12661TIP3   OH237925   1.239   1.001   4.264
12661TIP3    H137926   1.163   1.015   4.321
12661TIP3    H237927   1.303   1.066   4.292
12662TIP3   OH237928   0.324   2.650   5.470
12662TIP3    H137929   0.324   2.641   5.375
12662TIP3    H237930   0.233   2.666   5.494
12663TIP3   OH237931   6.466   4.176   4.969
12663TIP3    H137932   6.459   4.082   4.983
12663TIP3    H237933   6.420   4.192   4.887
12664TIP3   OH237934   2.293   3.473   0.437
12664TIP3    H137935   2.230   3.417   0.483
12664TIP3    H237936   2.247   3.499   0.357
12665TIP3   OH237937   3.090   1.446   2.021
12665TIP3    H137938   3.152   1.407   2.081
12665TIP3    H237939   3.004   1.427   2.059
12666TIP3   OH237940   7.119   4.205   0.128
12666TIP3    H137941   7.179   4.167   0.192
12666TIP3    H237942   7.033   4.197   0.168
12667TIP3   OH237943   0.386   3.173   4.300
12667TIP3    H137944   0.359   3.082   4.290
12667TIP3    H237945   0.466   3.169   4.353
12668TIP3   OH237946   6.702   7.660   2.018
12668TIP3    H137947   6.732   7.569   2.021
12668TIP3    H237948   6.739   7.695   1.938
12669TIP3   OH237949   3.522   1.375   6.212
12669TIP3    H137950   3.554   1.297   6.166
12669TIP3    H237951   3.508   1.440   6.144
12670TIP3   OH237952   6.438   2.692   6.086
12670TIP3    H137953   6.400   2.773   6.052
12670TIP3    H237954   6.529   2.694   6.057
12671TIP3   OH237955   0.709   2.629   5.782
12671TIP3    H137956   0.690   2.628   5.688
12671TIP3    H237957   0.740   2.540   5.800
12672TIP3   OH237958   6.262   6.254   2.403
12672TIP3    H137959   6.269   6.234   2.309
12672TIP3    H237960   6.248   6.169   2.445
12673TIP3   OH237961   6.388   7.688   6.060
12673TIP3    H137962   6.337   7.763   6.029
12673TIP3    H237963   6.332   7.613   6.042
12674TIP3   OH237964   2.131   6.586   5.540
12674TIP3    H137965   2.176   6.503   5.554
12674TIP3    H237966   2.060   6.565   5.479
12675TIP3   OH237967   1.665   3.523   5.563
12675TIP3    H137968   1.602   3.452   5.547
12675TIP3    H237969   1.727   3.517   5.490
12676TIP3   OH237970   5.650   6.538   0.229
12676TIP3    H137971   5.695   6.489   0.299
12676TIP3    H237972   5.573   6.576   0.272
12677TIP3   OH237973   7.413   6.003   3.316
12677TIP3    H137974   7.453   5.939   3.375
12677TIP3    H237975   7.434   5.972   3.228
12678TIP3   OH237976   7.287   1.859   6.315
12678TIP3    H137977   7.200   1.819   6.314
12678TIP3    H237978   7.316   1.857   6.224
12679TIP3   OH237979   4.489   1.275   4.203
12679TIP3    H137980   4.516   1.355   4.248
12679TIP3    H237981   4.542   1.273   4.124
12680TIP3   OH237982   6.098   4.957   6.455
12680TIP3    H137983   6.085   4.930   6.546
12680TIP3    H237984   6.180   5.007   6.457
12681TIP3   OH237985   5.731   7.058   1.971
12681TIP3    H137986   5.684   7.118   1.913
12681TIP3    H237987   5.771   7.115   2.036
12682TIP3   OH237988   2.714   7.537   0.530
12682TIP3    H137989   2.717   7.550   0.625
12682TIP3    H237990   2.757   7.614   0.493
12683TIP3   OH237991   2.896   4.244   2.524
12683TIP3    H137992   2.970   4.252   2.464
12683TIP3    H237993   2.821   4.226   2.468
12684TIP3   OH237994   7.242   3.810   3.235
12684TIP3    H137995   7.311   3.781   3.176
12684TIP3    H237996   7.170   3.749   3.221
12685TIP3   OH237997   5.850   3.008   3.205
12685TIP3    H137998   5.919   2.943   3.195
12685TIP3    H237999   5.779   2.978   3.148
12686TIP3   OH238000   4.348   1.687   5.132
12686TIP3    H138001   4.311   1.753   5.072
12686TIP3    H238002   4.414   1.735   5.182
12687TIP3   OH238003   7.654   3.352   0.812
12687TIP3    H138004   7.718   3.423   0.823
12687TIP3    H238005   7.704   3.272   0.825
12688TIP3   OH238006   4.679   5.448   4.387
12688TIP3    H138007   4.642   5.360   4.396
12688TIP3    H238008   4.759   5.446   4.440
12689TIP3   OH238009   5.381   2.343   0.540
12689TIP3    H138010   5.406   2.251   0.549
12689TIP3    H238011   5.306   2.341   0.480
12690TIP3   OH238012   5.903   4.871   6.220
12690TIP3    H138013   5.974   4.928   6.248
12690TIP3    H238014   5.924   4.785   6.258
12691TIP3   OH238015   2.627   4.551   0.389
12691TIP3    H138016   2.569   4.601   0.447
12691TIP3    H238017   2.713   4.557   0.431
12692TIP3   OH238018   2.652   4.123   0.462
12692TIP3    H138019   2.640   4.148   0.370
12692TIP3    H238020   2.704   4.043   0.458
12693TIP3   OH238021   2.638   4.136   5.091
12693TIP3    H138022   2.664   4.159   5.181
12693TIP3    H238023   2.545   4.156   5.088
12694TIP3   OH238024   3.810   6.360   2.382
12694TIP3    H138025   3.738   6.368   2.319
12694TIP3    H238026   3.773   6.389   2.465
12695TIP3   OH238027   5.815   0.518   5.806
12695TIP3    H138028   5.773   0.533   5.721
12695TIP3    H238029   5.770   0.442   5.842
12696TIP3   OH238030   6.400   2.063   4.919
12696TIP3    H138031   6.391   2.139   4.976
12696TIP3    H238032   6.362   1.991   4.969
12697TIP3   OH238033   7.152   6.232   0.053
12697TIP3    H138034   7.189   6.159   0.004
12697TIP3    H238035   7.227   6.285   0.079
12698TIP3   OH238036   2.816   1.844   4.263
12698TIP3    H138037   2.756   1.786   4.310
12698TIP3    H238038   2.902   1.825   4.300
12699TIP3   OH238039   5.326   6.256   0.429
12699TIP3    H138040   5.348   6.329   0.486
12699TIP3    H238041   5.361   6.280   0.344
12700TIP3   OH238042   7.042   2.353   1.563
12700TIP3    H138043   7.075   2.265   1.544
12700TIP3    H238044   6.964   2.362   1.509
12701TIP3   OH238045   0.882   1.477   4.843
12701TIP3    H138046   0.822   1.412   4.880
12701TIP3    H238047   0.826   1.551   4.818
12702TIP3   OH238048   7.087   7.458   6.193
12702TIP3    H138049   7.181   7.476   6.189
12702TIP3    H238050   7.058   7.462   6.101
12703TIP3   OH238051   0.105   0.000   3.210
12703TIP3    H138052   0.019  -0.039   3.192
12703TIP3    H238053   0.096   0.037   3.298
12704TIP3   OH238054   5.683   4.158   1.206
12704TIP3    H138055   5.740   4.221   1.249
12704TIP3    H238056   5.598   4.202   1.203
12705TIP3   OH238057   0.727   1.375   2.448
12705TIP3    H138058   0.792   1.424   2.497
12705TIP3    H238059   0.767   1.359   2.362
12706TIP3   OH238060   0.450   1.945   5.525
12706TIP3    H138061   0.533   1.987   5.548
12706TIP3    H238062   0.425   1.897   5.604
12707TIP3   OH238063   0.724   3.827   3.952
12707TIP3    H138064   0.669   3.759   3.990
12707TIP3    H238065   0.786   3.780   3.897
12708TIP3   OH238066   5.938   0.631   6.177
12708TIP3    H138067   5.924   0.539   6.200
12708TIP3    H238068   5.850   0.666   6.161
12709TIP3   OH238069   7.566   7.153   2.569
12709TIP3    H138070   7.524   7.237   2.548
12709TIP3    H238071   7.517   7.088   2.519
12710TIP3   OH238072   0.612   4.261   2.039
12710TIP3    H138073   0.670   4.194   2.075
12710TIP3    H238074   0.553   4.214   1.980
12711TIP3   OH238075   6.441   4.392   6.156
12711TIP3    H138076   6.511   4.457   6.151
12711TIP3    H238077   6.377   4.430   6.217
12712TIP3   OH238078   3.355   1.545   4.655
12712TIP3    H138079   3.447   1.532   4.678
12712TIP3    H238080   3.310   1.556   4.739
12713TIP3   OH238081   0.688   4.458   0.884
12713TIP3    H138082   0.678   4.396   0.956
12713TIP3    H238083   0.783   4.462   0.870
12714TIP3   OH238084   1.012   6.148   3.948
12714TIP3    H138085   1.045   6.059   3.959
12714TIP3    H238086   0.922   6.144   3.981
12715TIP3   OH238087   7.484   1.631   5.549
12715TIP3    H138088   7.393   1.604   5.537
12715TIP3    H238089   7.510   1.589   5.631
12716TIP3   OH238090   0.446   1.282   6.422
12716TIP3    H138091   0.481   1.256   6.507
12716TIP3    H238092   0.384   1.352   6.442
12717TIP3   OH238093   3.513   1.740   6.361
12717TIP3    H138094   3.523   1.712   6.270
12717TIP3    H238095   3.421   1.763   6.370
12718TIP3   OH238096   0.713   5.702   3.267
12718TIP3    H138097   0.715   5.793   3.295
12718TIP3    H238098   0.725   5.706   3.172
12719TIP3   OH238099   6.954   5.847   5.928
12719TIP3    H138100   7.026   5.822   5.985
12719TIP3    H238101   6.995   5.862   5.843
12720TIP3   OH238102   1.892   3.288   5.287
12720TIP3    H138103   1.867   3.375   5.319
12720TIP3    H238104   1.812   3.235   5.297
12721TIP3   OH238105   2.116   2.313   4.796
12721TIP3    H138106   2.206   2.302   4.826
12721TIP3    H238107   2.120   2.385   4.733
12722TIP3   OH238108   1.425   3.430   3.182
12722TIP3    H138109   1.428   3.360   3.247
12722TIP3    H238110   1.504   3.481   3.197
12723TIP3   OH238111   0.994   7.541   1.005
12723TIP3    H138112   0.939   7.566   1.079
12723TIP3    H238113   1.082   7.536   1.041
12724TIP3   OH238114   1.870   7.153   0.109
12724TIP3    H138115   1.957   7.170   0.072
12724TIP3    H238116   1.832   7.085   0.054
12725TIP3   OH238117   2.079   5.442   2.094
12725TIP3    H138118   2.011   5.486   2.143
12725TIP3    H238119   2.054   5.453   2.002
12726TIP3   OH238120   7.436   4.218   5.859
12726TIP3    H138121   7.459   4.258   5.943
12726TIP3    H238122   7.520   4.190   5.822
12727TIP3   OH238123   7.902   7.582   1.943
12727TIP3    H138124   7.821   7.579   1.994
12727TIP3    H238125   7.949   7.502   1.967
12728TIP3   OH238126   1.589   0.250   6.158
12728TIP3    H138127   1.554   0.162   6.169
12728TIP3    H238128   1.512   0.307   6.156
12729TIP3   OH238129   1.557   5.188   3.146
12729TIP3    H138130   1.546   5.185   3.241
12729TIP3    H238131   1.611   5.266   3.131
12730TIP3   OH238132   2.045   4.614   4.163
12730TIP3    H138133   1.955   4.615   4.196
12730TIP3    H238134   2.097   4.581   4.236
12731TIP3   OH238135   4.134   1.793   1.764
12731TIP3    H138136   4.183   1.875   1.768
12731TIP3    H238137   4.198   1.728   1.736
12732TIP3   OH238138   1.757   6.339   1.946
12732TIP3    H138139   1.839   6.369   1.908
12732TIP3    H238140   1.741   6.253   1.906
12733TIP3   OH238141   3.314   6.341   3.694
12733TIP3    H138142   3.323   6.262   3.641
12733TIP3    H238143   3.228   6.375   3.672
12734TIP3   OH238144   0.785   6.467   0.172
12734TIP3    H138145   0.864   6.435   0.216
12734TIP3    H238146   0.713   6.420   0.214
12735TIP3   OH238147   4.873   5.235   2.470
12735TIP3    H138148   4.875   5.292   2.393
12735TIP3    H238149   4.809   5.275   2.529
12736TIP3   OH238150   4.822   0.273   3.577
12736TIP3    H138151   4.873   0.354   3.578
12736TIP3    H238152   4.735   0.298   3.609
12737TIP3   OH238153   7.080   4.642   5.610
12737TIP3    H138154   7.087   4.548   5.599
12737TIP3    H238155   7.048   4.654   5.700
12738TIP3   OH238156   2.317   7.084   4.519
12738TIP3    H138157   2.394   7.094   4.463
12738TIP3    H238158   2.324   6.996   4.555
12739TIP3   OH238159   1.419   6.034   3.076
12739TIP3    H138160   1.489   6.091   3.110
12739TIP3    H238161   1.380   5.996   3.154
12740TIP3   OH238162   2.892   2.446   5.417
12740TIP3    H138163   2.800   2.422   5.408
12740TIP3    H238164   2.898   2.484   5.505
12741TIP3   OH238165   8.114   7.190   4.917
12741TIP3    H138166   8.042   7.240   4.879
12741TIP3    H238167   8.136   7.126   4.849
12742TIP3   OH238168   5.205   0.375   1.543
12742TIP3    H138169   5.278   0.364   1.604
12742TIP3    H238170   5.133   0.408   1.597
12743TIP3   OH238171   1.628   3.736   0.699
12743TIP3    H138172   1.618   3.709   0.607
12743TIP3    H238173   1.668   3.661   0.742
12744TIP3   OH238174   0.929   6.311   1.052
12744TIP3    H138175   0.889   6.301   0.965
12744TIP3    H238176   1.021   6.293   1.037
12745TIP3   OH238177   7.275   5.761   0.401
12745TIP3    H138178   7.301   5.831   0.342
12745TIP3    H238179   7.347   5.753   0.463
12746TIP3   OH238180   0.023   7.376   4.946
12746TIP3    H138181  -0.071   7.390   4.929
12746TIP3    H238182   0.027   7.350   5.038
12747TIP3   OH238183   0.335   7.423   6.689
12747TIP3    H138184   0.295   7.378   6.614
12747TIP3    H238185   0.421   7.451   6.657
12748TIP3   OH238186   6.924   0.974   2.014
12748TIP3    H138187   6.971   0.907   2.062
12748TIP3    H238188   6.936   1.054   2.065
12749TIP3   OH238189   5.847   5.193   0.610
12749TIP3    H138190   5.833   5.104   0.643
12749TIP3    H238191   5.942   5.202   0.604
12750TIP3   OH238192   3.491   0.384   5.594
12750TIP3    H138193   3.407   0.429   5.598
12750TIP3    H238194   3.491   0.339   5.510
12751TIP3   OH238195   2.071   1.742   2.709
12751TIP3    H138196   2.149   1.764   2.658
12751TIP3    H238197   2.079   1.795   2.788
12752TIP3   OH238198   1.150   5.396   1.772
12752TIP3    H138199   1.079   5.368   1.830
12752TIP3    H238200   1.126   5.360   1.686
12753TIP3   OH238201   5.937   7.054   3.083
12753TIP3    H138202   6.024   7.055   3.124
12753TIP3    H238203   5.916   6.961   3.075
12754TIP3   OH238204   3.770   0.023   0.380
12754TIP3    H138205   3.858   0.025   0.342
12754TIP3    H238206   3.759  -0.067   0.410
12755TIP3   OH238207   4.084   4.322   0.795
12755TIP3    H138208   4.024   4.358   0.860
12755TIP3    H238209   4.056   4.231   0.783
12756TIP3   OH238210   2.498   1.674   0.109
12756TIP3    H138211   2.553   1.747   0.083
12756TIP3    H238212   2.492   1.679   0.204
12757TIP3   OH238213   1.261   6.856   2.913
12757TIP3    H138214   1.242   6.902   2.995
12757TIP3    H238215   1.231   6.916   2.844
12758TIP3   OH238216   6.123   2.053   4.241
12758TIP3    H138217   6.120   2.012   4.155
12758TIP3    H238218   6.032   2.074   4.261
12759TIP3   OH238219   4.121   7.020   5.981
12759TIP3    H138220   4.061   7.086   6.016
12759TIP3    H238221   4.128   7.041   5.888
12760TIP3   OH238222   0.761   1.523   5.912
12760TIP3    H138223   0.671   1.509   5.880
12760TIP3    H238224   0.788   1.605   5.870
12761TIP3   OH238225   3.288   5.550   4.418
12761TIP3    H138226   3.336   5.567   4.499
12761TIP3    H238227   3.327   5.608   4.354
12762TIP3   OH238228   3.593   4.380   2.214
12762TIP3    H138229   3.511   4.419   2.245
12762TIP3    H238230   3.650   4.382   2.291
12763TIP3   OH238231   8.228   5.110   3.819
12763TIP3    H138232   8.206   5.017   3.820
12763TIP3    H238233   8.226   5.136   3.911
12764TIP3   OH238234   7.338   6.501   1.755
12764TIP3    H138235   7.351   6.542   1.670
12764TIP3    H238236   7.287   6.422   1.737
12765TIP3   OH238237   5.764   2.537   1.951
12765TIP3    H138238   5.769   2.441   1.948
12765TIP3    H238239   5.764   2.564   1.859
12766TIP3   OH238240   1.327   0.327   4.151
12766TIP3    H138241   1.275   0.311   4.230
12766TIP3    H238242   1.346   0.240   4.116
12767TIP3   OH238243   4.600   5.537   0.461
12767TIP3    H138244   4.685   5.566   0.494
12767TIP3    H238245   4.590   5.584   0.378
12768TIP3   OH238246   3.277   5.314   3.757
12768TIP3    H138247   3.353   5.361   3.792
12768TIP3    H238248   3.258   5.357   3.674
12769TIP3   OH238249   2.425   3.538   5.319
12769TIP3    H138250   2.340   3.495   5.315
12769TIP3    H238251   2.436   3.560   5.411
12770TIP3   OH238252   6.522   3.686   4.876
12770TIP3    H138253   6.500   3.603   4.834
12770TIP3    H238254   6.582   3.663   4.946
12771TIP3   OH238255   1.892   3.215   6.744
12771TIP3    H138256   1.890   3.149   6.674
12771TIP3    H238257   1.804   3.212   6.781
12772TIP3   OH238258   7.639   3.793   0.427
12772TIP3    H138259   7.618   3.862   0.490
12772TIP3    H238260   7.734   3.785   0.430
12773TIP3   OH238261   0.115   1.541   6.195
12773TIP3    H138262   0.159   1.585   6.267
12773TIP3    H238263   0.185   1.521   6.133
12774TIP3   OH238264   4.400   2.137   2.017
12774TIP3    H138265   4.357   2.141   2.102
12774TIP3    H238266   4.420   2.228   1.996
12775TIP3   OH238267   3.110   3.981   3.132
12775TIP3    H138268   3.101   4.064   3.084
12775TIP3    H238269   3.103   4.005   3.224
12776TIP3   OH238270   5.585   6.180   3.653
12776TIP3    H138271   5.621   6.265   3.680
12776TIP3    H238272   5.494   6.199   3.630
12777TIP3   OH238273   6.408   4.144   2.751
12777TIP3    H138274   6.480   4.083   2.765
12777TIP3    H238275   6.449   4.230   2.756
12778TIP3   OH238276   1.860   3.672   6.529
12778TIP3    H138277   1.859   3.588   6.576
12778TIP3    H238278   1.776   3.712   6.551
12779TIP3   OH238279   2.446   6.525   5.472
12779TIP3    H138280   2.415   6.604   5.429
12779TIP3    H238281   2.498   6.480   5.406
12780TIP3   OH238282   0.118   7.030   3.953
12780TIP3    H138283   0.051   7.098   3.950
12780TIP3    H238284   0.143   7.025   4.045
12781TIP3   OH238285   4.887   2.740   5.041
12781TIP3    H138286   4.881   2.809   5.107
12781TIP3    H238287   4.861   2.660   5.087
12782TIP3   OH238288   2.412   3.955   3.004
12782TIP3    H138289   2.441   3.937   2.914
12782TIP3    H238290   2.321   3.982   2.994
12783TIP3   OH238291   0.896   2.139   1.407
12783TIP3    H138292   0.863   2.124   1.319
12783TIP3    H238293   0.992   2.133   1.398
12784TIP3   OH238294   6.229   6.012   0.166
12784TIP3    H138295   6.230   6.022   0.071
12784TIP3    H238296   6.151   5.959   0.184
12785TIP3   OH238297   8.223   5.220  -0.030
12785TIP3    H138298   8.131   5.246  -0.026
12785TIP3    H238299   8.235   5.162   0.045
12786TIP3   OH238300   0.878   6.457   0.802
12786TIP3    H138301   0.969   6.435   0.821
12786TIP3    H238302   0.884   6.524   0.733
12787TIP3   OH238303   7.936   1.723   1.994
12787TIP3    H138304   7.966   1.678   2.073
12787TIP3    H238305   7.954   1.816   2.011
12788TIP3   OH238306   6.023   1.154   4.090
12788TIP3    H138307   6.079   1.223   4.125
12788TIP3    H238308   6.057   1.074   4.130
12789TIP3   OH238309   4.347   2.257   3.383
12789TIP3    H138310   4.367   2.204   3.306
12789TIP3    H238311   4.388   2.211   3.456
12790TIP3   OH238312   5.457   3.976   4.834
12790TIP3    H138313   5.523   3.996   4.900
12790TIP3    H238314   5.377   3.961   4.883
12791TIP3   OH238315   1.141   4.165   3.734
12791TIP3    H138316   1.053   4.135   3.713
12791TIP3    H238317   1.140   4.259   3.714
12792TIP3   OH238318   3.010   2.921   3.441
12792TIP3    H138319   3.049   2.959   3.519
12792TIP3    H238320   3.043   2.973   3.368
12793TIP3   OH238321   4.831   5.304   0.665
12793TIP3    H138322   4.914   5.353   0.670
12793TIP3    H238323   4.828   5.272   0.575
12794TIP3   OH238324   3.626   0.068   1.482
12794TIP3    H138325   3.684   0.021   1.543
12794TIP3    H238326   3.679   0.082   1.404
12795TIP3   OH238327   8.244   0.357   1.520
12795TIP3    H138328   8.218   0.439   1.479
12795TIP3    H238329   8.283   0.382   1.603
12796TIP3   OH238330   7.154   1.582   2.671
12796TIP3    H138331   7.145   1.658   2.728
12796TIP3    H238332   7.186   1.618   2.588
12797TIP3   OH238333   6.058   2.353   4.393
12797TIP3    H138334   6.148   2.383   4.385
12797TIP3    H238335   6.016   2.417   4.450
12798TIP3   OH238336   3.793   3.543   4.546
12798TIP3    H138337   3.779   3.456   4.510
12798TIP3    H238338   3.790   3.601   4.470
12799TIP3   OH238339   8.041   1.936   4.355
12799TIP3    H138340   8.085   1.888   4.285
12799TIP3    H238341   8.077   1.899   4.436
12800TIP3   OH238342   5.056   6.943   6.215
12800TIP3    H138343   5.020   6.887   6.284
12800TIP3    H238344   5.111   6.885   6.163
12801TIP3   OH238345   5.122   0.114   1.452
12801TIP3    H138346   5.046   0.137   1.399
12801TIP3    H238347   5.154   0.199   1.486
12802TIP3   OH238348   8.029   5.494   3.816
12802TIP3    H138349   8.084   5.492   3.737
12802TIP3    H238350   8.049   5.577   3.858
12803TIP3   OH238351   7.949   0.236   0.276
12803TIP3    H138352   8.000   0.173   0.226
12803TIP3    H238353   7.875   0.258   0.220
12804TIP3   OH238354   3.534   6.807   5.049
12804TIP3    H138355   3.476   6.865   5.098
12804TIP3    H238356   3.522   6.832   4.958
12805TIP3   OH238357   0.165   4.297   6.553
12805TIP3    H138358   0.084   4.299   6.501
12805TIP3    H238359   0.194   4.388   6.555
12806TIP3   OH238360   1.949   5.228   5.987
12806TIP3    H138361   2.006   5.279   6.044
12806TIP3    H238362   1.867   5.221   6.035
12807TIP3   OH238363   0.946   0.244   4.137
12807TIP3    H138364   1.000   0.199   4.203
12807TIP3    H238365   0.865   0.266   4.182
12808TIP3   OH238366   4.667   5.045   2.782
12808TIP3    H138367   4.599   5.080   2.839
12808TIP3    H238368   4.632   4.960   2.753
12809TIP3   OH238369   7.144   3.707   5.559
12809TIP3    H138370   7.228   3.684   5.599
12809TIP3    H238371   7.130   3.798   5.583
12810TIP3   OH238372   2.489   2.432   5.142
12810TIP3    H138373   2.398   2.456   5.130
12810TIP3    H238374   2.513   2.466   5.228
12811TIP3   OH238375   2.787   4.007   4.344
12811TIP3    H138376   2.831   3.942   4.399
12811TIP3    H238377   2.799   4.090   4.391
12812TIP3   OH238378   1.389   5.842   0.855
12812TIP3    H138379   1.441   5.800   0.787
12812TIP3    H238380   1.300   5.845   0.818
12813TIP3   OH238381   3.873   6.658   0.069
12813TIP3    H138382   3.854   6.741   0.113
12813TIP3    H238383   3.896   6.683  -0.020
12814TIP3   OH238384   1.261   3.350   2.622
12814TIP3    H138385   1.348   3.331   2.586
12814TIP3    H238386   1.203   3.343   2.547
12815TIP3   OH238387   0.762   0.929   0.841
12815TIP3    H138388   0.856   0.923   0.857
12815TIP3    H238389   0.753   0.913   0.747
12816TIP3   OH238390   8.236   2.825   3.930
12816TIP3    H138391   8.281   2.815   4.014
12816TIP3    H238392   8.235   2.919   3.915
12817TIP3   OH238393   6.235   3.177   5.696
12817TIP3    H138394   6.262   3.235   5.625
12817TIP3    H238395   6.246   3.229   5.775
12818TIP3   OH238396   4.190   7.737   2.042
12818TIP3    H138397   4.171   7.732   2.135
12818TIP3    H238398   4.121   7.792   2.005
12819TIP3   OH238399   0.491   6.935   4.490
12819TIP3    H138400   0.538   6.959   4.411
12819TIP3    H238401   0.493   7.015   4.544
12820TIP3   OH238402   8.223   6.878   5.295
12820TIP3    H138403   8.170   6.940   5.245
12820TIP3    H238404   8.313   6.899   5.273
12821TIP3   OH238405   3.338   7.177   4.944
12821TIP3    H138406   3.292   7.160   4.862
12821TIP3    H238407   3.429   7.193   4.917
12822TIP3   OH238408   0.798   3.384   3.433
12822TIP3    H138409   0.764   3.298   3.407
12822TIP3    H238410   0.849   3.367   3.512
12823TIP3   OH238411   8.100   4.241   2.125
12823TIP3    H138412   8.191   4.247   2.096
12823TIP3    H238413   8.066   4.330   2.116
12824TIP3   OH238414   6.667   5.520   4.715
12824TIP3    H138415   6.699   5.602   4.751
12824TIP3    H238416   6.717   5.507   4.635
12825TIP3   OH238417   1.350   1.561   3.013
12825TIP3    H138418   1.424   1.542   2.956
12825TIP3    H238419   1.372   1.646   3.053
12826TIP3   OH238420   6.266   6.690   0.494
12826TIP3    H138421   6.291   6.753   0.427
12826TIP3    H238422   6.341   6.687   0.554
12827TIP3   OH238423   0.865   1.113   1.541
12827TIP3    H138424   0.842   1.164   1.619
12827TIP3    H238425   0.952   1.078   1.560
12828TIP3   OH238426   2.984   0.888   4.322
12828TIP3    H138427   2.907   0.843   4.358
12828TIP3    H238428   2.981   0.976   4.361
12829TIP3   OH238429   3.009   3.123   5.995
12829TIP3    H138430   2.926   3.077   6.011
12829TIP3    H238431   3.060   3.060   5.943
12830TIP3   OH238432   5.134   0.994   6.394
12830TIP3    H138433   5.169   1.082   6.411
12830TIP3    H238434   5.211   0.941   6.374
12831TIP3   OH238435   6.145   4.089   0.962
12831TIP3    H138436   6.059   4.130   0.953
12831TIP3    H238437   6.148   4.057   1.052
12832TIP3   OH238438   6.746   6.836   0.873
12832TIP3    H138439   6.670   6.857   0.927
12832TIP3    H238440   6.723   6.865   0.785
12833TIP3   OH238441   4.498   7.465   5.209
12833TIP3    H138442   4.449   7.547   5.209
12833TIP3    H238443   4.471   7.422   5.128
12834TIP3   OH238444   4.594   6.153   5.338
12834TIP3    H138445   4.605   6.139   5.244
12834TIP3    H238446   4.675   6.123   5.378
12835TIP3   OH238447   7.377   2.411   2.282
12835TIP3    H138448   7.427   2.387   2.360
12835TIP3    H238449   7.426   2.485   2.245
12836TIP3   OH238450   2.085   3.008   2.222
12836TIP3    H138451   2.031   3.060   2.163
12836TIP3    H238452   2.172   3.009   2.182
12837TIP3   OH238453   6.633   5.113   2.690
12837TIP3    H138454   6.616   5.207   2.693
12837TIP3    H238455   6.719   5.106   2.649
12838TIP3   OH238456   4.188   0.874   5.693
12838TIP3    H138457   4.191   0.969   5.691
12838TIP3    H238458   4.094   0.853   5.689
12839TIP3   OH238459   2.584   0.431   2.378
12839TIP3    H138460   2.621   0.518   2.361
12839TIP3    H238461   2.489   0.447   2.386
12840TIP3   OH238462   0.750   4.639   3.691
12840TIP3    H138463   0.691   4.655   3.765
12840TIP3    H238464   0.746   4.720   3.640
12841TIP3   OH238465   1.217   7.611   6.650
12841TIP3    H138466   1.138   7.628   6.700
12841TIP3    H238467   1.197   7.531   6.601
12842TIP3   OH238468   0.907   3.783   4.846
12842TIP3    H138469   0.901   3.788   4.751
12842TIP3    H238470   0.930   3.872   4.873
12843TIP3   OH238471   0.974   6.540   3.162
12843TIP3    H138472   0.947   6.627   3.190
12843TIP3    H238473   0.920   6.522   3.085
12844TIP3   OH238474   2.390   1.055   2.976
12844TIP3    H138475   2.470   1.086   2.933
12844TIP3    H238476   2.333   1.029   2.905
12845TIP3   OH238477   2.935   5.026   5.992
12845TIP3    H138478   2.946   5.097   6.056
12845TIP3    H238479   2.996   5.048   5.922
12846TIP3   OH238480   7.911   2.914   1.333
12846TIP3    H138481   7.942   2.826   1.353
12846TIP3    H238482   7.966   2.944   1.261
12847TIP3   OH238483   1.894   6.505   0.396
12847TIP3    H138484   1.978   6.470   0.365
12847TIP3    H238485   1.917   6.557   0.474
12848TIP3   OH238486   0.129   7.383   5.781
12848TIP3    H138487   0.153   7.292   5.761
12848TIP3    H238488   0.170   7.435   5.712
12849TIP3   OH238489   6.732   2.446   3.302
12849TIP3    H138490   6.645   2.463   3.336
12849TIP3    H238491   6.718   2.428   3.209
12850TIP3   OH238492   4.007   3.670   1.812
12850TIP3    H138493   3.921   3.688   1.849
12850TIP3    H238494   4.062   3.650   1.887
12851TIP3   OH238495   6.626   4.107   6.112
12851TIP3    H138496   6.681   4.153   6.175
12851TIP3    H238497   6.552   4.166   6.097
12852TIP3   OH238498   0.271   1.276   1.706
12852TIP3    H138499   0.207   1.211   1.734
12852TIP3    H238500   0.356   1.239   1.731
12853TIP3   OH238501   4.095   1.597   6.728
12853TIP3    H138502   4.115   1.642   6.810
12853TIP3    H238503   4.078   1.507   6.753
12854TIP3   OH238504   6.516   0.153   4.052
12854TIP3    H138505   6.478   0.076   4.008
12854TIP3    H238506   6.608   0.130   4.065
12855TIP3   OH238507   0.629   1.309   2.999
12855TIP3    H138508   0.683   1.275   2.928
12855TIP3    H238509   0.539   1.288   2.973
12856TIP3   OH238510   6.918   3.614   4.284
12856TIP3    H138511   7.004   3.572   4.285
12856TIP3    H238512   6.922   3.675   4.209
12857TIP3   OH238513   5.247   6.011   4.591
12857TIP3    H138514   5.189   5.947   4.549
12857TIP3    H238515   5.335   5.975   4.578
12858TIP3   OH238516   6.667   2.946   4.467
12858TIP3    H138517   6.745   2.984   4.508
12858TIP3    H238518   6.605   3.018   4.460
12859TIP3   OH238519   7.063   6.194   4.997
12859TIP3    H138520   7.109   6.131   4.941
12859TIP3    H238521   7.117   6.274   4.992
12860TIP3   OH238522   8.297   6.225   3.218
12860TIP3    H138523   8.299   6.245   3.124
12860TIP3    H238524   8.205   6.235   3.242
12861TIP3   OH238525   1.877   0.175   2.495
12861TIP3    H138526   1.834   0.250   2.535
12861TIP3    H238527   1.805   0.119   2.465
12862TIP3   OH238528   4.656   0.051   3.847
12862TIP3    H138529   4.605   0.132   3.854
12862TIP3    H238530   4.593  -0.014   3.817
12863TIP3   OH238531   4.430   6.649   6.308
12863TIP3    H138532   4.382   6.597   6.243
12863TIP3    H238533   4.408   6.610   6.392
12864TIP3   OH238534   0.030   2.893   0.598
12864TIP3    H138535   0.082   2.969   0.573
12864TIP3    H238536  -0.027   2.878   0.523
12865TIP3   OH238537   1.854   3.955   1.976
12865TIP3    H138538   1.939   3.974   1.936
12865TIP3    H238539   1.827   4.038   2.015
12866TIP3   OH238540   3.722   3.091   2.182
12866TIP3    H138541   3.727   3.138   2.099
12866TIP3    H238542   3.739   3.158   2.248
12867TIP3   OH238543   1.251   3.969   1.723
12867TIP3    H138544   1.204   4.007   1.649
12867TIP3    H238545   1.237   3.875   1.714
12868TIP3   OH238546   3.031   3.457   3.981
12868TIP3    H138547   3.093   3.391   4.013
12868TIP3    H238548   2.952   3.408   3.961
12869TIP3   OH238549   5.980   5.506   5.194
12869TIP3    H138550   6.072   5.521   5.173
12869TIP3    H238551   5.937   5.493   5.109
12870TIP3   OH238552   4.763   1.717   3.066
12870TIP3    H138553   4.740   1.644   3.008
12870TIP3    H238554   4.851   1.742   3.039
12871TIP3   OH238555   0.988   3.945   2.752
12871TIP3    H138556   1.009   3.995   2.673
12871TIP3    H238557   0.896   3.966   2.769
12872TIP3   OH238558   2.418   7.260   3.026
12872TIP3    H138559   2.419   7.354   3.010
12872TIP3    H238560   2.356   7.225   2.962
12873TIP3   OH238561   6.610   2.940   1.663
12873TIP3    H138562   6.543   2.984   1.715
12873TIP3    H238563   6.679   3.005   1.652
12874TIP3   OH238564   2.786   0.728   6.032
12874TIP3    H138565   2.876   0.736   6.065
12874TIP3    H238566   2.736   0.792   6.084
12875TIP3   OH238567   7.093   6.077   0.418
12875TIP3    H138568   7.102   6.026   0.338
12875TIP3    H238569   7.150   6.034   0.481
12876TIP3   OH238570   0.058   6.749   4.273
12876TIP3    H138571   0.065   6.708   4.360
12876TIP3    H238572   0.139   6.799   4.264
12877TIP3   OH238573   2.072   0.191   1.248
12877TIP3    H138574   2.064   0.206   1.154
12877TIP3    H238575   1.983   0.172   1.277
12878TIP3   OH238576   4.187   4.752   5.550
12878TIP3    H138577   4.229   4.752   5.636
12878TIP3    H238578   4.200   4.841   5.518
12879TIP3   OH238579   3.454   3.028   2.447
12879TIP3    H138580   3.491   3.057   2.530
12879TIP3    H238581   3.438   3.108   2.398
12880TIP3   OH238582   6.257   1.057   3.253
12880TIP3    H138583   6.191   1.064   3.184
12880TIP3    H238584   6.250   0.967   3.285
12881TIP3   OH238585   6.377   1.490   1.402
12881TIP3    H138586   6.462   1.534   1.402
12881TIP3    H238587   6.395   1.404   1.439
12882TIP3   OH238588   1.928   3.978   6.483
12882TIP3    H138589   1.950   3.911   6.548
12882TIP3    H238590   1.878   3.930   6.416
12883TIP3   OH238591   3.983   4.645   0.208
12883TIP3    H138592   3.905   4.614   0.254
12883TIP3    H238593   4.056   4.621   0.264
12884TIP3   OH238594   8.168   7.186   4.454
12884TIP3    H138595   8.264   7.181   4.457
12884TIP3    H238596   8.139   7.097   4.476
12885TIP3   OH238597   1.153   1.203   3.249
12885TIP3    H138598   1.073   1.164   3.212
12885TIP3    H238599   1.166   1.157   3.332
12886TIP3   OH238600   3.830   2.121   3.527
12886TIP3    H138601   3.862   2.049   3.581
12886TIP3    H238602   3.909   2.173   3.508
12887TIP3   OH238603   3.126   1.612   0.018
12887TIP3    H138604   3.112   1.519   0.003
12887TIP3    H238605   3.041   1.652   0.004
12888TIP3   OH238606   0.515   3.729   5.356
12888TIP3    H138607   0.443   3.783   5.389
12888TIP3    H238608   0.475   3.675   5.288
12889TIP3   OH238609   5.133   7.141   0.643
12889TIP3    H138610   5.060   7.132   0.582
12889TIP3    H238611   5.208   7.162   0.588
12890TIP3   OH238612   1.606   7.690   2.282
12890TIP3    H138613   1.649   7.674   2.198
12890TIP3    H238614   1.514   7.669   2.266
12891TIP3   OH238615   2.776   4.399   6.504
12891TIP3    H138616   2.757   4.389   6.410
12891TIP3    H238617   2.871   4.404   6.508
12892TIP3   OH238618   1.644   7.717   3.465
12892TIP3    H138619   1.628   7.741   3.374
12892TIP3    H238620   1.666   7.624   3.461
12893TIP3   OH238621   7.805   2.313   3.447
12893TIP3    H138622   7.780   2.256   3.520
12893TIP3    H238623   7.840   2.392   3.490
12894TIP3   OH238624   3.451   7.383   0.144
12894TIP3    H138625   3.500   7.459   0.112
12894TIP3    H238626   3.359   7.405   0.128
12895TIP3   OH238627   6.993   5.750   0.446
12895TIP3    H138628   6.973   5.820   0.509
12895TIP3    H238629   7.088   5.745   0.444
12896TIP3   OH238630   2.932   3.818   4.493
12896TIP3    H138631   2.889   3.733   4.482
12896TIP3    H238632   2.927   3.836   4.587
12897TIP3   OH238633   6.663   2.881   3.617
12897TIP3    H138634   6.653   2.807   3.677
12897TIP3    H238635   6.696   2.842   3.536
12898TIP3   OH238636   6.057   1.795   6.306
12898TIP3    H138637   6.099   1.709   6.304
12898TIP3    H238638   6.049   1.815   6.399
12899TIP3   OH238639   0.812   4.654   5.021
12899TIP3    H138640   0.908   4.656   5.021
12899TIP3    H238641   0.787   4.685   5.108
12900TIP3   OH238642   6.425   6.502   3.512
12900TIP3    H138643   6.428   6.593   3.542
12900TIP3    H238644   6.435   6.450   3.591
12901TIP3   OH238645   3.315   5.661   0.486
12901TIP3    H138646   3.311   5.622   0.399
12901TIP3    H238647   3.308   5.755   0.470
12902TIP3   OH238648   7.906   2.476   0.088
12902TIP3    H138649   7.975   2.497   0.151
12902TIP3    H238650   7.951   2.434   0.015
12903TIP3   OH238651   4.606   6.618   2.517
12903TIP3    H138652   4.568   6.705   2.530
12903TIP3    H238653   4.536   6.567   2.477
12904TIP3   OH238654   2.362   6.062   5.729
12904TIP3    H138655   2.284   6.052   5.675
12904TIP3    H238656   2.432   6.080   5.666
12905TIP3   OH238657   7.274   0.937   1.689
12905TIP3    H138658   7.328   0.872   1.645
12905TIP3    H238659   7.187   0.927   1.650
12906TIP3   OH238660   0.297   7.411   1.523
12906TIP3    H138661   0.352   7.436   1.448
12906TIP3    H238662   0.321   7.473   1.592
12907TIP3   OH238663   5.504   4.475   4.038
12907TIP3    H138664   5.513   4.408   3.970
12907TIP3    H238665   5.438   4.439   4.098
12908TIP3   OH238666   0.120   5.310   5.587
12908TIP3    H138667   0.078   5.224   5.582
12908TIP3    H238668   0.109   5.336   5.678
12909TIP3   OH238669   8.106   7.029   3.452
12909TIP3    H138670   8.199   7.021   3.430
12909TIP3    H238671   8.075   6.938   3.461
12910TIP3   OH238672   3.944   2.571   2.606
12910TIP3    H138673   3.942   2.630   2.681
12910TIP3    H238674   4.017   2.604   2.553
12911TIP3   OH238675   6.206   2.988   6.470
12911TIP3    H138676   6.230   2.948   6.554
12911TIP3    H238677   6.175   2.915   6.416
12912TIP3   OH238678   6.619   6.078   2.015
12912TIP3    H138679   6.575   5.994   2.022
12912TIP3    H238680   6.672   6.084   2.095
12913TIP3   OH238681   3.064   1.005   0.283
12913TIP3    H138682   2.988   0.948   0.295
12913TIP3    H238683   3.043   1.056   0.205
12914TIP3   OH238684   4.456   6.141   0.951
12914TIP3    H138685   4.506   6.125   0.871
12914TIP3    H238686   4.373   6.096   0.937
12915TIP3   OH238687   1.356   4.009   3.840
12915TIP3    H138688   1.267   4.031   3.813
12915TIP3    H238689   1.347   3.929   3.892
12916TIP3   OH238690   4.524   1.416   0.607
12916TIP3    H138691   4.540   1.349   0.674
12916TIP3    H238692   4.543   1.499   0.650
12917TIP3   OH238693   7.838   5.923   0.686
12917TIP3    H138694   7.819   6.000   0.633
12917TIP3    H238695   7.791   5.852   0.642
12918TIP3   OH238696   0.404   3.718   0.946
12918TIP3    H138697   0.411   3.724   1.041
12918TIP3    H238698   0.457   3.641   0.923
12919TIP3   OH238699   3.457   4.102   4.168
12919TIP3    H138700   3.508   4.094   4.088
12919TIP3    H238701   3.522   4.116   4.237
12920TIP3   OH238702   6.446   6.032   4.286
12920TIP3    H138703   6.457   6.069   4.373
12920TIP3    H238704   6.352   6.026   4.274
12921TIP3   OH238705   4.835   5.896   2.140
12921TIP3    H138706   4.847   5.806   2.108
12921TIP3    H238707   4.842   5.950   2.062
12922TIP3   OH238708   0.537   5.930   2.363
12922TIP3    H138709   0.533   6.015   2.406
12922TIP3    H238710   0.503   5.869   2.428
12923TIP3   OH238711   4.493   3.380   4.229
12923TIP3    H138712   4.575   3.349   4.269
12923TIP3    H238713   4.514   3.465   4.192
12924TIP3   OH238714   4.184   1.380   0.467
12924TIP3    H138715   4.236   1.306   0.498
12924TIP3    H238716   4.096   1.363   0.499
12925TIP3   OH238717   3.317   7.151   2.912
12925TIP3    H138718   3.350   7.164   3.001
12925TIP3    H238719   3.233   7.197   2.911
12926TIP3   OH238720   4.406   2.740   1.486
12926TIP3    H138721   4.452   2.776   1.561
12926TIP3    H238722   4.350   2.812   1.456
12927TIP3   OH238723   5.491   0.901   3.197
12927TIP3    H138724   5.429   0.829   3.203
12927TIP3    H238725   5.437   0.980   3.207
12928TIP3   OH238726   7.015   3.764   2.953
12928TIP3    H138727   6.956   3.694   2.926
12928TIP3    H238728   7.031   3.748   3.046
12929TIP3   OH238729   6.595   5.194   0.322
12929TIP3    H138730   6.638   5.199   0.237
12929TIP3    H238731   6.555   5.281   0.334
12930TIP3   OH238732   7.340   6.957   6.325
12930TIP3    H138733   7.406   7.026   6.332
12930TIP3    H238734   7.260   7.002   6.298
12931TIP3   OH238735   5.653   2.938   0.784
12931TIP3    H138736   5.671   3.003   0.852
12931TIP3    H238737   5.595   2.875   0.827
12932TIP3   OH238738   5.443   7.806   2.589
12932TIP3    H138739   5.477   7.896   2.582
12932TIP3    H238740   5.504   7.762   2.649
12933TIP3   OH238741   8.197   4.053   5.603
12933TIP3    H138742   8.217   4.012   5.687
12933TIP3    H238743   8.155   3.984   5.552
12934TIP3   OH238744   6.598   3.393   4.888
12934TIP3    H138745   6.673   3.338   4.869
12934TIP3    H238746   6.569   3.365   4.976
12935TIP3   OH238747   3.609   5.718   6.656
12935TIP3    H138748   3.643   5.785   6.716
12935TIP3    H238749   3.608   5.638   6.708
12936TIP3   OH238750   5.935   6.463   1.357
12936TIP3    H138751   5.932   6.505   1.443
12936TIP3    H238752   5.845   6.435   1.341
12937TIP3   OH238753   0.612   3.214   4.431
12937TIP3    H138754   0.681   3.250   4.376
12937TIP3    H238755   0.657   3.184   4.510
12938TIP3   OH238756   6.816   2.712   3.875
12938TIP3    H138757   6.727   2.705   3.841
12938TIP3    H238758   6.831   2.629   3.920
12939TIP3   OH238759   5.656   5.609   6.710
12939TIP3    H138760   5.638   5.620   6.617
12939TIP3    H238761   5.585   5.552   6.741
12940TIP3   OH238762   2.834   4.911   1.949
12940TIP3    H138763   2.772   4.983   1.947
12940TIP3    H238764   2.910   4.944   1.901
12941TIP3   OH238765   3.009   7.033   6.403
12941TIP3    H138766   2.969   7.113   6.435
12941TIP3    H238767   3.078   7.013   6.466
12942TIP3   OH238768   1.387   4.497   4.493
12942TIP3    H138769   1.376   4.586   4.526
12942TIP3    H238770   1.335   4.443   4.553
12943TIP3   OH238771   1.919   0.293   4.416
12943TIP3    H138772   2.009   0.322   4.431
12943TIP3    H238773   1.877   0.368   4.374
12944TIP3   OH238774   4.115   6.914   4.547
12944TIP3    H138775   4.184   6.970   4.514
12944TIP3    H238776   4.077   6.962   4.621
12945TIP3   OH238777   2.466   2.012   2.702
12945TIP3    H138778   2.379   2.048   2.719
12945TIP3    H238779   2.499   2.062   2.627
12946TIP3   OH238780   4.308   5.549   0.275
12946TIP3    H138781   4.345   5.461   0.280
12946TIP3    H238782   4.241   5.543   0.206
12947TIP3   OH238783   8.080   2.222   4.332
12947TIP3    H138784   8.025   2.260   4.263
12947TIP3    H238785   8.052   2.131   4.339
12948TIP3   OH238786   1.692   1.712   3.958
12948TIP3    H138787   1.644   1.761   3.891
12948TIP3    H238788   1.709   1.776   4.027
12949TIP3   OH238789   5.656   1.850   5.734
12949TIP3    H138790   5.751   1.865   5.734
12949TIP3    H238791   5.618   1.937   5.749
12950TIP3   OH238792   3.772   1.419   5.901
12950TIP3    H138793   3.824   1.439   5.823
12950TIP3    H238794   3.777   1.324   5.910
12951TIP3   OH238795   0.526   7.060   2.984
12951TIP3    H138796   0.449   7.048   3.039
12951TIP3    H238797   0.524   7.152   2.958
12952TIP3   OH238798   3.688   5.893   3.878
12952TIP3    H138799   3.611   5.851   3.917
12952TIP3    H238800   3.712   5.961   3.941
12953TIP3   OH238801   0.906   0.222   2.077
12953TIP3    H138802   0.829   0.273   2.101
12953TIP3    H238803   0.873   0.156   2.016
12954TIP3   OH238804   5.748   1.864   0.516
12954TIP3    H138805   5.669   1.874   0.463
12954TIP3    H238806   5.756   1.770   0.530
12955TIP3   OH238807   4.370   4.898   4.050
12955TIP3    H138808   4.411   4.972   4.004
12955TIP3    H238809   4.282   4.929   4.070
12956TIP3   OH238810   2.501   7.043   4.298
12956TIP3    H138811   2.527   7.101   4.227
12956TIP3    H238812   2.575   6.983   4.308
12957TIP3   OH238813   1.525   4.674   0.444
12957TIP3    H138814   1.470   4.694   0.520
12957TIP3    H238815   1.518   4.579   0.435
12958TIP3   OH238816   1.433   0.824   0.958
12958TIP3    H138817   1.380   0.755   0.918
12958TIP3    H238818   1.426   0.898   0.897
12959TIP3   OH238819   7.698   4.814   5.812
12959TIP3    H138820   7.673   4.722   5.824
12959TIP3    H238821   7.647   4.842   5.735
12960TIP3   OH238822   0.328   4.537   1.059
12960TIP3    H138823   0.250   4.590   1.076
12960TIP3    H238824   0.293   4.450   1.038
12961TIP3   OH238825   1.150   0.360   2.406
12961TIP3    H138826   1.162   0.350   2.312
12961TIP3    H238827   1.158   0.271   2.441
12962TIP3   OH238828   3.817   1.430   6.282
12962TIP3    H138829   3.802   1.503   6.222
12962TIP3    H238830   3.752   1.364   6.257
12963TIP3   OH238831   7.015   2.290   6.008
12963TIP3    H138832   6.936   2.342   6.020
12963TIP3    H238833   7.030   2.248   6.092
12964TIP3   OH238834   2.486   1.124   4.089
12964TIP3    H138835   2.577   1.095   4.085
12964TIP3    H238836   2.445   1.086   4.012
12965TIP3   OH238837   3.970   7.801   5.620
12965TIP3    H138838   3.975   7.734   5.688
12965TIP3    H238839   3.877   7.824   5.615
12966TIP3   OH238840   7.692   5.671   1.899
12966TIP3    H138841   7.696   5.765   1.917
12966TIP3    H238842   7.776   5.636   1.929
12967TIP3   OH238843   7.666   3.100   1.367
12967TIP3    H138844   7.600   3.038   1.335
12967TIP3    H238845   7.747   3.073   1.324
12968TIP3   OH238846   5.781   0.888   3.287
12968TIP3    H138847   5.838   0.917   3.358
12968TIP3    H238848   5.693   0.909   3.316
12969TIP3   OH238849   1.281   6.067   0.419
12969TIP3    H138850   1.230   6.023   0.351
12969TIP3    H238851   1.220   6.131   0.456
12970TIP3   OH238852   3.147   0.612   1.436
12970TIP3    H138853   3.138   0.647   1.524
12970TIP3    H238854   3.193   0.529   1.448
12971TIP3   OH238855   1.078   4.281   0.714
12971TIP3    H138856   1.089   4.189   0.691
12971TIP3    H238857   1.154   4.302   0.769
12972TIP3   OH238858   6.988   7.365   4.969
12972TIP3    H138859   6.978   7.276   4.935
12972TIP3    H238860   6.992   7.355   5.064
12973TIP3   OH238861   7.071   5.737   4.726
12973TIP3    H138862   7.070   5.653   4.771
12973TIP3    H238863   7.125   5.722   4.648
12974TIP3   OH238864   5.563   3.182   3.197
12974TIP3    H138865   5.604   3.098   3.222
12974TIP3    H238866   5.475   3.177   3.234
12975TIP3   OH238867   4.283   6.630   3.661
12975TIP3    H138868   4.375   6.618   3.639
12975TIP3    H238869   4.270   6.575   3.738
12976TIP3   OH238870   3.858   0.664   2.246
12976TIP3    H138871   3.783   0.703   2.292
12976TIP3    H238872   3.841   0.682   2.154
12977TIP3   OH238873   1.366   3.514   4.283
12977TIP3    H138874   1.303   3.443   4.294
12977TIP3    H238875   1.318   3.581   4.234
12978TIP3   OH238876   3.715   1.198   0.153
12978TIP3    H138877   3.763   1.277   0.128
12978TIP3    H238878   3.657   1.180   0.079
12979TIP3   OH238879   4.708   2.828   2.637
12979TIP3    H138880   4.649   2.845   2.564
12979TIP3    H238881   4.772   2.766   2.603
12980TIP3   OH238882   4.873   1.159   5.446
12980TIP3    H138883   4.829   1.075   5.461
12980TIP3    H238884   4.911   1.150   5.359
12981TIP3   OH238885   3.103   5.539   5.950
12981TIP3    H138886   3.038   5.484   5.994
12981TIP3    H238887   3.055   5.583   5.880
12982TIP3   OH238888   1.850   0.080   6.213
12982TIP3    H138889   1.765   0.099   6.172
12982TIP3    H238890   1.827   0.028   6.290
12983TIP3   OH238891   5.677   3.441   1.677
12983TIP3    H138892   5.719   3.526   1.667
12983TIP3    H238893   5.602   3.457   1.734
12984TIP3   OH238894   3.829   4.653   3.102
12984TIP3    H138895   3.752   4.654   3.046
12984TIP3    H238896   3.859   4.744   3.104
12985TIP3   OH238897   7.260   4.475   6.226
12985TIP3    H138898   7.233   4.561   6.194
12985TIP3    H238899   7.354   4.485   6.243
12986TIP3   OH238900   4.818   5.662   0.540
12986TIP3    H138901   4.896   5.608   0.555
12986TIP3    H238902   4.841   5.716   0.465
12987TIP3   OH238903   5.060   6.245   1.956
12987TIP3    H138904   5.045   6.173   1.895
12987TIP3    H238905   5.057   6.205   2.043
12988TIP3   OH238906   2.959   5.721   1.467
12988TIP3    H138907   2.891   5.680   1.413
12988TIP3    H238908   3.042   5.692   1.427
12989TIP3   OH238909   0.825   3.245  -0.055
12989TIP3    H138910   0.820   3.151  -0.037
12989TIP3    H238911   0.748   3.282  -0.013
12990TIP3   OH238912   7.221   5.027   5.820
12990TIP3    H138913   7.164   5.094   5.858
12990TIP3    H238914   7.308   5.050   5.853
12991TIP3   OH238915   3.839   4.673   0.450
12991TIP3    H138916   3.814   4.755   0.491
12991TIP3    H238917   3.920   4.647   0.495
12992TIP3   OH238918   4.076   6.017   6.579
12992TIP3    H138919   4.075   6.012   6.483
12992TIP3    H238920   4.152   5.965   6.605
12993TIP3   OH238921   1.784   7.048   6.755
12993TIP3    H138922   1.824   7.132   6.780
12993TIP3    H238923   1.854   7.002   6.708
12994TIP3   OH238924   6.027   1.706   1.981
12994TIP3    H138925   6.034   1.612   1.968
12994TIP3    H238926   5.973   1.737   1.909
12995TIP3   OH238927   8.185   5.784   2.865
12995TIP3    H138928   8.254   5.830   2.818
12995TIP3    H238929   8.211   5.692   2.863
12996TIP3   OH238930   6.319   2.562   0.557
12996TIP3    H138931   6.299   2.597   0.644
12996TIP3    H238932   6.407   2.593   0.538
12997TIP3   OH238933   5.365   2.001   2.442
12997TIP3    H138934   5.419   2.010   2.362
12997TIP3    H238935   5.345   1.908   2.447
12998TIP3   OH238936   1.595   4.969   0.167
12998TIP3    H138937   1.661   4.950   0.101
12998TIP3    H238938   1.634   4.938   0.249
12999TIP3   OH238939   7.565   3.768   1.077
12999TIP3    H138940   7.486   3.823   1.077
12999TIP3    H238941   7.534   3.683   1.109
13000TIP3   OH238942   6.609   4.476   2.323
13000TIP3    H138943   6.529   4.514   2.359
13000TIP3    H238944   6.673   4.484   2.393
13001TIP3   OH238945   0.880   6.325   1.321
13001TIP3    H138946   0.905   6.314   1.229
13001TIP3    H238947   0.947   6.276   1.370
13002TIP3   OH238948   4.744   5.849   4.657
13002TIP3    H138949   4.704   5.775   4.703
13002TIP3    H238950   4.836   5.848   4.685
13003TIP3   OH238951   8.286   4.946   2.791
13003TIP3    H138952   8.287   4.854   2.766
13003TIP3    H238953   8.198   4.961   2.824
13004TIP3   OH238954   1.087   2.077   3.625
13004TIP3    H138955   0.992   2.067   3.628
13004TIP3    H238956   1.120   1.988   3.636
13005TIP3   OH238957   7.621   7.736   4.995
13005TIP3    H138958   7.555   7.778   4.941
13005TIP3    H238959   7.658   7.668   4.940
13006TIP3   OH238960   2.561   0.012   1.015
13006TIP3    H138961   2.498  -0.060   1.020
13006TIP3    H238962   2.618  -0.011   0.942
13007TIP3   OH238963   5.752   0.886   3.805
13007TIP3    H138964   5.752   0.897   3.710
13007TIP3    H238965   5.678   0.827   3.822
13008TIP3   OH238966   3.349   0.951   2.355
13008TIP3    H138967   3.357   0.906   2.271
13008TIP3    H238968   3.260   0.931   2.385
13009TIP3   OH238969   4.380   2.737   0.838
13009TIP3    H138970   4.352   2.797   0.769
13009TIP3    H238971   4.462   2.774   0.870
13010TIP3   OH238972   0.074   0.212   6.591
13010TIP3    H138973   0.108   0.281   6.648
13010TIP3    H238974   0.018   0.159   6.648
13011TIP3   OH238975   2.513   5.886   5.196
13011TIP3    H138976   2.555   5.929   5.121
13011TIP3    H238977   2.570   5.906   5.270
13012TIP3   OH238978   2.648   0.236   1.470
13012TIP3    H138979   2.663   0.160   1.414
13012TIP3    H238980   2.733   0.279   1.476
13013TIP3   OH238981   5.188   2.930   3.801
13013TIP3    H138982   5.209   3.018   3.769
13013TIP3    H238983   5.255   2.874   3.760
13014TIP3   OH238984   4.799   6.998   5.259
13014TIP3    H138985   4.846   7.032   5.335
13014TIP3    H238986   4.768   7.076   5.213
13015TIP3   OH238987   5.386   6.840   5.015
13015TIP3    H138988   5.323   6.770   5.029
13015TIP3    H238989   5.429   6.851   5.100
13016TIP3   OH238990   5.791   1.275   2.495
13016TIP3    H138991   5.774   1.347   2.556
13016TIP3    H238992   5.817   1.202   2.551
13017TIP3   OH238993   7.611   3.129   5.149
13017TIP3    H138994   7.680   3.065   5.169
13017TIP3    H238995   7.629   3.157   5.060
13018TIP3   OH238996   6.862   3.022   5.289
13018TIP3    H138997   6.861   3.114   5.314
13018TIP3    H238998   6.872   3.022   5.194
13019TIP3   OH238999   3.639   3.779   6.571
13019TIP3    H139000   3.649   3.840   6.498
13019TIP3    H239001   3.712   3.718   6.562
13020TIP3   OH239002   5.424   0.500   4.807
13020TIP3    H139003   5.335   0.498   4.774
13020TIP3    H239004   5.445   0.408   4.826
13021TIP3   OH239005   0.613   3.768   6.241
13021TIP3    H139006   0.695   3.719   6.252
13021TIP3    H239007   0.636   3.839   6.182
13022TIP3   OH239008   1.329   6.604   1.265
13022TIP3    H139009   1.322   6.514   1.295
13022TIP3    H239010   1.239   6.637   1.266
13023TIP3   OH239011   1.944   2.116   5.715
13023TIP3    H139012   1.943   2.027   5.752
13023TIP3    H239013   1.934   2.173   5.792
13024TIP3   OH239014   7.926   1.791   3.170
13024TIP3    H139015   7.925   1.868   3.113
13024TIP3    H239016   7.837   1.787   3.206
13025TIP3   OH239017   2.454   6.374   4.246
13025TIP3    H139018   2.477   6.380   4.154
13025TIP3    H239019   2.536   6.393   4.292
13026TIP3   OH239020   4.593   0.830   3.122
13026TIP3    H139021   4.648   0.816   3.200
13026TIP3    H239022   4.558   0.918   3.134
13027TIP3   OH239023   2.592   1.649   1.668
13027TIP3    H139024   2.569   1.736   1.702
13027TIP3    H239025   2.683   1.636   1.694
13028TIP3   OH239026   5.676   7.063   4.114
13028TIP3    H139027   5.710   7.151   4.101
13028TIP3    H239028   5.667   7.055   4.209
13029TIP3   OH239029   5.295   1.574   3.254
13029TIP3    H139030   5.383   1.541   3.238
13029TIP3    H239031   5.303   1.628   3.332
13030TIP3   OH239032   2.631   4.578   6.662
13030TIP3    H139033   2.679   4.591   6.743
13030TIP3    H239034   2.671   4.501   6.622
13031TIP3   OH239035   3.762   1.752   2.932
13031TIP3    H139036   3.829   1.731   2.867
13031TIP3    H239037   3.691   1.791   2.880
13032TIP3   OH239038   3.118   5.085   4.136
13032TIP3    H139039   3.152   5.017   4.078
13032TIP3    H239040   3.084   5.152   4.077
13033TIP3   OH239041   7.179   5.964   4.880
13033TIP3    H139042   7.157   5.871   4.875
13033TIP3    H239043   7.206   5.987   4.791
13034TIP3   OH239044   7.889   2.435   0.611
13034TIP3    H139045   7.947   2.384   0.666
13034TIP3    H239046   7.849   2.498   0.670
13035TIP3   OH239047   2.235   1.825   0.552
13035TIP3    H139048   2.224   1.734   0.526
13035TIP3    H239049   2.150   1.865   0.533
13036TIP3   OH239050   0.945   7.221   2.935
13036TIP3    H139051   0.960   7.272   3.015
13036TIP3    H239052   0.896   7.281   2.878
13037TIP3   OH239053   2.883   1.193   0.117
13037TIP3    H139054   2.807   1.210   0.061
13037TIP3    H239055   2.951   1.253   0.085
13038TIP3   OH239056   7.542   4.790   3.189
13038TIP3    H139057   7.591   4.871   3.199
13038TIP3    H239058   7.568   4.756   3.103
13039TIP3   OH239059   4.936   1.181   1.382
13039TIP3    H139060   4.938   1.172   1.287
13039TIP3    H239061   4.891   1.264   1.397
13040TIP3   OH239062   0.956   3.292   5.397
13040TIP3    H139063   1.034   3.295   5.453
13040TIP3    H239064   0.979   3.345   5.321
13041TIP3   OH239065   1.325   7.430   2.979
13041TIP3    H139066   1.381   7.508   2.970
13041TIP3    H239067   1.359   7.385   3.056
13042TIP3   OH239068   7.510   7.207   6.313
13042TIP3    H139069   7.472   7.258   6.385
13042TIP3    H239070   7.533   7.272   6.247
13043TIP3   OH239071   1.038   5.158   3.564
13043TIP3    H139072   0.985   5.159   3.485
13043TIP3    H239073   1.128   5.152   3.533
13044TIP3   OH239074   7.847   3.475   4.949
13044TIP3    H139075   7.795   3.550   4.919
13044TIP3    H239076   7.787   3.424   5.003
13045TIP3   OH239077   1.213   1.088   2.939
13045TIP3    H139078   1.126   1.053   2.923
13045TIP3    H239079   1.201   1.183   2.939
13046TIP3   OH239080   2.612   5.551   6.060
13046TIP3    H139081   2.571   5.638   6.057
13046TIP3    H239082   2.544   5.494   6.094
13047TIP3   OH239083   1.407   2.175   1.520
13047TIP3    H139084   1.427   2.229   1.445
13047TIP3    H239085   1.446   2.221   1.595
13048TIP3   OH239086   5.089   1.236   4.964
13048TIP3    H139087   5.047   1.300   4.908
13048TIP3    H239088   5.118   1.286   5.041
13049TIP3   OH239089   2.139   2.713   1.085
13049TIP3    H139090   2.138   2.758   1.170
13049TIP3    H239091   2.225   2.672   1.081
13050TIP3   OH239092   5.777   4.968   2.560
13050TIP3    H139093   5.785   5.013   2.644
13050TIP3    H239094   5.867   4.962   2.527
13051TIP3   OH239095   8.219   0.620   5.112
13051TIP3    H139096   8.191   0.646   5.025
13051TIP3    H239097   8.216   0.700   5.164
13052TIP3   OH239098   6.179   3.629   4.676
13052TIP3    H139099   6.225   3.622   4.593
13052TIP3    H239100   6.145   3.542   4.692
13053TIP3   OH239101   1.612   7.246   2.608
13053TIP3    H139102   1.533   7.248   2.553
13053TIP3    H239103   1.586   7.195   2.685
13054TIP3   OH239104   5.096   4.072   0.006
13054TIP3    H139105   5.181   4.082   0.047
13054TIP3    H239106   5.113   4.024  -0.075
13055TIP3   OH239107   7.073   7.642   2.441
13055TIP3    H139108   6.996   7.689   2.473
13055TIP3    H239109   7.039   7.583   2.374
13056TIP3   OH239110   5.140   6.650   5.340
13056TIP3    H139111   5.094   6.649   5.424
13056TIP3    H239112   5.074   6.681   5.278
13057TIP3   OH239113   0.272   6.048   1.688
13057TIP3    H139114   0.298   6.033   1.597
13057TIP3    H239115   0.205   5.982   1.705
13058TIP3   OH239116   6.195   1.603   1.547
13058TIP3    H139117   6.254   1.576   1.477
13058TIP3    H239118   6.107   1.587   1.513
13059TIP3   OH239119   3.201   7.275   6.605
13059TIP3    H139120   3.115   7.295   6.567
13059TIP3    H239121   3.208   7.180   6.600
13060TIP3   OH239122   3.637   2.371   3.853
13060TIP3    H139123   3.565   2.431   3.873
13060TIP3    H239124   3.594   2.293   3.818
13061TIP3   OH239125   2.591   0.751   0.447
13061TIP3    H139126   2.627   0.763   0.535
13061TIP3    H239127   2.574   0.657   0.441
13062TIP3   OH239128   4.960   4.405   5.097
13062TIP3    H139129   5.013   4.436   5.024
13062TIP3    H239130   5.019   4.349   5.148
13063TIP3   OH239131   7.193   6.894   6.654
13063TIP3    H139132   7.111   6.846   6.664
13063TIP3    H239133   7.261   6.827   6.654
13064TIP3   OH239134   5.253   5.402   2.723
13064TIP3    H139135   5.217   5.327   2.769
13064TIP3    H239136   5.236   5.384   2.630
13065TIP3   OH239137   6.282   3.346   2.857
13065TIP3    H139138   6.252   3.429   2.821
13065TIP3    H239139   6.310   3.296   2.781
13066TIP3   OH239140   7.991   7.024   3.094
13066TIP3    H139141   8.072   7.033   3.044
13066TIP3    H239142   7.998   7.090   3.163
13067TIP3   OH239143   4.940   4.891   5.987
13067TIP3    H139144   4.882   4.817   5.972
13067TIP3    H239145   4.929   4.912   6.080
13068TIP3   OH239146   2.886   2.777   0.549
13068TIP3    H139147   2.807   2.747   0.504
13068TIP3    H239148   2.956   2.723   0.515
13069TIP3   OH239149   7.711   5.313   3.212
13069TIP3    H139150   7.669   5.393   3.179
13069TIP3    H239151   7.761   5.343   3.289
13070TIP3   OH239152   0.534   0.043   5.580
13070TIP3    H139153   0.575   0.006   5.502
13070TIP3    H239154   0.445   0.008   5.579
13071TIP3   OH239155   4.738   6.938   3.177
13071TIP3    H139156   4.767   6.966   3.263
13071TIP3    H239157   4.662   6.994   3.158
13072TIP3   OH239158   0.948   7.618   0.517
13072TIP3    H139159   1.033   7.622   0.561
13072TIP3    H239160   0.885   7.640   0.585
13073TIP3   OH239161   2.751   0.643   2.345
13073TIP3    H139162   2.728   0.736   2.339
13073TIP3    H239163   2.803   0.626   2.267
13074TIP3   OH239164   6.859   0.269   5.459
13074TIP3    H139165   6.944   0.230   5.438
13074TIP3    H239166   6.817   0.283   5.374
13075TIP3   OH239167   0.203   3.684   2.981
13075TIP3    H139168   0.208   3.602   2.933
13075TIP3    H239169   0.270   3.676   3.049
13076TIP3   OH239170   2.243   0.192   4.289
13076TIP3    H139171   2.190   0.268   4.265
13076TIP3    H239172   2.221   0.126   4.224
13077TIP3   OH239173   6.906   7.143   1.435
13077TIP3    H139174   6.982   7.115   1.383
13077TIP3    H239175   6.830   7.116   1.383
13078TIP3   OH239176   4.378   6.062   0.333
13078TIP3    H139177   4.409   6.082   0.245
13078TIP3    H239178   4.405   6.136   0.387
13079TIP3   OH239179   3.046   7.536   3.363
13079TIP3    H139180   3.063   7.525   3.457
13079TIP3    H239181   2.951   7.540   3.357
13080TIP3   OH239182   2.831   4.393   1.598
13080TIP3    H139183   2.789   4.347   1.671
13080TIP3    H239184   2.812   4.486   1.615
13081TIP3   OH239185   2.869   5.199   1.841
13081TIP3    H139186   2.868   5.161   1.753
13081TIP3    H239187   2.788   5.250   1.847
13082TIP3   OH239188   3.982   6.597   2.042
13082TIP3    H139189   4.059   6.548   2.068
13082TIP3    H239190   3.982   6.595   1.946
13083TIP3   OH239191   2.828   2.679   2.198
13083TIP3    H139192   2.782   2.648   2.120
13083TIP3    H239193   2.762   2.678   2.267
13084TIP3   OH239194   6.196   2.081   1.085
13084TIP3    H139195   6.272   2.031   1.117
13084TIP3    H239196   6.124   2.019   1.088
13085TIP3   OH239197   3.689   3.613   0.142
13085TIP3    H139198   3.672   3.630   0.235
13085TIP3    H239199   3.672   3.519   0.131
13086TIP3   OH239200   4.398   2.564   4.756
13086TIP3    H139201   4.330   2.499   4.739
13086TIP3    H239202   4.350   2.639   4.792
13087TIP3   OH239203   5.753   3.123   6.040
13087TIP3    H139204   5.809   3.177   5.985
13087TIP3    H239205   5.712   3.061   5.979
13088TIP3   OH239206   1.756   0.186   3.544
13088TIP3    H139207   1.771   0.092   3.553
13088TIP3    H239208   1.738   0.216   3.633
13089TIP3   OH239209   1.918   6.746   3.925
13089TIP3    H139210   1.848   6.694   3.964
13089TIP3    H239211   1.969   6.778   3.999
13090TIP3   OH239212   8.231   3.958   1.878
13090TIP3    H139213   8.145   3.988   1.906
13090TIP3    H239214   8.290   3.983   1.950
13091TIP3   OH239215   3.462   2.082   2.929
13091TIP3    H139216   3.467   2.166   2.975
13091TIP3    H239217   3.411   2.100   2.850
13092TIP3   OH239218   6.191   6.852   3.174
13092TIP3    H139219   6.159   6.762   3.166
13092TIP3    H239220   6.189   6.886   3.084
13093TIP3   OH239221   1.998   0.277   5.932
13093TIP3    H139222   2.056   0.231   5.992
13093TIP3    H239223   1.910   0.255   5.961
13094TIP3   OH239224   7.624   1.632   1.375
13094TIP3    H139225   7.558   1.677   1.428
13094TIP3    H239226   7.618   1.673   1.289
13095TIP3   OH239227   5.006   0.829   4.057
13095TIP3    H139228   5.083   0.886   4.060
13095TIP3    H239229   4.958   0.858   3.980
13096TIP3   OH239230   2.405   6.058   3.257
13096TIP3    H139231   2.356   6.139   3.244
13096TIP3    H239232   2.456   6.047   3.177
13097TIP3   OH239233   5.887   6.796   4.359
13097TIP3    H139234   5.853   6.885   4.364
13097TIP3    H239235   5.970   6.804   4.312
13098TIP3   OH239236   6.067   4.699   3.378
13098TIP3    H139237   6.129   4.713   3.450
13098TIP3    H239238   6.013   4.626   3.407
13099TIP3   OH239239   5.473   1.721   1.314
13099TIP3    H139240   5.381   1.695   1.312
13099TIP3    H239241   5.472   1.811   1.346
13100TIP3   OH239242   0.115   3.272   4.551
13100TIP3    H139243   0.137   3.288   4.643
13100TIP3    H239244   0.111   3.176   4.544
13101TIP3   OH239245   1.679   6.240   5.202
13101TIP3    H139246   1.598   6.289   5.185
13101TIP3    H239247   1.748   6.296   5.168
13102TIP3   OH239248   2.879   1.606   3.417
13102TIP3    H139249   2.944   1.675   3.409
13102TIP3    H239250   2.843   1.596   3.329
13103TIP3   OH239251   6.576   1.929   2.997
13103TIP3    H139252   6.553   1.893   2.912
13103TIP3    H239253   6.494   1.966   3.031
13104TIP3   OH239254   1.674   3.970   3.138
13104TIP3    H139255   1.637   3.987   3.225
13104TIP3    H239256   1.619   3.899   3.102
13105TIP3   OH239257   1.018   6.978   6.669
13105TIP3    H139258   1.075   7.040   6.624
13105TIP3    H239259   1.038   6.893   6.630
13106TIP3   OH239260   3.997   0.370   6.489
13106TIP3    H139261   4.070   0.423   6.455
13106TIP3    H239262   4.040   0.302   6.541
13107TIP3   OH239263   1.623   3.685   2.917
13107TIP3    H139264   1.687   3.746   2.879
13107TIP3    H239265   1.570   3.657   2.842
13108TIP3   OH239266   5.027   2.593   0.766
13108TIP3    H139267   5.029   2.582   0.671
13108TIP3    H239268   5.113   2.627   0.789
13109TIP3   OH239269   5.854   0.333   3.705
13109TIP3    H139270   5.909   0.313   3.630
13109TIP3    H239271   5.878   0.422   3.730
13110TIP3   OH239272   0.379   0.920   1.054
13110TIP3    H139273   0.468   0.929   1.088
13110TIP3    H239274   0.346   0.840   1.095
13111TIP3   OH239275   6.662   6.162   0.623
13111TIP3    H139276   6.668   6.155   0.718
13111TIP3    H239277   6.592   6.226   0.608
13112TIP3   OH239278   4.419   5.407   4.786
13112TIP3    H139279   4.366   5.360   4.722
13112TIP3    H239280   4.398   5.365   4.869
13113TIP3   OH239281   0.119   3.181   0.573
13113TIP3    H139282   0.135   3.229   0.492
13113TIP3    H239283   0.113   3.248   0.641
13114TIP3   OH239284   3.096   3.084   3.662
13114TIP3    H139285   3.167   3.030   3.699
13114TIP3    H239286   3.132   3.172   3.659
13115TIP3   OH239287   3.849   2.821   6.320
13115TIP3    H139288   3.772   2.798   6.268
13115TIP3    H239289   3.909   2.748   6.308
13116TIP3   OH239290   6.209   7.782   3.224
13116TIP3    H139291   6.199   7.772   3.319
13116TIP3    H239292   6.241   7.698   3.194
13117TIP3   OH239293   3.464   1.732   0.958
13117TIP3    H139294   3.441   1.817   0.921
13117TIP3    H239295   3.391   1.675   0.934
13118TIP3   OH239296   5.817   5.151   4.158
13118TIP3    H139297   5.788   5.107   4.078
13118TIP3    H239298   5.859   5.231   4.127
13119TIP3   OH239299   6.536   4.039   5.804
13119TIP3    H139300   6.608   4.003   5.856
13119TIP3    H239301   6.493   4.101   5.863
13120TIP3   OH239302   6.863   2.123   1.779
13120TIP3    H139303   6.854   2.028   1.769
13120TIP3    H239304   6.848   2.158   1.690
13121TIP3   OH239305   3.369   1.310   5.685
13121TIP3    H139306   3.277   1.294   5.704
13121TIP3    H239307   3.414   1.234   5.720
13122TIP3   OH239308   2.381   0.889   2.059
13122TIP3    H139309   2.389   0.914   2.151
13122TIP3    H239310   2.346   0.967   2.016
13123TIP3   OH239311   0.220   5.824   6.659
13123TIP3    H139312   0.311   5.799   6.639
13123TIP3    H239313   0.167   5.767   6.605
13124TIP3   OH239314   1.461   7.330   6.193
13124TIP3    H139315   1.368   7.313   6.178
13124TIP3    H239316   1.464   7.422   6.221
13125TIP3   OH239317   5.413   3.627   4.201
13125TIP3    H139318   5.364   3.654   4.124
13125TIP3    H239319   5.396   3.533   4.209
13126TIP3   OH239320   7.249   2.998   4.343
13126TIP3    H139321   7.216   2.916   4.380
13126TIP3    H239322   7.175   3.059   4.351
13127TIP3   OH239323   0.861   6.469   3.972
13127TIP3    H139324   0.825   6.382   3.986
13127TIP3    H239325   0.787   6.528   3.988
13128TIP3   OH239326   7.751   5.427   6.298
13128TIP3    H139327   7.758   5.450   6.391
13128TIP3    H239328   7.738   5.332   6.298
13129TIP3   OH239329   2.102   6.943   1.311
13129TIP3    H139330   2.131   6.986   1.231
13129TIP3    H239331   2.007   6.942   1.305
13130TIP3   OH239332   7.923   2.417   2.028
13130TIP3    H139333   7.849   2.368   1.990
13130TIP3    H239334   7.894   2.508   2.027
13131TIP3   OH239335   5.282   0.711   5.518
13131TIP3    H139336   5.279   0.673   5.606
13131TIP3    H239337   5.198   0.756   5.509
13132TIP3   OH239338   3.352   3.627   6.202
13132TIP3    H139339   3.427   3.647   6.147
13132TIP3    H239340   3.328   3.537   6.178
13133TIP3   OH239341   1.896   2.302   6.420
13133TIP3    H139342   1.989   2.321   6.434
13133TIP3    H239343   1.850   2.367   6.474
13134TIP3   OH239344   7.991   0.441   2.889
13134TIP3    H139345   7.904   0.437   2.849
13134TIP3    H239346   7.992   0.370   2.953
13135TIP3   OH239347   0.168   5.646   2.768
13135TIP3    H139348   0.214   5.606   2.695
13135TIP3    H239349   0.229   5.710   2.803
13136TIP3   OH239350   1.247   1.281   1.052
13136TIP3    H139351   1.222   1.373   1.049
13136TIP3    H239352   1.185   1.237   0.993
13137TIP3   OH239353   7.387   5.785   4.096
13137TIP3    H139354   7.425   5.863   4.055
13137TIP3    H239355   7.318   5.758   4.036
13138TIP3   OH239356   5.219   6.304   2.554
13138TIP3    H139357   5.308   6.272   2.568
13138TIP3    H239358   5.227   6.399   2.560
13139TIP3   OH239359   2.464   1.129   2.601
13139TIP3    H139360   2.389   1.075   2.626
13139TIP3    H239361   2.540   1.081   2.635
13140TIP3   OH239362   5.431   6.177   5.229
13140TIP3    H139363   5.375   6.132   5.292
13140TIP3    H239364   5.394   6.266   5.225
13141TIP3   OH239365   1.384   6.046   3.506
13141TIP3    H139366   1.356   5.967   3.460
13141TIP3    H239367   1.309   6.105   3.500
13142TIP3   OH239368   1.170   6.222   0.182
13142TIP3    H139369   1.154   6.128   0.182
13142TIP3    H239370   1.100   6.259   0.235
13143TIP3   OH239371   3.176   3.097   3.236
13143TIP3    H139372   3.155   3.028   3.172
13143TIP3    H239373   3.258   3.068   3.276
13144TIP3   OH239374   7.710   4.738   6.501
13144TIP3    H139375   7.656   4.739   6.423
13144TIP3    H239376   7.726   4.830   6.521
13145TIP3   OH239377   2.023   6.423   2.299
13145TIP3    H139378   1.932   6.421   2.269
13145TIP3    H239379   2.049   6.515   2.289
13146TIP3   OH239380   4.920   0.134   5.403
13146TIP3    H139381   5.006   0.098   5.383
13146TIP3    H239382   4.872   0.129   5.320
13147TIP3   OH239383   6.407  -0.017   2.790
13147TIP3    H139384   6.402   0.070   2.749
13147TIP3    H239385   6.359  -0.074   2.731
13148TIP3   OH239386   4.919   6.372   2.289
13148TIP3    H139387   4.842   6.375   2.346
13148TIP3    H239388   4.889   6.326   2.210
13149TIP3   OH239389   4.117   7.840   4.746
13149TIP3    H139390   4.060   7.802   4.679
13149TIP3    H239391   4.201   7.795   4.734
13150TIP3   OH239392   1.584   5.482   0.367
13150TIP3    H139393   1.674   5.488   0.333
13150TIP3    H239394   1.530   5.474   0.288
13151TIP3   OH239395   3.796   3.742   4.362
13151TIP3    H139396   3.845   3.820   4.389
13151TIP3    H239397   3.739   3.773   4.291
13152TIP3   OH239398   0.766   5.705   3.750
13152TIP3    H139399   0.847   5.654   3.755
13152TIP3    H239400   0.793   5.790   3.715
13153TIP3   OH239401   4.457   1.090   2.704
13153TIP3    H139402   4.389   1.152   2.729
13153TIP3    H239403   4.534   1.144   2.686
13154TIP3   OH239404   8.115   3.438   1.557
13154TIP3    H139405   8.191   3.415   1.610
13154TIP3    H239406   8.150   3.450   1.469
13155TIP3   OH239407   3.354   0.720   3.919
13155TIP3    H139408   3.328   0.746   3.830
13155TIP3    H239409   3.438   0.763   3.933
13156TIP3   OH239410   0.500   0.801   5.390
13156TIP3    H139411   0.563   0.871   5.406
13156TIP3    H239412   0.546   0.720   5.414
13157TIP3   OH239413   5.640   2.302   5.059
13157TIP3    H139414   5.680   2.216   5.047
13157TIP3    H239415   5.697   2.362   5.010
13158TIP3   OH239416   5.808   1.311   6.012
13158TIP3    H139417   5.860   1.238   6.046
13158TIP3    H239418   5.758   1.342   6.088
13159TIP3   OH239419   7.082   0.139   0.798
13159TIP3    H139420   6.995   0.169   0.771
13159TIP3    H239421   7.142   0.177   0.734
13160TIP3   OH239422   4.789   2.763   1.415
13160TIP3    H139423   4.752   2.825   1.352
13160TIP3    H239424   4.884   2.776   1.408
13161TIP3   OH239425   3.968   6.688   3.260
13161TIP3    H139426   3.881   6.714   3.292
13161TIP3    H239427   3.951   6.653   3.172
13162TIP3   OH239428   2.609   7.270   5.726
13162TIP3    H139429   2.672   7.209   5.765
13162TIP3    H239430   2.548   7.290   5.796
13163TIP3   OH239431   7.475   6.036   2.985
13163TIP3    H139432   7.535   5.989   2.927
13163TIP3    H239433   7.517   6.121   3.000
13164TIP3   OH239434   0.422   0.885   6.496
13164TIP3    H139435   0.408   0.794   6.524
13164TIP3    H239436   0.347   0.933   6.533
13165TIP3   OH239437   4.474   0.548   3.683
13165TIP3    H139438   4.498   0.637   3.710
13165TIP3    H239439   4.446   0.557   3.591
13166TIP3   OH239440   0.964   6.559   4.816
13166TIP3    H139441   0.881   6.539   4.772
13166TIP3    H239442   1.003   6.628   4.764
13167TIP3   OH239443   4.649   4.506   1.539
13167TIP3    H139444   4.682   4.528   1.626
13167TIP3    H239445   4.681   4.577   1.483
13168TIP3   OH239446   0.629   3.666   4.194
13168TIP3    H139447   0.558   3.680   4.256
13168TIP3    H239448   0.591   3.609   4.127
13169TIP3   OH239449   6.375   3.912   1.301
13169TIP3    H139450   6.392   3.990   1.248
13169TIP3    H239451   6.325   3.944   1.376
13170TIP3   OH239452   4.954   5.042   2.820
13170TIP3    H139453   4.967   4.954   2.854
13170TIP3    H239454   4.861   5.045   2.795
13171TIP3   OH239455   1.843   5.179   2.507
13171TIP3    H139456   1.915   5.223   2.461
13171TIP3    H239457   1.875   5.090   2.522
13172TIP3   OH239458   7.217   6.714   4.506
13172TIP3    H139459   7.219   6.717   4.411
13172TIP3    H239460   7.304   6.680   4.530
13173TIP3   OH239461   8.236   6.199   5.950
13173TIP3    H139462   8.287   6.118   5.942
13173TIP3    H239463   8.273   6.256   5.882
13174TIP3   OH239464   3.728   3.219   6.432
13174TIP3    H139465   3.651   3.174   6.467
13174TIP3    H239466   3.737   3.296   6.487
13175TIP3   OH239467   3.047   3.808   2.912
13175TIP3    H139468   3.071   3.716   2.922
13175TIP3    H239469   3.085   3.851   2.989
13176TIP3   OH239470   3.895   4.901   0.154
13176TIP3    H139471   3.967   4.943   0.201
13176TIP3    H239472   3.914   4.807   0.159
13177TIP3   OH239473   7.482   1.646   3.153
13177TIP3    H139474   7.522   1.683   3.232
13177TIP3    H239475   7.474   1.720   3.093
13178TIP3   OH239476   2.669   1.163   4.505
13178TIP3    H139477   2.622   1.185   4.424
13178TIP3    H239478   2.635   1.225   4.569
13179TIP3   OH239479   3.564   1.439   0.057
13179TIP3    H139480   3.537   1.411   0.144
13179TIP3    H239481   3.627   1.373   0.029
13180TIP3   OH239482   4.446   4.937   5.322
13180TIP3    H139483   4.390   4.870   5.283
13180TIP3    H239484   4.478   4.988   5.247
13181TIP3   OH239485   4.902   7.076   3.742
13181TIP3    H139486   4.835   7.120   3.793
13181TIP3    H239487   4.927   7.001   3.796
13182TIP3   OH239488   5.219   7.148   2.392
13182TIP3    H139489   5.197   7.236   2.363
13182TIP3    H239490   5.176   7.140   2.478
13183TIP3   OH239491   4.812   1.746   3.891
13183TIP3    H139492   4.759   1.710   3.962
13183TIP3    H239493   4.862   1.817   3.932
13184TIP3   OH239494   0.155   7.643   0.655
13184TIP3    H139495   0.074   7.611   0.616
13184TIP3    H239496   0.173   7.725   0.609
13185TIP3   OH239497   1.440   6.406   0.919
13185TIP3    H139498   1.445   6.403   1.015
13185TIP3    H239499   1.524   6.372   0.889
13186TIP3   OH239500   5.671   2.414   6.551
13186TIP3    H139501   5.657   2.488   6.492
13186TIP3    H239502   5.712   2.453   6.628
13187TIP3   OH239503   2.642   1.692   4.429
13187TIP3    H139504   2.641   1.752   4.504
13187TIP3    H239505   2.559   1.708   4.384
13188TIP3   OH239506   4.203  -0.043   5.214
13188TIP3    H139507   4.138  -0.007   5.154
13188TIP3    H239508   4.231   0.032   5.266
13189TIP3   OH239509   3.398   0.737   4.210
13189TIP3    H139510   3.339   0.661   4.216
13189TIP3    H239511   3.484   0.700   4.191
13190TIP3   OH239512   3.719   5.083   2.599
13190TIP3    H139513   3.738   5.122   2.684
13190TIP3    H239514   3.751   5.146   2.535
13191TIP3   OH239515   8.086   5.288   2.907
13191TIP3    H139516   8.124   5.209   2.945
13191TIP3    H239517   8.011   5.307   2.963
13192TIP3   OH239518   1.224   5.183   2.327
13192TIP3    H139519   1.143   5.209   2.371
13192TIP3    H239520   1.293   5.201   2.391
13193TIP3   OH239521   3.649   1.897   5.265
13193TIP3    H139522   3.703   1.962   5.220
13193TIP3    H239523   3.642   1.824   5.202
13194TIP3   OH239524   6.307   5.228   3.829
13194TIP3    H139525   6.392   5.227   3.785
13194TIP3    H239526   6.302   5.143   3.872
13195TIP3   OH239527   1.304   5.412   6.029
13195TIP3    H139528   1.335   5.344   6.090
13195TIP3    H239529   1.381   5.467   6.014
13196TIP3   OH239530   7.640   7.095   3.912
13196TIP3    H139531   7.704   7.078   3.843
13196TIP3    H239532   7.556   7.094   3.867
13197TIP3   OH239533   0.480   6.649   2.250
13197TIP3    H139534   0.442   6.693   2.326
13197TIP3    H239535   0.433   6.686   2.175
13198TIP3   OH239536   2.184   1.783   3.836
13198TIP3    H139537   2.089   1.787   3.825
13198TIP3    H239538   2.204   1.852   3.898
13199TIP3   OH239539   2.395   4.410   1.361
13199TIP3    H139540   2.457   4.381   1.294
13199TIP3    H239541   2.358   4.491   1.326
13200TIP3   OH239542   5.380   2.908   3.190
13200TIP3    H139543   5.398   2.901   3.284
13200TIP3    H239544   5.298   2.956   3.185
13201TIP3   OH239545   1.311   6.606   4.361
13201TIP3    H139546   1.255   6.668   4.313
13201TIP3    H239547   1.373   6.661   4.408
13202TIP3   OH239548   1.722  -0.026   5.823
13202TIP3    H139549   1.728   0.059   5.868
13202TIP3    H239550   1.709  -0.089   5.894
13203TIP3   OH239551   6.905   4.537   6.220
13203TIP3    H139552   6.872   4.512   6.305
13203TIP3    H239553   6.962   4.465   6.194
13204TIP3   OH239554   3.330   2.154   4.482
13204TIP3    H139555   3.381   2.129   4.405
13204TIP3    H239556   3.246   2.183   4.448
13205TIP3   OH239557   2.449   4.832   2.532
13205TIP3    H139558   2.516   4.791   2.586
13205TIP3    H239559   2.450   4.924   2.556
13206TIP3   OH239560   2.677   5.758   2.594
13206TIP3    H139561   2.695   5.815   2.668
13206TIP3    H239562   2.609   5.698   2.626
13207TIP3   OH239563   3.675   3.470   4.246
13207TIP3    H139564   3.687   3.515   4.162
13207TIP3    H239565   3.684   3.539   4.312
13208TIP3   OH239566   8.226   6.757   2.832
13208TIP3    H139567   8.303   6.790   2.878
13208TIP3    H239568   8.261   6.712   2.756
13209TIP3   OH239569   6.570   2.477   1.931
13209TIP3    H139570   6.586   2.397   1.882
13209TIP3    H239571   6.652   2.494   1.978
13210TIP3   OH239572   1.131   2.900   4.470
13210TIP3    H139573   1.071   2.946   4.529
13210TIP3    H239574   1.185   2.847   4.529
13211TIP3   OH239575   4.692   2.550   5.845
13211TIP3    H139576   4.663   2.601   5.921
13211TIP3    H239577   4.711   2.464   5.880
13212TIP3   OH239578   7.375   4.108   3.098
13212TIP3    H139579   7.467   4.091   3.080
13212TIP3    H239580   7.358   4.193   3.057
13213TIP3   OH239581   3.535   0.059   1.098
13213TIP3    H139582   3.581   0.010   1.029
13213TIP3    H239583   3.605   0.098   1.150
13214TIP3   OH239584   4.320   6.644   2.443
13214TIP3    H139585   4.310   6.701   2.518
13214TIP3    H239586   4.312   6.555   2.478
13215TIP3   OH239587   5.007   3.521   0.288
13215TIP3    H139588   5.037   3.603   0.249
13215TIP3    H239589   5.020   3.532   0.382
13216TIP3   OH239590   4.445   2.451   5.710
13216TIP3    H139591   4.462   2.444   5.804
13216TIP3    H239592   4.365   2.400   5.697
13217TIP3   OH239593   6.916   5.447   1.648
13217TIP3    H139594   6.999   5.405   1.624
13217TIP3    H239595   6.868   5.453   1.566
13218TIP3   OH239596   7.046   3.971   4.542
13218TIP3    H139597   6.995   4.048   4.516
13218TIP3    H239598   7.067   3.928   4.459
13219TIP3   OH239599   5.042   3.800   2.231
13219TIP3    H139600   5.088   3.851   2.164
13219TIP3    H239601   5.094   3.813   2.310
13220TIP3   OH239602   5.158   5.505   5.818
13220TIP3    H139603   5.227   5.514   5.752
13220TIP3    H239604   5.089   5.457   5.773
13221TIP3   OH239605   1.179   5.209   0.635
13221TIP3    H139606   1.199   5.162   0.716
13221TIP3    H239607   1.087   5.188   0.617
13222TIP3   OH239608   4.783   5.794   3.789
13222TIP3    H139609   4.792   5.774   3.695
13222TIP3    H239610   4.772   5.708   3.830
13223TIP3   OH239611   0.093   0.177   4.885
13223TIP3    H139612   0.179   0.144   4.910
13223TIP3    H239613   0.111   0.242   4.817
13224TIP3   OH239614   0.820   7.583   4.718
13224TIP3    H139615   0.744   7.637   4.697
13224TIP3    H239616   0.832   7.594   4.813
13225TIP3   OH239617   6.652   5.377   6.201
13225TIP3    H139618   6.648   5.344   6.112
13225TIP3    H239619   6.688   5.466   6.193
13226TIP3   OH239620   5.124   7.056   5.210
13226TIP3    H139621   5.075   7.051   5.292
13226TIP3    H239622   5.211   7.088   5.236
13227TIP3   OH239623   0.999   7.514   0.062
13227TIP3    H139624   1.072   7.454   0.077
13227TIP3    H239625   0.930   7.459   0.025
13228TIP3   OH239626   2.751   7.769   0.385
13228TIP3    H139627   2.724   7.742   0.297
13228TIP3    H239628   2.827   7.825   0.371
13229TIP3   OH239629   5.347   0.112   0.505
13229TIP3    H139630   5.311   0.115   0.417
13229TIP3    H239631   5.411   0.041   0.502
13230TIP3   OH239632   5.131   6.220   3.229
13230TIP3    H139633   5.098   6.305   3.202
13230TIP3    H239634   5.053   6.164   3.233
13231TIP3   OH239635   2.938   1.478   5.836
13231TIP3    H139636   2.857   1.499   5.790
13231TIP3    H239637   2.927   1.386   5.863
13232TIP3   OH239638   5.763   2.539   2.677
13232TIP3    H139639   5.807   2.468   2.724
13232TIP3    H239640   5.693   2.496   2.628
13233TIP3   OH239641   6.954   6.179   0.749
13233TIP3    H139642   6.904   6.138   0.679
13233TIP3    H239643   6.969   6.109   0.813
13234TIP3   OH239644   7.572   5.521   6.094
13234TIP3    H139645   7.563   5.606   6.136
13234TIP3    H239646   7.653   5.485   6.130
13235TIP3   OH239647   3.319   7.526   5.355
13235TIP3    H139648   3.250   7.592   5.360
13235TIP3    H239649   3.275   7.447   5.324
13236TIP3   OH239650   6.935   0.540   1.445
13236TIP3    H139651   7.008   0.480   1.456
13236TIP3    H239652   6.967   0.607   1.384
13237TIP3   OH239653   3.236   5.106   6.761
13237TIP3    H139654   3.258   5.197   6.781
13237TIP3    H239655   3.148   5.094   6.797
13238TIP3   OH239656   6.370   5.463   5.852
13238TIP3    H139657   6.399   5.553   5.838
13238TIP3    H239658   6.346   5.432   5.764
13239TIP3   OH239659   6.874   0.780   3.809
13239TIP3    H139660   6.919   0.835   3.873
13239TIP3    H239661   6.793   0.753   3.852
13240TIP3   OH239662   1.336   5.908   2.727
13240TIP3    H139663   1.417   5.884   2.772
13240TIP3    H239664   1.334   5.852   2.649
13241TIP3   OH239665   4.871   1.006   2.818
13241TIP3    H139666   4.828   0.923   2.837
13241TIP3    H239667   4.814   1.048   2.753
13242TIP3   OH239668   1.589   7.520   4.594
13242TIP3    H139669   1.630   7.517   4.508
13242TIP3    H239670   1.519   7.455   4.589
13243TIP3   OH239671   1.600   1.206   3.639
13243TIP3    H139672   1.667   1.140   3.620
13243TIP3    H239673   1.540   1.161   3.699
13244TIP3   OH239674   4.217   0.692   1.672
13244TIP3    H139675   4.277   0.646   1.613
13244TIP3    H239676   4.155   0.625   1.701
13245TIP3   OH239677   7.738   1.137   6.801
13245TIP3    H139678   7.806   1.203   6.817
13245TIP3    H239679   7.712   1.152   6.710
13246TIP3   OH239680   5.811   6.817   4.073
13246TIP3    H139681   5.799   6.909   4.098
13246TIP3    H239682   5.722   6.785   4.058
13247TIP3   OH239683   0.340   6.910   0.314
13247TIP3    H139684   0.411   6.965   0.347
13247TIP3    H239685   0.372   6.820   0.326
13248TIP3   OH239686   7.910   3.849   1.173
13248TIP3    H139687   7.934   3.828   1.083
13248TIP3    H239688   7.842   3.786   1.195
13249TIP3   OH239689   6.786   4.997   4.738
13249TIP3    H139690   6.819   4.999   4.828
13249TIP3    H239691   6.691   4.998   4.747
13250TIP3   OH239692   7.655   6.762   5.573
13250TIP3    H139693   7.639   6.850   5.538
13250TIP3    H239694   7.683   6.777   5.663
13251TIP3   OH239695   6.108   7.303   1.212
13251TIP3    H139696   6.145   7.246   1.144
13251TIP3    H239697   6.022   7.328   1.179
13252TIP3   OH239698   6.887   0.700   4.556
13252TIP3    H139699   6.949   0.770   4.539
13252TIP3    H239700   6.848   0.722   4.641
13253TIP3   OH239701   2.203   2.941   3.286
13253TIP3    H139702   2.283   2.936   3.338
13253TIP3    H239703   2.172   2.850   3.279
13254TIP3   OH239704   4.342   4.505   5.375
13254TIP3    H139705   4.360   4.579   5.317
13254TIP3    H239706   4.267   4.533   5.427
13255TIP3   OH239707   6.387   4.207   5.972
13255TIP3    H139708   6.394   4.274   6.039
13255TIP3    H239709   6.355   4.253   5.894
13256TIP3   OH239710   3.016   0.216   1.707
13256TIP3    H139711   3.032   0.288   1.768
13256TIP3    H239712   2.921   0.203   1.710
13257TIP3   OH239713   4.087   3.900   0.364
13257TIP3    H139714   4.138   3.843   0.306
13257TIP3    H239715   4.048   3.965   0.305
13258TIP3   OH239716   3.666   1.739   4.543
13258TIP3    H139717   3.607   1.806   4.576
13258TIP3    H239718   3.624   1.706   4.464
13259TIP3   OH239719   2.095   5.902   6.626
13259TIP3    H139720   2.138   5.921   6.710
13259TIP3    H239721   2.108   5.808   6.613
13260TIP3   OH239722   2.487   1.918   3.681
13260TIP3    H139723   2.420   1.976   3.718
13260TIP3    H239724   2.553   1.977   3.644
13261TIP3   OH239725   0.582   2.189   0.640
13261TIP3    H139726   0.558   2.179   0.547
13261TIP3    H239727   0.581   2.099   0.674
13262TIP3   OH239728   2.738   6.210   3.846
13262TIP3    H139729   2.765   6.270   3.777
13262TIP3    H239730   2.679   6.148   3.803
13263TIP3   OH239731   5.033   5.358   5.524
13263TIP3    H139732   5.091   5.322   5.457
13263TIP3    H239733   4.950   5.313   5.511
13264TIP3   OH239734   6.826   0.925   0.349
13264TIP3    H139735   6.820   0.870   0.271
13264TIP3    H239736   6.833   0.863   0.421
13265TIP3   OH239737   6.330   2.063   3.580
13265TIP3    H139738   6.425   2.075   3.590
13265TIP3    H239739   6.313   1.974   3.609
13266TIP3   OH239740   1.155   4.714   2.231
13266TIP3    H139741   1.198   4.683   2.311
13266TIP3    H239742   1.069   4.672   2.231
13267TIP3   OH239743   8.167   7.235   1.290
13267TIP3    H139744   8.261   7.223   1.280
13267TIP3    H239745   8.150   7.220   1.383
13268TIP3   OH239746   3.508   1.397   2.581
13268TIP3    H139747   3.536   1.318   2.627
13268TIP3    H239748   3.585   1.454   2.582
13269TIP3   OH239749   2.057   7.385   4.291
13269TIP3    H139750   2.095   7.358   4.375
13269TIP3    H239751   2.054   7.480   4.296
13270TIP3   OH239752   7.745   2.644   3.803
13270TIP3    H139753   7.828   2.655   3.849
13270TIP3    H239754   7.678   2.667   3.867
13271TIP3   OH239755   5.976   7.052   5.408
13271TIP3    H139756   5.986   7.048   5.313
13271TIP3    H239757   5.895   7.101   5.421
13272TIP3   OH239758   6.871   4.727   2.442
13272TIP3    H139759   6.816   4.797   2.478
13272TIP3    H239760   6.833   4.646   2.476
13273TIP3   OH239761   6.795   5.027   5.650
13273TIP3    H139762   6.849   5.098   5.614
13273TIP3    H239763   6.858   4.964   5.684
13274TIP3   OH239764   3.228   5.888   0.042
13274TIP3    H139765   3.176   5.842   0.109
13274TIP3    H239766   3.252   5.970   0.084
13275TIP3   OH239767   4.404   7.658   1.863
13275TIP3    H139768   4.333   7.676   1.925
13275TIP3    H239769   4.448   7.581   1.898
13276TIP3   OH239770   0.511   3.285   2.645
13276TIP3    H139771   0.595   3.323   2.670
13276TIP3    H239772   0.471   3.352   2.588
13277TIP3   OH239773   2.691   0.764   3.360
13277TIP3    H139774   2.657   0.678   3.384
13277TIP3    H239775   2.785   0.758   3.376
13278TIP3   OH239776   1.749   5.428   0.798
13278TIP3    H139777   1.754   5.342   0.756
13278TIP3    H239778   1.666   5.465   0.766
13279TIP3   OH239779   6.151   6.500   1.999
13279TIP3    H139780   6.237   6.521   1.962
13279TIP3    H239781   6.165   6.417   2.046
13280TIP3   OH239782   2.222   0.329   2.281
13280TIP3    H139783   2.215   0.293   2.193
13280TIP3    H239784   2.244   0.422   2.267
13281TIP3   OH239785   5.549   1.613   2.407
13281TIP3    H139786   5.475   1.671   2.424
13281TIP3    H239787   5.509   1.528   2.390
13282TIP3   OH239788   7.824   3.687   2.828
13282TIP3    H139789   7.799   3.602   2.792
13282TIP3    H239790   7.799   3.750   2.761
13283TIP3   OH239791   1.420   4.469   2.142
13283TIP3    H139792   1.418   4.429   2.228
13283TIP3    H239793   1.329   4.463   2.111
13284TIP3   OH239794   0.035   1.012   4.275
13284TIP3    H139795   0.120   1.015   4.232
13284TIP3    H239796   0.035   0.929   4.323
13285TIP3   OH239797   6.063   5.514   1.956
13285TIP3    H139798   6.055   5.441   1.895
13285TIP3    H239799   6.017   5.587   1.914
13286TIP3   OH239800   3.694   6.983   4.830
13286TIP3    H139801   3.606   6.955   4.806
13286TIP3    H239802   3.690   7.079   4.828
13287TIP3   OH239803   1.360   6.440   5.676
13287TIP3    H139804   1.356   6.403   5.764
13287TIP3    H239805   1.404   6.373   5.623
13288TIP3   OH239806   2.804   7.680   5.443
13288TIP3    H139807   2.864   7.725   5.502
13288TIP3    H239808   2.768   7.608   5.495
13289TIP3   OH239809   0.097   6.338   2.272
13289TIP3    H139810   0.017   6.341   2.220
13289TIP3    H239811   0.146   6.263   2.236
13290TIP3   OH239812   0.343   7.297   2.599
13290TIP3    H139813   0.274   7.235   2.623
13290TIP3    H239814   0.334   7.306   2.504
13291TIP3   OH239815   3.011   0.432   0.814
13291TIP3    H139816   2.959   0.353   0.826
13291TIP3    H239817   3.014   0.445   0.719
13292TIP3   OH239818   0.729   5.163   1.167
13292TIP3    H139819   0.790   5.129   1.102
13292TIP3    H239820   0.746   5.111   1.246
13293TIP3   OH239821   6.370   4.461   0.760
13293TIP3    H139822   6.418   4.505   0.689
13293TIP3    H239823   6.353   4.530   0.824
13294TIP3   OH239824   6.363   7.393   4.274
13294TIP3    H139825   6.301   7.466   4.265
13294TIP3    H239826   6.396   7.379   4.185
13295TIP3   OH239827   2.895   6.532   1.000
13295TIP3    H139828   2.856   6.456   1.042
13295TIP3    H239829   2.821   6.590   0.981
13296TIP3   OH239830   1.603   7.013   1.159
13296TIP3    H139831   1.543   7.084   1.182
13296TIP3    H239832   1.546   6.938   1.143
13297TIP3   OH239833   3.628   5.172  -0.052
13297TIP3    H139834   3.599   5.167   0.039
13297TIP3    H239835   3.709   5.223  -0.049
13298TIP3   OH239836   3.043   7.716   5.321
13298TIP3    H139837   2.960   7.697   5.364
13298TIP3    H239838   3.031   7.687   5.231
13299TIP3   OH239839   2.199   0.765   5.214
13299TIP3    H139840   2.192   0.857   5.239
13299TIP3    H239841   2.222   0.720   5.295
13300TIP3   OH239842   3.399   4.971   6.079
13300TIP3    H139843   3.362   5.049   6.121
13300TIP3    H239844   3.325   4.909   6.074
13301TIP3   OH239845   0.954   0.018   5.172
13301TIP3    H139846   1.021   0.025   5.104
13301TIP3    H239847   1.004   0.005   5.253
13302TIP3   OH239848   4.839   1.607   0.238
13302TIP3    H139849   4.762   1.551   0.245
13302TIP3    H239850   4.839   1.659   0.318
13303TIP3   OH239851   7.978   2.736   3.050
13303TIP3    H139852   8.042   2.771   2.988
13303TIP3    H239853   8.026   2.668   3.098
13304TIP3   OH239854   8.065   5.237   2.410
13304TIP3    H139855   8.060   5.269   2.500
13304TIP3    H239856   8.151   5.266   2.379
13305TIP3   OH239857   1.829   0.792   2.619
13305TIP3    H139858   1.780   0.856   2.671
13305TIP3    H239859   1.918   0.796   2.654
13306TIP3   OH239860   1.308   4.745   4.683
13306TIP3    H139861   1.221   4.751   4.720
13306TIP3    H239862   1.305   4.801   4.605
13307TIP3   OH239863   1.125   3.460   1.734
13307TIP3    H139864   1.050   3.443   1.678
13307TIP3    H239865   1.166   3.375   1.747
13308TIP3   OH239866   3.394   4.153   1.185
13308TIP3    H139867   3.315   4.136   1.235
13308TIP3    H239868   3.463   4.161   1.251
13309TIP3   OH239869   0.441   0.818   4.237
13309TIP3    H139870   0.435   0.797   4.144
13309TIP3    H239871   0.521   0.775   4.267
13310TIP3   OH239872   2.105   3.558   4.303
13310TIP3    H139873   2.167   3.628   4.284
13310TIP3    H239874   2.140   3.482   4.256
13311TIP3   OH239875   3.217   1.877   0.042
13311TIP3    H139876   3.196   1.784   0.033
13311TIP3    H239877   3.209   1.912  -0.046
13312TIP3   OH239878   8.157   4.359   4.672
13312TIP3    H139879   8.067   4.365   4.703
13312TIP3    H239880   8.204   4.317   4.744
13313TIP3   OH239881   8.256   5.049   3.418
13313TIP3    H139882   8.302   5.011   3.343
13313TIP3    H239883   8.321   5.045   3.489
13314TIP3   OH239884   0.394   4.243   6.369
13314TIP3    H139885   0.401   4.279   6.457
13314TIP3    H239886   0.310   4.276   6.337
13315TIP3   OH239887   5.848   7.101   4.689
13315TIP3    H139888   5.874   7.194   4.690
13315TIP3    H239889   5.930   7.054   4.702
13316TIP3   OH239890   2.759   3.962   4.903
13316TIP3    H139891   2.686   3.960   4.841
13316TIP3    H239892   2.727   4.014   4.977
13317TIP3   OH239893   7.477   2.771   2.553
13317TIP3    H139894   7.488   2.737   2.642
13317TIP3    H239895   7.522   2.856   2.554
13318TIP3   OH239896   7.662   3.993   2.317
13318TIP3    H139897   7.640   3.971   2.227
13318TIP3    H239898   7.578   3.994   2.363
13319TIP3   OH239899   4.623   4.630   0.189
13319TIP3    H139900   4.701   4.583   0.217
13319TIP3    H239901   4.648   4.722   0.191
13320TIP3   OH239902   5.391   6.527   3.683
13320TIP3    H139903   5.341   6.576   3.617
13320TIP3    H239904   5.433   6.457   3.633
13321TIP3   OH239905   4.806   5.694   3.477
13321TIP3    H139906   4.748   5.749   3.424
13321TIP3    H239907   4.789   5.605   3.448
13322TIP3   OH239908   2.210   6.895   2.796
13322TIP3    H139909   2.155   6.858   2.865
13322TIP3    H239910   2.205   6.831   2.725
13323TIP3   OH239911   8.171   0.080   1.542
13323TIP3    H139912   8.246   0.039   1.586
13323TIP3    H239913   8.190   0.174   1.543
13324TIP3   OH239914   7.490   0.088   5.238
13324TIP3    H139915   7.559   0.065   5.176
13324TIP3    H239916   7.490   0.183   5.240
13325TIP3   OH239917   1.863   6.980   4.273
13325TIP3    H139918   1.937   7.010   4.221
13325TIP3    H239919   1.874   6.885   4.278
13326TIP3   OH239920   1.414   7.354   2.003
13326TIP3    H139921   1.411   7.379   1.911
13326TIP3    H239922   1.326   7.372   2.036
13327TIP3   OH239923   1.656   6.936   5.675
13327TIP3    H139924   1.587   6.920   5.611
13327TIP3    H239925   1.640   7.026   5.704
13328TIP3   OH239926   1.104   1.527   1.019
13328TIP3    H139927   1.172   1.567   0.965
13328TIP3    H239928   1.023   1.539   0.968
13329TIP3   OH239929   6.104   2.980   0.399
13329TIP3    H139930   6.028   2.958   0.453
13329TIP3    H239931   6.173   2.922   0.431
13330TIP3   OH239932   7.598   7.370   4.697
13330TIP3    H139933   7.603   7.458   4.733
13330TIP3    H239934   7.517   7.370   4.646
13331TIP3   OH239935   2.931   5.035   0.632
13331TIP3    H139936   2.940   5.005   0.722
13331TIP3    H239937   2.836   5.043   0.619
13332TIP3   OH239938   1.124   1.709   4.741
13332TIP3    H139939   1.065   1.683   4.812
13332TIP3    H239940   1.167   1.787   4.774
13333TIP3   OH239941   2.891   6.028   3.554
13333TIP3    H139942   2.885   6.120   3.529
13333TIP3    H239943   2.806   5.991   3.529
13334TIP3   OH239944   2.480   1.283   4.323
13334TIP3    H139945   2.469   1.373   4.292
13334TIP3    H239946   2.453   1.229   4.249
13335TIP3   OH239947   1.530   5.532   0.620
13335TIP3    H139948   1.579   5.611   0.643
13335TIP3    H239949   1.555   5.513   0.530
13336TIP3   OH239950   5.452   2.719   6.594
13336TIP3    H139951   5.538   2.743   6.629
13336TIP3    H239952   5.471   2.654   6.527
13337TIP3   OH239953   7.514   3.040   4.273
13337TIP3    H139954   7.420   3.027   4.287
13337TIP3    H239955   7.545   3.078   4.355
13338TIP3   OH239956   5.084   2.630   1.083
13338TIP3    H139957   5.110   2.545   1.047
13338TIP3    H239958   5.166   2.678   1.094
13339TIP3   OH239959   4.488   7.003   4.654
13339TIP3    H139960   4.448   6.917   4.642
13339TIP3    H239961   4.534   6.997   4.738
13340TIP3   OH239962   4.638   4.653   2.557
13340TIP3    H139963   4.661   4.651   2.464
13340TIP3    H239964   4.548   4.686   2.559
13341TIP3   OH239965   0.338   0.446   1.569
13341TIP3    H139966   0.261   0.420   1.618
13341TIP3    H239967   0.307   0.517   1.512
13342TIP3   OH239968   5.175   4.849   2.970
13342TIP3    H139969   5.234   4.922   2.988
13342TIP3    H239970   5.106   4.857   3.036
13343TIP3   OH239971   2.191   3.401   5.306
13343TIP3    H139972   2.101   3.386   5.278
13343TIP3    H239973   2.243   3.345   5.249
13344TIP3   OH239974   5.521   1.142   1.484
13344TIP3    H139975   5.427   1.137   1.465
13344TIP3    H239976   5.527   1.188   1.567
13345TIP3   OH239977   7.575   0.992   2.647
13345TIP3    H139978   7.542   0.994   2.737
13345TIP3    H239979   7.573   1.084   2.619
13346TIP3   OH239980   2.119   5.802   2.302
13346TIP3    H139981   2.091   5.770   2.216
13346TIP3    H239982   2.214   5.792   2.301
13347TIP3   OH239983   7.155   3.991   2.171
13347TIP3    H139984   7.109   3.933   2.231
13347TIP3    H239985   7.109   3.980   2.088
13348TIP3   OH239986   8.302   1.020   1.218
13348TIP3    H139987   8.230   1.038   1.159
13348TIP3    H239988   8.271   1.048   1.304
13349TIP3   OH239989   3.742   0.809   1.179
13349TIP3    H139990   3.670   0.855   1.224
13349TIP3    H239991   3.698   0.753   1.115
13350TIP3   OH239992   4.789   4.730   5.233
13350TIP3    H139993   4.771   4.812   5.188
13350TIP3    H239994   4.754   4.743   5.321
13351TIP3   OH239995   3.548   3.031   2.730
13351TIP3    H139996   3.482   3.024   2.799
13351TIP3    H239997   3.630   3.003   2.772
13352TIP3   OH239998   0.780   6.105   1.888
13352TIP3    H139999   0.873   6.110   1.912
13352TIP3    H240000   0.780   6.065   1.802
13353TIP3   OH240001   4.809   7.683   1.155
13353TIP3    H140002   4.747   7.632   1.208
13353TIP3    H240003   4.834   7.623   1.084
13354TIP3   OH240004   3.767   5.881   6.494
13354TIP3    H140005   3.768   5.930   6.576
13354TIP3    H240006   3.702   5.812   6.508
13355TIP3   OH240007   7.393   4.436   3.473
13355TIP3    H140008   7.324   4.382   3.434
13355TIP3    H240009   7.352   4.473   3.551
13356TIP3   OH240010   3.512   5.597   0.681
13356TIP3    H140011   3.479   5.657   0.748
13356TIP3    H240012   3.468   5.625   0.601
13357TIP3   OH240013   4.117   5.895   5.149
13357TIP3    H140014   4.104   5.982   5.188
13357TIP3    H240015   4.058   5.893   5.074
13358TIP3   OH240016   6.138   2.317   0.219
13358TIP3    H140017   6.183   2.237   0.247
13358TIP3    H240018   6.045   2.296   0.224
13359TIP3   OH240019   2.822   3.735   3.861
13359TIP3    H140020   2.846   3.678   3.934
13359TIP3    H240021   2.859   3.821   3.884
13360TIP3   OH240022   3.703   7.646   1.798
13360TIP3    H140023   3.734   7.588   1.729
13360TIP3    H240024   3.766   7.634   1.869
13361TIP3   OH240025   1.711   7.537   1.172
13361TIP3    H140026   1.665   7.459   1.203
13361TIP3    H240027   1.722   7.590   1.251
13362TIP3   OH240028   5.077   6.890   1.413
13362TIP3    H140029   5.092   6.830   1.486
13362TIP3    H240030   5.164   6.907   1.377
13363TIP3   OH240031   4.165   5.164  -0.039
13363TIP3    H140032   4.198   5.080  -0.005
13363TIP3    H240033   4.073   5.147  -0.059
13364TIP3   OH240034   6.640   4.522   3.913
13364TIP3    H140035   6.545   4.524   3.924
13364TIP3    H240036   6.668   4.444   3.960
13365TIP3   OH240037   6.821   2.096   4.117
13365TIP3    H140038   6.800   2.190   4.116
13365TIP3    H240039   6.890   2.088   4.183
13366TIP3   OH240040   1.484   1.131   2.829
13366TIP3    H140041   1.398   1.090   2.839
13366TIP3    H240042   1.515   1.145   2.919
13367TIP3   OH240043   1.576   4.923   1.389
13367TIP3    H140044   1.605   4.832   1.382
13367TIP3    H240045   1.484   4.921   1.361
13368TIP3   OH240046   3.215   6.685   2.099
13368TIP3    H140047   3.162   6.619   2.056
13368TIP3    H240048   3.172   6.768   2.080
13369TIP3   OH240049   4.487   0.749   5.169
13369TIP3    H140050   4.528   0.834   5.160
13369TIP3    H240051   4.427   0.743   5.094
13370TIP3   OH240052   5.401   6.539   1.776
13370TIP3    H140053   5.389   6.535   1.871
13370TIP3    H240054   5.353   6.618   1.749
13371TIP3   OH240055   3.776   1.632   6.078
13371TIP3    H140056   3.812   1.717   6.054
13371TIP3    H240057   3.790   1.578   6.000
13372TIP3   OH240058   3.616   4.586   4.535
13372TIP3    H140059   3.690   4.628   4.492
13372TIP3    H240060   3.595   4.644   4.608
13373TIP3   OH240061   1.308   4.320   0.100
13373TIP3    H140062   1.357   4.387   0.053
13373TIP3    H240063   1.300   4.248   0.039
13374TIP3   OH240064   6.961   2.643   5.818
13374TIP3    H140065   6.923   2.619   5.734
13374TIP3    H240066   6.888   2.637   5.880
13375TIP3   OH240067   5.579   5.008   0.906
13375TIP3    H140068   5.539   4.933   0.863
13375TIP3    H240069   5.572   4.988   1.000
13376TIP3   OH240070   0.586   4.174   0.761
13376TIP3    H140071   0.670   4.199   0.723
13376TIP3    H240072   0.547   4.114   0.698
13377TIP3   OH240073   6.459   5.788   2.599
13377TIP3    H140074   6.501   5.871   2.575
13377TIP3    H240075   6.462   5.737   2.518
13378TIP3   OH240076   6.430   4.173   0.513
13378TIP3    H140077   6.357   4.121   0.480
13378TIP3    H240078   6.409   4.187   0.605
13379TIP3   OH240079   6.325   1.099   2.855
13379TIP3    H140080   6.391   1.081   2.922
13379TIP3    H240081   6.324   1.019   2.802
13380TIP3   OH240082   1.725   6.296   5.653
13380TIP3    H140083   1.684   6.357   5.714
13380TIP3    H240084   1.815   6.287   5.685
13381TIP3   OH240085   1.586   1.421   5.688
13381TIP3    H140086   1.582   1.515   5.672
13381TIP3    H240087   1.509   1.385   5.642
13382TIP3   OH240088   5.056   6.832   0.474
13382TIP3    H140089   5.146   6.830   0.441
13382TIP3    H240090   5.033   6.925   0.476
13383TIP3   OH240091   5.287   1.303   3.358
13383TIP3    H140092   5.340   1.346   3.425
13383TIP3    H240093   5.235   1.373   3.320
13384TIP3   OH240094   2.628   4.446   4.519
13384TIP3    H140095   2.541   4.470   4.551
13384TIP3    H240096   2.685   4.518   4.547
13385TIP3   OH240097   7.696   3.702   4.883
13385TIP3    H140098   7.614   3.691   4.932
13385TIP3    H240099   7.680   3.778   4.827
13386TIP3   OH240100   4.922   2.346   5.036
13386TIP3    H140101   4.870   2.417   5.074
13386TIP3    H240102   4.975   2.389   4.968
13387TIP3   OH240103   4.016   3.488   5.970
13387TIP3    H140104   4.039   3.439   5.891
13387TIP3    H240105   4.000   3.578   5.939
13388TIP3   OH240106   4.007   2.553   3.615
13388TIP3    H140107   3.933   2.564   3.674
13388TIP3    H240108   4.045   2.469   3.640
13389TIP3   OH240109   7.672   1.974   5.953
13389TIP3    H140110   7.706   2.008   6.036
13389TIP3    H240111   7.729   2.014   5.887
13390TIP3   OH240112   4.332   4.766   3.750
13390TIP3    H140113   4.303   4.851   3.783
13390TIP3    H240114   4.422   4.758   3.781
13391TIP3   OH240115   5.595   6.588   4.235
13391TIP3    H140116   5.527   6.548   4.289
13391TIP3    H240117   5.590   6.541   4.152
13392TIP3   OH240118   2.122   3.546   6.212
13392TIP3    H140119   2.100   3.604   6.285
13392TIP3    H240120   2.041   3.538   6.162
13393TIP3   OH240121   8.008   1.921   3.812
13393TIP3    H140122   8.016   2.008   3.851
13393TIP3    H240123   8.011   1.861   3.886
13394TIP3   OH240124   7.675   5.063   4.608
13394TIP3    H140125   7.675   4.991   4.545
13394TIP3    H240126   7.721   5.134   4.563
13395TIP3   OH240127   3.170   4.662   1.671
13395TIP3    H140128   3.257   4.704   1.671
13395TIP3    H240129   3.114   4.724   1.718
13396TIP3   OH240130   7.236   2.982   0.194
13396TIP3    H140131   7.305   2.925   0.228
13396TIP3    H240132   7.277   3.028   0.120
13397TIP3   OH240133   6.384   5.512   0.839
13397TIP3    H140134   6.355   5.469   0.759
13397TIP3    H240135   6.357   5.603   0.829
13398TIP3   OH240136   4.915   7.252   2.765
13398TIP3    H140137   4.897   7.340   2.798
13398TIP3    H240138   4.909   7.196   2.842
13399TIP3   OH240139   7.377   2.220   0.309
13399TIP3    H140140   7.311   2.261   0.364
13399TIP3    H240141   7.410   2.146   0.361
13400TIP3   OH240142   0.933   3.443   4.471
13400TIP3    H140143   0.883   3.517   4.506
13400TIP3    H240144   0.891   3.423   4.387
13401TIP3   OH240145   8.069   2.263   0.405
13401TIP3    H140146   8.142   2.254   0.466
13401TIP3    H240147   8.053   2.174   0.374
13402TIP3   OH240148   5.775   3.112   2.422
13402TIP3    H140149   5.757   3.019   2.413
13402TIP3    H240150   5.727   3.153   2.350
13403TIP3   OH240151   4.189   3.446   2.931
13403TIP3    H140152   4.129   3.424   3.002
13403TIP3    H240153   4.264   3.485   2.976
13404TIP3   OH240154   2.773   0.718   2.889
13404TIP3    H140155   2.723   0.752   2.963
13404TIP3    H240156   2.735   0.632   2.872
13405TIP3   OH240157   2.645   2.090   0.777
13405TIP3    H140158   2.669   2.143   0.853
13405TIP3    H240159   2.638   2.001   0.812
13406TIP3   OH240160   2.095   6.909   6.782
13406TIP3    H140161   2.141   6.834   6.744
13406TIP3    H240162   2.110   6.980   6.720
13407TIP3   OH240163   8.087   5.689   6.291
13407TIP3    H140164   8.157   5.752   6.311
13407TIP3    H240165   8.097   5.621   6.358
13408TIP3   OH240166   6.940   0.238   2.057
13408TIP3    H140167   6.906   0.183   1.987
13408TIP3    H240168   6.930   0.184   2.136
13409TIP3   OH240169   7.339   3.126   1.543
13409TIP3    H140170   7.414   3.067   1.544
13409TIP3    H240171   7.353   3.184   1.618
13410TIP3   OH240172   2.272   2.970   3.629
13410TIP3    H140173   2.297   3.053   3.670
13410TIP3    H240174   2.177   2.976   3.619
13411TIP3   OH240175   6.730   6.696   3.865
13411TIP3    H140176   6.766   6.633   3.801
13411TIP3    H240177   6.651   6.654   3.898
13412TIP3   OH240178   3.951   1.606   0.240
13412TIP3    H140179   3.873   1.551   0.248
13412TIP3    H240180   3.975   1.600   0.147
13413TIP3   OH240181   0.851   1.745   5.532
13413TIP3    H140182   0.766   1.702   5.519
13413TIP3    H240183   0.907   1.709   5.463
13414TIP3   OH240184   6.415   5.121   4.140
13414TIP3    H140185   6.466   5.085   4.212
13414TIP3    H240186   6.461   5.093   4.061
13415TIP3   OH240187   5.216   6.514   1.999
13415TIP3    H140188   5.187   6.488   1.912
13415TIP3    H240189   5.176   6.600   2.013
13416TIP3   OH240190   5.408   6.359   1.561
13416TIP3    H140191   5.459   6.431   1.526
13416TIP3    H240192   5.367   6.395   1.640
13417TIP3   OH240193   2.479   5.642   1.031
13417TIP3    H140194   2.464   5.586   0.954
13417TIP3    H240195   2.528   5.716   0.997
13418TIP3   OH240196   4.471   2.032   3.621
13418TIP3    H140197   4.560   2.020   3.655
13418TIP3    H240198   4.423   2.071   3.694
13419TIP3   OH240199   2.472   1.941   4.497
13419TIP3    H140200   2.432   1.984   4.573
13419TIP3    H240201   2.556   1.908   4.529
13420TIP3   OH240202   6.885   5.839   2.930
13420TIP3    H140203   6.977   5.841   2.906
13420TIP3    H240204   6.840   5.876   2.854
13421TIP3   OH240205   0.092   2.272   4.673
13421TIP3    H140206   0.004   2.287   4.638
13421TIP3    H240207   0.099   2.331   4.747
13422TIP3   OH240208   0.836   4.049   3.760
13422TIP3    H140209   0.780   3.993   3.813
13422TIP3    H240210   0.775   4.095   3.702
13423TIP3   OH240211   6.145   1.407   4.661
13423TIP3    H140212   6.066   1.365   4.628
13423TIP3    H240213   6.215   1.377   4.603
13424TIP3   OH240214   2.456   3.366   2.739
13424TIP3    H140215   2.361   3.350   2.744
13424TIP3    H240216   2.490   3.329   2.821
13425TIP3   OH240217   0.631   6.588   1.581
13425TIP3    H140218   0.712   6.554   1.543
13425TIP3    H240219   0.577   6.511   1.595
13426TIP3   OH240220   2.063   1.879   5.328
13426TIP3    H140221   1.995   1.836   5.277
13426TIP3    H240222   2.069   1.967   5.290
13427TIP3   OH240223   0.044   3.145   6.626
13427TIP3    H140224   0.102   3.198   6.571
13427TIP3    H240225   0.017   3.204   6.697
13428TIP3   OH240226   3.301   1.096   6.304
13428TIP3    H140227   3.249   1.174   6.325
13428TIP3    H240228   3.267   1.067   6.219
13429TIP3   OH240229   6.876   6.420   3.029
13429TIP3    H140230   6.842   6.335   3.000
13429TIP3    H240231   6.863   6.478   2.954
13430TIP3   OH240232   4.005   5.855   4.339
13430TIP3    H140233   4.096   5.834   4.319
13430TIP3    H240234   4.010   5.925   4.404
13431TIP3   OH240235   6.694   7.724   6.251
13431TIP3    H140236   6.669   7.643   6.296
13431TIP3    H240237   6.744   7.774   6.317
13432TIP3   OH240238   0.232   3.019   3.006
13432TIP3    H140239   0.270   2.933   3.017
13432TIP3    H240240   0.280   3.058   2.932
13433TIP3   OH240241   8.111   4.597   4.478
13433TIP3    H140242   8.186   4.537   4.484
13433TIP3    H240243   8.131   4.652   4.402
13434TIP3   OH240244   8.194   1.385   2.456
13434TIP3    H140245   8.162   1.472   2.431
13434TIP3    H240246   8.278   1.402   2.499
13435TIP3   OH240247   1.005   4.948   6.516
13435TIP3    H140248   0.965   4.984   6.437
13435TIP3    H240249   1.088   4.996   6.525
13436TIP3   OH240250   0.795   2.718   2.591
13436TIP3    H140251   0.846   2.798   2.586
13436TIP3    H240252   0.712   2.740   2.548
13437TIP3   OH240253   4.479   6.248   2.145
13437TIP3    H140254   4.486   6.221   2.054
13437TIP3    H240255   4.398   6.208   2.176
13438TIP3   OH240256   6.330   6.374   5.557
13438TIP3    H140257   6.322   6.278   5.551
13438TIP3    H240258   6.282   6.396   5.637
13439TIP3   OH240259   2.606   4.505   2.306
13439TIP3    H140260   2.596   4.452   2.385
13439TIP3    H240261   2.700   4.515   2.295
13440TIP3   OH240262   2.302  -0.031   2.244
13440TIP3    H140263   2.237   0.012   2.188
13440TIP3    H240264   2.274  -0.010   2.333
13441TIP3   OH240265   3.609   5.076   3.568
13441TIP3    H140266   3.610   5.093   3.662
13441TIP3    H240267   3.681   5.129   3.534
13442TIP3   OH240268   5.661   4.397   1.937
13442TIP3    H140269   5.722   4.449   1.883
13442TIP3    H240270   5.578   4.444   1.931
13443TIP3   OH240271   4.422   2.601   4.468
13443TIP3    H140272   4.464   2.619   4.553
13443TIP3    H240273   4.486   2.549   4.420
13444TIP3   OH240274   0.165   7.566   0.336
13444TIP3    H140275   0.103   7.629   0.300
13444TIP3    H240276   0.113   7.487   0.350
13445TIP3   OH240277   4.087   2.203   5.427
13445TIP3    H140278   4.062   2.226   5.337
13445TIP3    H240279   4.047   2.117   5.441
13446TIP3   OH240280   0.198   2.240   3.929
13446TIP3    H140281   0.168   2.297   3.859
13446TIP3    H240282   0.173   2.285   4.010
13447TIP3   OH240283   6.469   2.225   3.184
13447TIP3    H140284   6.378   2.201   3.199
13447TIP3    H240285   6.520   2.165   3.237
13448TIP3   OH240286   3.923   5.925   4.974
13448TIP3    H140287   3.847   5.981   4.987
13448TIP3    H240288   3.986   5.981   4.929
13449TIP3   OH240289   5.906   3.011   1.637
13449TIP3    H140290   5.951   2.940   1.683
13449TIP3    H240291   5.825   3.024   1.686
13450TIP3   OH240292   1.279   6.631   3.608
13450TIP3    H140293   1.189   6.634   3.639
13450TIP3    H240294   1.303   6.539   3.611
13451TIP3   OH240295   6.157   5.625   1.221
13451TIP3    H140296   6.238   5.578   1.200
13451TIP3    H240297   6.092   5.587   1.162
13452TIP3   OH240298   3.288   2.616   3.347
13452TIP3    H140299   3.318   2.572   3.267
13452TIP3    H240300   3.369   2.639   3.394
13453TIP3   OH240301   6.115   0.392   2.248
13453TIP3    H140302   6.178   0.321   2.240
13453TIP3    H240303   6.108   0.408   2.342
13454TIP3   OH240304   4.634   0.419   6.448
13454TIP3    H140305   4.567   0.459   6.503
13454TIP3    H240306   4.713   0.421   6.501
13455TIP3   OH240307  -0.024   1.641   3.906
13455TIP3    H140308   0.069   1.641   3.883
13455TIP3    H240309  -0.069   1.660   3.824
13456TIP3   OH240310   0.134   5.497   0.568
13456TIP3    H140311   0.115   5.406   0.544
13456TIP3    H240312   0.138   5.544   0.485
13457TIP3   OH240313   2.509   3.339   0.582
13457TIP3    H140314   2.463   3.318   0.663
13457TIP3    H240315   2.440   3.338   0.515
13458TIP3   OH240316   6.244   4.144   2.538
13458TIP3    H140317   6.187   4.220   2.530
13458TIP3    H240318   6.302   4.164   2.612
13459TIP3   OH240319   0.476   5.405   5.174
13459TIP3    H140320   0.470   5.366   5.262
13459TIP3    H240321   0.401   5.464   5.169
13460TIP3   OH240322   4.270   5.364   6.709
13460TIP3    H140323   4.224   5.311   6.773
13460TIP3    H240324   4.224   5.448   6.709
13461TIP3   OH240325   0.661   5.191   4.410
13461TIP3    H140326   0.575   5.189   4.452
13461TIP3    H240327   0.721   5.213   4.481
13462TIP3   OH240328   7.712   4.551   3.924
13462TIP3    H140329   7.699   4.602   3.844
13462TIP3    H240330   7.706   4.615   3.994
13463TIP3   OH240331   3.999   6.893   0.623
13463TIP3    H140332   4.072   6.909   0.683
13463TIP3    H240333   3.955   6.977   0.615
13464TIP3   OH240334   0.302   2.956   3.945
13464TIP3    H140335   0.294   3.011   3.867
13464TIP3    H240336   0.367   2.890   3.921
13465TIP3   OH240337   1.368   4.609   0.042
13465TIP3    H140338   1.341   4.663   0.116
13465TIP3    H240339   1.286   4.587  -0.003
13466TIP3   OH240340   1.213   6.713   5.344
13466TIP3    H140341   1.203   6.665   5.261
13466TIP3    H240342   1.192   6.804   5.321
13467TIP3   OH240343   5.705   7.543   1.498
13467TIP3    H140344   5.671   7.479   1.560
13467TIP3    H240345   5.790   7.509   1.472
13468TIP3   OH240346   8.148   5.740   4.201
13468TIP3    H140347   8.133   5.646   4.193
13468TIP3    H240348   8.123   5.776   4.116
13469TIP3   OH240349   1.181   2.368   1.245
13469TIP3    H140350   1.226   2.381   1.161
13469TIP3    H240351   1.144   2.280   1.238
13470TIP3   OH240352   1.267   0.726   4.720
13470TIP3    H140353   1.238   0.816   4.709
13470TIP3    H240354   1.268   0.712   4.814
13471TIP3   OH240355   2.036   7.584   4.053
13471TIP3    H140356   2.021   7.672   4.088
13471TIP3    H240357   2.114   7.553   4.098
13472TIP3   OH240358   3.636   0.240   6.649
13472TIP3    H140359   3.633   0.315   6.589
13472TIP3    H240360   3.677   0.170   6.599
13473TIP3   OH240361   3.926   1.984   1.050
13473TIP3    H140362   4.009   1.937   1.064
13473TIP3    H240363   3.925   2.052   1.117
13474TIP3   OH240364   5.970   0.321   0.171
13474TIP3    H140365   6.042   0.378   0.197
13474TIP3    H240366   5.891   0.368   0.195
13475TIP3   OH240367   6.100   6.476   2.464
13475TIP3    H140368   6.008   6.451   2.477
13475TIP3    H240369   6.144   6.396   2.437
13476TIP3   OH240370   1.447   3.470   3.972
13476TIP3    H140371   1.514   3.470   4.040
13476TIP3    H240372   1.364   3.463   4.020
13477TIP3   OH240373   7.258   6.394   4.846
13477TIP3    H140374   7.244   6.488   4.850
13477TIP3    H240375   7.324   6.376   4.912
13478TIP3   OH240376   3.923   3.679   4.844
13478TIP3    H140377   3.970   3.687   4.760
13478TIP3    H240378   3.837   3.718   4.827
13479TIP3   OH240379   0.178   3.898   0.891
13479TIP3    H140380   0.267   3.861   0.894
13479TIP3    H240381   0.159   3.921   0.982
13480TIP3   OH240382   8.174   2.824   4.727
13480TIP3    H140383   8.098   2.840   4.783
13480TIP3    H240384   8.203   2.736   4.752
13481TIP3   OH240385   5.984   6.109   1.199
13481TIP3    H140386   6.070   6.134   1.234
13481TIP3    H240387   5.982   6.014   1.209
13482TIP3   OH240388   0.232   1.093   6.604
13482TIP3    H140389   0.279   1.115   6.684
13482TIP3    H240390   0.210   1.178   6.565
13483TIP3   OH240391   1.869   4.213   1.646
13483TIP3    H140392   1.807   4.153   1.605
13483TIP3    H240393   1.914   4.256   1.573
13484TIP3   OH240394   2.647   3.745   5.145
13484TIP3    H140395   2.669   3.836   5.164
13484TIP3    H240396   2.557   3.734   5.176
13485TIP3   OH240397   8.152   3.081   0.680
13485TIP3    H140398   8.204   3.153   0.716
13485TIP3    H240399   8.215   3.029   0.629
13486TIP3   OH240400   0.359   3.725   6.159
13486TIP3    H140401   0.321   3.812   6.150
13486TIP3    H240402   0.446   3.740   6.195
13487TIP3   OH240403   4.189   5.991   1.113
13487TIP3    H140404   4.152   5.904   1.101
13487TIP3    H240405   4.231   6.011   1.029
13488TIP3   OH240406   4.672   3.033   6.173
13488TIP3    H140407   4.675   3.002   6.082
13488TIP3    H240408   4.603   3.100   6.172
13489TIP3   OH240409   1.679   4.373   0.240
13489TIP3    H140410   1.599   4.386   0.289
13489TIP3    H240411   1.654   4.387   0.149
13490TIP3   OH240412   2.999   0.728   3.410
13490TIP3    H140413   3.066   0.794   3.395
13490TIP3    H240414   3.039   0.646   3.383
13491TIP3   OH240415   6.122   2.282   1.382
13491TIP3    H140416   6.135   2.372   1.351
13491TIP3    H240417   6.194   2.267   1.443
13492TIP3   OH240418   6.907   3.266   6.516
13492TIP3    H140419   6.880   3.178   6.543
13492TIP3    H240420   6.951   3.301   6.593
13493TIP3   OH240421   1.451   0.160   4.573
13493TIP3    H140422   1.387   0.153   4.643
13493TIP3    H240423   1.412   0.113   4.499
13494TIP3   OH240424   4.234   4.453   4.535
13494TIP3    H140425   4.182   4.433   4.457
13494TIP3    H240426   4.289   4.526   4.509
13495TIP3   OH240427   6.829   7.670   5.803
13495TIP3    H140428   6.798   7.761   5.803
13495TIP3    H240429   6.751   7.618   5.823
13496TIP3   OH240430   5.200   3.297   1.316
13496TIP3    H140431   5.126   3.341   1.274
13496TIP3    H240432   5.277   3.343   1.283
13497TIP3   OH240433   2.424   4.997   1.017
13497TIP3    H140434   2.469   4.952   1.088
13497TIP3    H240435   2.385   5.074   1.059
13498TIP3   OH240436   1.344  -0.030   3.615
13498TIP3    H140437   1.401  -0.005   3.688
13498TIP3    H240438   1.279   0.039   3.610
13499TIP3   OH240439   0.628   6.459   3.708
13499TIP3    H140440   0.677   6.473   3.789
13499TIP3    H240441   0.694   6.462   3.639
13500TIP3   OH240442   4.770   0.394   2.024
13500TIP3    H140443   4.785   0.439   1.941
13500TIP3    H240444   4.789   0.460   2.091
13501TIP3   OH240445   5.392   1.211   5.093
13501TIP3    H140446   5.328   1.150   5.129
13501TIP3    H240447   5.348   1.296   5.093
13502TIP3   OH240448   7.367   2.094   3.349
13502TIP3    H140449   7.417   2.154   3.403
13502TIP3    H240450   7.275   2.113   3.370
13503TIP3   OH240451   1.937   1.838   3.694
13503TIP3    H140452   1.848   1.863   3.668
13503TIP3    H240453   1.974   1.799   3.615
13504TIP3   OH240454   0.308   5.179   1.196
13504TIP3    H140455   0.229   5.207   1.150
13504TIP3    H240456   0.308   5.230   1.278
13505TIP3   OH240457   3.046   2.164   2.311
13505TIP3    H140458   3.053   2.259   2.303
13505TIP3    H240459   3.086   2.130   2.232
13506TIP3   OH240460   2.473   3.902   2.738
13506TIP3    H140461   2.414   3.966   2.699
13506TIP3    H240462   2.495   3.842   2.667
13507TIP3   OH240463   1.623   0.898   1.163
13507TIP3    H140464   1.692   0.951   1.122
13507TIP3    H240465   1.564   0.876   1.091
13508TIP3   OH240466   1.489   1.769   4.845
13508TIP3    H140467   1.432   1.843   4.867
13508TIP3    H240468   1.546   1.802   4.776
13509TIP3   OH240469   8.032   7.677   5.511
13509TIP3    H140470   8.036   7.657   5.605
13509TIP3    H240471   8.115   7.644   5.476
13510TIP3   OH240472   1.964   0.194   4.064
13510TIP3    H140473   2.029   0.132   4.097
13510TIP3    H240474   2.000   0.280   4.085
13511TIP3   OH240475   7.202   2.244   2.765
13511TIP3    H140476   7.170   2.320   2.815
13511TIP3    H240477   7.295   2.238   2.787
13512TIP3   OH240478   0.847   7.869   6.310
13512TIP3    H140479   0.927   7.818   6.321
13512TIP3    H240480   0.796   7.851   6.389
13513TIP3   OH240481   2.542   1.429   0.209
13513TIP3    H140482   2.460   1.392   0.239
13513TIP3    H240483   2.518   1.513   0.171
13514TIP3   OH240484   3.559   6.980   0.895
13514TIP3    H140485   3.554   7.041   0.822
13514TIP3    H240486   3.624   6.915   0.867
13515TIP3   OH240487   5.491   6.340   4.747
13515TIP3    H140488   5.555   6.409   4.731
13515TIP3    H240489   5.437   6.373   4.819
13516TIP3   OH240490   5.501   7.676   6.704
13516TIP3    H140491   5.423   7.731   6.704
13516TIP3    H240492   5.490   7.621   6.626
13517TIP3   OH240493   4.935   1.096   3.585
13517TIP3    H140494   4.919   1.006   3.613
13517TIP3    H240495   4.912   1.097   3.492
13518TIP3   OH240496   2.415   6.581   2.086
13518TIP3    H140497   2.488   6.642   2.074
13518TIP3    H240498   2.448   6.498   2.053
13519TIP3   OH240499   7.609   4.265   3.886
13519TIP3    H140500   7.696   4.305   3.881
13519TIP3    H240501   7.591   4.236   3.796
13520TIP3   OH240502   0.861   6.622   1.107
13520TIP3    H140503   0.857   6.548   1.047
13520TIP3    H240504   0.769   6.647   1.119
13521TIP3   OH240505   4.881   1.863   4.904
13521TIP3    H140506   4.880   1.955   4.930
13521TIP3    H240507   4.961   1.828   4.943
13522TIP3   OH240508   1.603   4.664   2.379
13522TIP3    H140509   1.669   4.595   2.366
13522TIP3    H240510   1.598   4.675   2.474
13523TIP3   OH240511   6.090   4.803   0.145
13523TIP3    H140512   6.078   4.723   0.196
13523TIP3    H240513   6.010   4.853   0.160
13524TIP3   OH240514   4.002   5.030   0.832
13524TIP3    H140515   3.989   5.064   0.920
13524TIP3    H240516   3.994   5.106   0.775
13525TIP3   OH240517   2.238   3.352   4.502
13525TIP3    H140518   2.287   3.317   4.427
13525TIP3    H240519   2.147   3.330   4.484
13526TIP3   OH240520   7.850   5.762   2.384
13526TIP3    H140521   7.929   5.782   2.335
13526TIP3    H240522   7.841   5.834   2.446
13527TIP3   OH240523   3.833   4.627   3.378
13527TIP3    H140524   3.826   4.655   3.287
13527TIP3    H240525   3.808   4.704   3.429
13528TIP3   OH240526   8.272   4.136   5.220
13528TIP3    H140527   8.343   4.129   5.156
13528TIP3    H240528   8.244   4.046   5.236
13529TIP3   OH240529   4.269   0.310   6.108
13529TIP3    H140530   4.259   0.307   6.203
13529TIP3    H240531   4.318   0.391   6.092
13530TIP3   OH240532   8.071   6.978   0.197
13530TIP3    H140533   8.151   7.027   0.181
13530TIP3    H240534   8.100   6.894   0.232
13531TIP3   OH240535   0.707   5.544   2.760
13531TIP3    H140536   0.665   5.585   2.835
13531TIP3    H240537   0.741   5.618   2.709
13532TIP3   OH240538   5.957   5.799   4.452
13532TIP3    H140539   5.874   5.829   4.415
13532TIP3    H240540   5.989   5.733   4.390
13533TIP3   OH240541   1.521   0.509   4.895
13533TIP3    H140542   1.512   0.485   4.803
13533TIP3    H240543   1.610   0.542   4.902
13534TIP3   OH240544   3.687   2.576   4.701
13534TIP3    H140545   3.714   2.488   4.675
13534TIP3    H240546   3.762   2.610   4.751
13535TIP3   OH240547   7.855   2.707   4.699
13535TIP3    H140548   7.799   2.763   4.646
13535TIP3    H240549   7.889   2.643   4.637
13536TIP3   OH240550   6.007   4.463   2.082
13536TIP3    H140551   5.920   4.425   2.076
13536TIP3    H240552   5.991   4.556   2.100
13537TIP3   OH240553   5.408   6.155   3.285
13537TIP3    H140554   5.330   6.207   3.262
13537TIP3    H240555   5.480   6.218   3.282
13538TIP3   OH240556   6.515   6.471   6.099
13538TIP3    H140557   6.488   6.410   6.031
13538TIP3    H240558   6.496   6.557   6.063
13539TIP3   OH240559   8.043   6.599   1.480
13539TIP3    H140560   7.983   6.596   1.405
13539TIP3    H240561   8.128   6.621   1.443
13540TIP3   OH240562   5.689   5.189   0.120
13540TIP3    H140563   5.635   5.110   0.119
13540TIP3    H240564   5.677   5.225   0.208
13541TIP3   OH240565   4.316   3.359   1.315
13541TIP3    H140566   4.318   3.445   1.273
13541TIP3    H240567   4.298   3.378   1.407
13542TIP3   OH240568   4.095   1.957   3.218
13542TIP3    H140569   4.020   1.897   3.218
13542TIP3    H240570   4.085   2.009   3.139
13543TIP3   OH240571   5.272   6.708   3.496
13543TIP3    H140572   5.178   6.714   3.483
13543TIP3    H240573   5.304   6.798   3.488
13544TIP3   OH240574   2.839   3.360   2.846
13544TIP3    H140575   2.855   3.307   2.768
13544TIP3    H240576   2.842   3.451   2.814
13545TIP3   OH240577   2.947   0.248   4.479
13545TIP3    H140578   2.905   0.318   4.529
13545TIP3    H240579   2.876   0.204   4.433
13546TIP3   OH240580   6.272   4.897   4.809
13546TIP3    H140581   6.311   4.923   4.893
13546TIP3    H240582   6.241   4.807   4.824
13547TIP3   OH240583   5.027   0.193   0.754
13547TIP3    H140584   5.023   0.180   0.848
13547TIP3    H240585   5.091   0.129   0.723
13548TIP3   OH240586   5.970   0.224   0.478
13548TIP3    H140587   5.915   0.183   0.545
13548TIP3    H240588   5.983   0.313   0.508
13549TIP3   OH240589   7.345   7.208   6.036
13549TIP3    H140590   7.318   7.117   6.021
13549TIP3    H240591   7.420   7.201   6.095
13550TIP3   OH240592   0.237   6.264   6.219
13550TIP3    H140593   0.143   6.250   6.225
13550TIP3    H240594   0.248   6.319   6.141
13551TIP3   OH240595   3.601   2.638   6.697
13551TIP3    H140596   3.673   2.701   6.700
13551TIP3    H240597   3.566   2.637   6.786
13552TIP3   OH240598   7.072   5.982   5.187
13552TIP3    H140599   7.090   6.051   5.124
13552TIP3    H240600   7.125   5.908   5.158
13553TIP3   OH240601   3.361   0.363   6.289
13553TIP3    H140602   3.370   0.434   6.225
13553TIP3    H240603   3.389   0.402   6.372
13554TIP3   OH240604   2.984   1.176   1.527
13554TIP3    H140605   3.001   1.084   1.546
13554TIP3    H240606   3.008   1.186   1.435
13555TIP3   OH240607   7.360   6.987   2.666
13555TIP3    H140608   7.379   7.078   2.688
13555TIP3    H240609   7.381   6.980   2.572
13556TIP3   OH240610   2.824   2.642   6.741
13556TIP3    H140611   2.891   2.604   6.684
13556TIP3    H240612   2.846   2.610   6.829
13557TIP3   OH240613   1.767   2.990   5.495
13557TIP3    H140614   1.692   2.934   5.514
13557TIP3    H240615   1.741   3.039   5.417
13558TIP3   OH240616   0.794   7.064   5.316
13558TIP3    H140617   0.775   7.141   5.369
13558TIP3    H240618   0.780   7.092   5.226
13559TIP3   OH240619   7.471   2.277   2.698
13559TIP3    H140620   7.469   2.371   2.681
13559TIP3    H240621   7.548   2.264   2.753
13560TIP3   OH240622   7.616   3.085   2.283
13560TIP3    H140623   7.636   3.163   2.334
13560TIP3    H240624   7.676   3.088   2.208
13561TIP3   OH240625   3.282   1.176   3.603
13561TIP3    H140626   3.362   1.126   3.585
13561TIP3    H240627   3.244   1.134   3.680
13562TIP3   OH240628   0.978   6.833   3.145
13562TIP3    H140629   1.000   6.805   3.056
13562TIP3    H240630   0.927   6.913   3.134
13563TIP3   OH240631   7.520   1.896   5.117
13563TIP3    H140632   7.468   1.935   5.046
13563TIP3    H240633   7.606   1.882   5.078
13564TIP3   OH240634   3.075   6.572   2.409
13564TIP3    H140635   3.004   6.571   2.473
13564TIP3    H240636   3.031   6.576   2.324
13565TIP3   OH240637   3.343   6.111   3.526
13565TIP3    H140638   3.428   6.080   3.495
13565TIP3    H240639   3.280   6.052   3.486
13566TIP3   OH240640   0.473   4.604   6.305
13566TIP3    H140641   0.380   4.625   6.295
13566TIP3    H240642   0.475   4.537   6.374
13567TIP3   OH240643   0.385   1.172   2.912
13567TIP3    H140644   0.327   1.245   2.892
13567TIP3    H240645   0.432   1.156   2.830
13568TIP3   OH240646   6.312   3.847   2.007
13568TIP3    H140647   6.394   3.897   2.003
13568TIP3    H240648   6.329   3.770   1.952
13569TIP3   OH240649   7.198   6.308   5.298
13569TIP3    H140650   7.293   6.319   5.289
13569TIP3    H240651   7.188   6.255   5.378
13570TIP3   OH240652   1.763   3.574   4.065
13570TIP3    H140653   1.827   3.626   4.113
13570TIP3    H240654   1.726   3.635   4.001
13571TIP3   OH240655   1.851   3.943   6.138
13571TIP3    H140656   1.763   3.958   6.174
13571TIP3    H240657   1.836   3.889   6.060
13572TIP3   OH240658   0.950   6.577   2.164
13572TIP3    H140659   1.009   6.641   2.124
13572TIP3    H240660   0.961   6.590   2.258
13573TIP3   OH240661   0.310   7.295   0.255
13573TIP3    H140662   0.235   7.288   0.316
13573TIP3    H240663   0.291   7.230   0.188
13574TIP3   OH240664   1.553   1.914   3.855
13574TIP3    H140665   1.493   1.892   3.926
13574TIP3    H240666   1.496   1.940   3.783
13575TIP3   OH240667   0.767   7.248   3.530
13575TIP3    H140668   0.752   7.195   3.608
13575TIP3    H240669   0.706   7.214   3.465
13576TIP3   OH240670   7.040   0.542   2.782
13576TIP3    H140671   7.070   0.609   2.720
13576TIP3    H240672   7.115   0.483   2.793
13577TIP3   OH240673   2.300   2.135   3.605
13577TIP3    H140674   2.277   2.124   3.513
13577TIP3    H240675   2.368   2.204   3.604
13578TIP3   OH240676   4.147   1.941   4.122
13578TIP3    H140677   4.119   2.012   4.179
13578TIP3    H240678   4.066   1.907   4.084
13579TIP3   OH240679   3.346   1.272   1.468
13579TIP3    H140680   3.342   1.340   1.535
13579TIP3    H240681   3.321   1.192   1.514
13580TIP3   OH240682   0.546   1.960   6.310
13580TIP3    H140683   0.468   1.927   6.354
13580TIP3    H240684   0.605   1.984   6.380
13581TIP3   OH240685   2.424   7.068   6.733
13581TIP3    H140686   2.328   7.069   6.727
13581TIP3    H240687   2.443   7.000   6.798
13582TIP3   OH240688   4.452   2.585   0.378
13582TIP3    H140689   4.374   2.600   0.433
13582TIP3    H240690   4.491   2.505   0.414
13583TIP3   OH240691   6.623   6.224   3.019
13583TIP3    H140692   6.707   6.194   2.984
13583TIP3    H240693   6.595   6.292   2.958
13584TIP3   OH240694   2.260   5.704   0.673
13584TIP3    H140695   2.281   5.618   0.707
13584TIP3    H240696   2.344   5.750   0.670
13585TIP3   OH240697   2.227   4.046   2.770
13585TIP3    H140698   2.278   4.124   2.745
13585TIP3    H240699   2.208   4.059   2.862
13586TIP3   OH240700   6.283   7.054   4.176
13586TIP3    H140701   6.361   7.036   4.124
13586TIP3    H240702   6.215   7.000   4.137
13587TIP3   OH240703   4.900   5.118   1.699
13587TIP3    H140704   4.990   5.086   1.689
13587TIP3    H240705   4.853   5.082   1.624
13588TIP3   OH240706   4.526   1.892   4.586
13588TIP3    H140707   4.515   1.865   4.677
13588TIP3    H240708   4.449   1.946   4.568
13589TIP3   OH240709   4.663   7.340   0.716
13589TIP3    H140710   4.733   7.284   0.749
13589TIP3    H240711   4.697   7.376   0.634
13590TIP3   OH240712   6.977   5.595   3.563
13590TIP3    H140713   6.911   5.590   3.494
13590TIP3    H240714   6.979   5.688   3.587
13591TIP3   OH240715   2.164   5.011   5.354
13591TIP3    H140716   2.100   5.080   5.373
13591TIP3    H240717   2.240   5.033   5.409
13592TIP3   OH240718   6.983   1.215   0.514
13592TIP3    H140719   6.984   1.289   0.575
13592TIP3    H240720   6.987   1.137   0.571
13593TIP3   OH240721   7.362   7.773   0.623
13593TIP3    H140722   7.376   7.865   0.599
13593TIP3    H240723   7.436   7.726   0.583
13594TIP3   OH240724   8.021   3.004   1.896
13594TIP3    H140725   8.072   3.084   1.905
13594TIP3    H240726   8.006   2.994   1.802
13595TIP3   OH240727   1.452   6.571   6.773
13595TIP3    H140728   1.400   6.579   6.693
13595TIP3    H240729   1.390   6.587   6.844
13596TIP3   OH240730   2.108   2.349   2.549
13596TIP3    H140731   2.111   2.283   2.480
13596TIP3    H240732   2.058   2.421   2.510
13597TIP3   OH240733   3.803   5.146   6.401
13597TIP3    H140734   3.885   5.157   6.450
13597TIP3    H240735   3.746   5.213   6.437
13598TIP3   OH240736   8.292   0.346   4.412
13598TIP3    H140737   8.244   0.426   4.433
13598TIP3    H240738   8.242   0.276   4.455
13599TIP3   OH240739   4.972   4.416   6.624
13599TIP3    H140740   4.912   4.352   6.587
13599TIP3    H240741   4.915   4.475   6.674
13600TIP3   OH240742   6.434   2.730   1.577
13600TIP3    H140743   6.463   2.807   1.625
13600TIP3    H240744   6.478   2.736   1.492
13601TIP3   OH240745   4.379   6.270   3.245
13601TIP3    H140746   4.372   6.208   3.318
13601TIP3    H240747   4.316   6.339   3.266
13602TIP3   OH240748   2.037   0.547   6.355
13602TIP3    H140749   1.987   0.513   6.281
13602TIP3    H240750   2.054   0.471   6.410
13603TIP3   OH240751   0.163   7.128   0.740
13603TIP3    H140752   0.180   7.221   0.721
13603TIP3    H240753   0.109   7.130   0.819
13604TIP3   OH240754   7.936   1.412   5.008
13604TIP3    H140755   7.890   1.373   5.082
13604TIP3    H240756   7.901   1.366   4.932
13605TIP3   OH240757   2.793   1.295   1.741
13605TIP3    H140758   2.829   1.383   1.755
13605TIP3    H240759   2.815   1.274   1.651
13606TIP3   OH240760   7.742   0.120   4.097
13606TIP3    H140761   7.707   0.186   4.038
13606TIP3    H240762   7.813   0.164   4.144
13607TIP3   OH240763   6.917   5.454   0.586
13607TIP3    H140764   6.957   5.528   0.541
13607TIP3    H240765   6.971   5.379   0.562
13608TIP3   OH240766   1.457   2.800   6.536
13608TIP3    H140767   1.531   2.800   6.597
13608TIP3    H240768   1.458   2.713   6.497
13609TIP3   OH240769   7.373   5.477   0.614
13609TIP3    H140770   7.346   5.495   0.704
13609TIP3    H240771   7.359   5.383   0.602
13610TIP3   OH240772   7.359   4.917   4.707
13610TIP3    H140773   7.390   4.846   4.763
13610TIP3    H240774   7.362   4.880   4.618
13611TIP3   OH240775   0.228   2.579   3.917
13611TIP3    H140776   0.284   2.657   3.919
13611TIP3    H240777   0.196   2.570   4.006
13612TIP3   OH240778   3.165   6.431   5.883
13612TIP3    H140779   3.227   6.503   5.899
13612TIP3    H240780   3.149   6.393   5.969
13613TIP3   OH240781   3.881   4.027   3.143
13613TIP3    H140782   3.806   3.987   3.188
13613TIP3    H240783   3.954   4.012   3.203
13614TIP3   OH240784   6.804   5.612   0.777
13614TIP3    H140785   6.852   5.553   0.719
13614TIP3    H240786   6.827   5.584   0.865
13615TIP3   OH240787   5.524   2.346   2.814
13615TIP3    H140788   5.444   2.376   2.771
13615TIP3    H240789   5.573   2.302   2.744
13616TIP3   OH240790   2.468   7.786   1.245
13616TIP3    H140791   2.483   7.829   1.329
13616TIP3    H240792   2.382   7.744   1.255
13617TIP3   OH240793   8.111   1.921   4.616
13617TIP3    H140794   8.206   1.934   4.616
13617TIP3    H240795   8.088   1.920   4.709
13618TIP3   OH240796   7.115   7.732   6.040
13618TIP3    H140797   7.052   7.659   6.036
13618TIP3    H240798   7.100   7.771   6.126
13619TIP3   OH240799   0.289   4.781   3.007
13619TIP3    H140800   0.309   4.867   3.043
13619TIP3    H240801   0.335   4.719   3.064
13620TIP3   OH240802   5.871   1.908   6.569
13620TIP3    H140803   5.940   1.905   6.635
13620TIP3    H240804   5.828   1.992   6.584
13621TIP3   OH240805   0.740   2.580   4.845
13621TIP3    H140806   0.706   2.493   4.866
13621TIP3    H240807   0.809   2.595   4.909
13622TIP3   OH240808   6.506   3.548   1.502
13622TIP3    H140809   6.528   3.566   1.411
13622TIP3    H240810   6.564   3.475   1.527
13623TIP3   OH240811   6.810   7.078   6.092
13623TIP3    H140812   6.769   7.163   6.113
13623TIP3    H240813   6.761   7.046   6.017
13624TIP3   OH240814   7.587   3.825   0.157
13624TIP3    H140815   7.583   3.794   0.248
13624TIP3    H240816   7.619   3.749   0.108
13625TIP3   OH240817   2.130   7.766   3.857
13625TIP3    H140818   2.111   7.714   3.934
13625TIP3    H240819   2.059   7.830   3.852
13626TIP3   OH240820   4.427   5.483   5.881
13626TIP3    H140821   4.361   5.414   5.887
13626TIP3    H240822   4.429   5.523   5.968
13627TIP3   OH240823   6.344   3.203   5.215
13627TIP3    H140824   6.309   3.231   5.130
13627TIP3    H240825   6.439   3.215   5.206
13628TIP3   OH240826   0.057   6.291   0.979
13628TIP3    H140827   0.116   6.292   0.903
13628TIP3    H240828   0.112   6.315   1.053
13629TIP3   OH240829   8.075   0.009   0.153
13629TIP3    H140830   8.098  -0.053   0.222
13629TIP3    H240831   8.158   0.046   0.124
13630TIP3   OH240832   0.979   6.038   6.468
13630TIP3    H140833   0.886   6.017   6.461
13630TIP3    H240834   1.002   6.074   6.383
13631TIP3   OH240835   7.441   3.491   5.848
13631TIP3    H140836   7.408   3.580   5.838
13631TIP3    H240837   7.525   3.501   5.893
13632TIP3   OH240838   7.380   2.573   4.801
13632TIP3    H140839   7.407   2.567   4.893
13632TIP3    H240840   7.290   2.540   4.800
13633TIP3   OH240841   6.515   6.090   2.683
13633TIP3    H140842   6.434   6.138   2.697
13633TIP3    H240843   6.528   6.040   2.763
13634TIP3   OH240844   7.117   4.731   3.288
13634TIP3    H140845   7.189   4.794   3.283
13634TIP3    H240846   7.047   4.779   3.333
13635TIP3   OH240847   1.982   1.756   4.177
13635TIP3    H140848   2.063   1.789   4.138
13635TIP3    H240849   1.924   1.833   4.180
13636TIP3   OH240850   5.875   4.474   5.719
13636TIP3    H140851   5.812   4.402   5.722
13636TIP3    H240852   5.941   4.445   5.656
13637TIP3   OH240853   0.513   2.785   1.204
13637TIP3    H140854   0.546   2.766   1.292
13637TIP3    H240855   0.472   2.704   1.175
13638TIP3   OH240856   2.043   0.500   4.818
13638TIP3    H140857   2.066   0.432   4.881
13638TIP3    H240858   2.115   0.563   4.823
13639TIP3   OH240859   6.842   0.672   2.159
13639TIP3    H140860   6.875   0.689   2.070
13639TIP3    H240861   6.807   0.583   2.155
13640TIP3   OH240862   1.004   6.913   1.405
13640TIP3    H140863   0.996   6.977   1.334
13640TIP3    H240864   1.017   6.829   1.361
13641TIP3   OH240865   0.974   3.664   2.635
13641TIP3    H140866   1.039   3.669   2.705
13641TIP3    H240867   0.929   3.748   2.638
13642TIP3   OH240868   0.584   7.638   2.552
13642TIP3    H140869   0.674   7.656   2.579
13642TIP3    H240870   0.592   7.583   2.474
13643TIP3   OH240871   0.234   4.420   1.330
13643TIP3    H140872   0.264   4.478   1.260
13643TIP3    H240873   0.166   4.470   1.375
13644TIP3   OH240874   6.175   3.669   5.368
13644TIP3    H140875   6.242   3.625   5.316
13644TIP3    H240876   6.127   3.722   5.305
13645TIP3   OH240877   8.073   4.721   1.133
13645TIP3    H140878   8.122   4.679   1.062
13645TIP3    H240879   8.023   4.649   1.173
13646TIP3   OH240880   4.118   0.835   0.812
13646TIP3    H140881   4.070   0.914   0.787
13646TIP3    H240882   4.200   0.867   0.850
13647TIP3   OH240883   7.496   2.805   0.214
13647TIP3    H140884   7.563   2.849   0.162
13647TIP3    H240885   7.523   2.713   0.214
13648TIP3   OH240886   4.841   4.089   5.949
13648TIP3    H140887   4.797   4.148   6.010
13648TIP3    H240888   4.820   4.001   5.981
13649TIP3   OH240889   4.315   2.501   6.634
13649TIP3    H140890   4.371   2.462   6.703
13649TIP3    H240891   4.234   2.451   6.638
13650TIP3   OH240892   0.087   7.556   2.488
13650TIP3    H140893   0.020   7.594   2.430
13650TIP3    H240894   0.045   7.478   2.525
13651TIP3   OH240895   2.532   4.646   4.232
13651TIP3    H140896   2.561   4.564   4.193
13651TIP3    H240897   2.436   4.638   4.236
13652TIP3   OH240898   0.073   0.891   5.232
13652TIP3    H140899   0.095   0.803   5.262
13652TIP3    H240900  -0.021   0.886   5.211
13653TIP3   OH240901   5.658   6.802   2.712
13653TIP3    H140902   5.591   6.746   2.673
13653TIP3    H240903   5.624   6.891   2.701
13654TIP3   OH240904   2.733   1.628   2.475
13654TIP3    H140905   2.777   1.710   2.494
13654TIP3    H240906   2.716   1.589   2.561
13655TIP3   OH240907   0.620   0.634   6.112
13655TIP3    H140908   0.571   0.703   6.155
13655TIP3    H240909   0.700   0.626   6.163
13656TIP3   OH240910   0.165   6.948   5.160
13656TIP3    H140911   0.157   7.014   5.092
13656TIP3    H240912   0.253   6.912   5.148
13657TIP3   OH240913   5.971   5.369   6.152
13657TIP3    H140914   5.935   5.295   6.200
13657TIP3    H240915   6.035   5.408   6.212
13658TIP3   OH240916   5.714   2.484   3.558
13658TIP3    H140917   5.690   2.440   3.476
13658TIP3    H240918   5.771   2.556   3.531
13659TIP3   OH240919   1.753   0.975   6.212
13659TIP3    H140920   1.815   1.046   6.199
13659TIP3    H240921   1.788   0.903   6.160
13660TIP3   OH240922   5.051   1.489   1.922
13660TIP3    H140923   5.008   1.490   1.837
13660TIP3    H240924   5.020   1.410   1.965
13661TIP3   OH240925   1.801   0.599   3.275
13661TIP3    H140926   1.882   0.557   3.305
13661TIP3    H240927   1.822   0.692   3.272
13662TIP3   OH240928   5.236   3.880   5.795
13662TIP3    H140929   5.271   3.928   5.720
13662TIP3    H240930   5.141   3.891   5.787
13663TIP3   OH240931   6.455   0.283   2.951
13663TIP3    H140932   6.452   0.204   2.897
13663TIP3    H240933   6.539   0.323   2.931
13664TIP3   OH240934   7.767   0.466   0.814
13664TIP3    H140935   7.806   0.474   0.901
13664TIP3    H240936   7.689   0.521   0.817
13665TIP3   OH240937   3.172   1.562   3.802
13665TIP3    H140938   3.148   1.558   3.895
13665TIP3    H240939   3.090   1.548   3.755
13666TIP3   OH240940   3.849   4.332   0.555
13666TIP3    H140941   3.920   4.275   0.585
13666TIP3    H240942   3.785   4.273   0.516
13667TIP3   OH240943   0.698   6.265   6.294
13667TIP3    H140944   0.635   6.305   6.235
13667TIP3    H240945   0.758   6.217   6.237
13668TIP3   OH240946   5.326   5.313   5.959
13668TIP3    H140947   5.278   5.381   5.913
13668TIP3    H240948   5.402   5.358   5.997
13669TIP3   OH240949   0.490   2.633   1.661
13669TIP3    H140950   0.493   2.611   1.568
13669TIP3    H240951   0.565   2.586   1.699
13670TIP3   OH240952   6.681   7.637   4.614
13670TIP3    H140953   6.766   7.618   4.653
13670TIP3    H240954   6.667   7.564   4.553
13671TIP3   OH240955   5.138   1.051   6.012
13671TIP3    H140956   5.124   1.011   5.926
13671TIP3    H240957   5.175   0.981   6.065
13672TIP3   OH240958   3.354   3.944   0.541
13672TIP3    H140959   3.289   3.987   0.486
13672TIP3    H240960   3.347   3.851   0.519
13673TIP3   OH240961   5.908   1.572   1.447
13673TIP3    H140962   5.882   1.663   1.464
13673TIP3    H240963   5.828   1.521   1.465
13674TIP3   OH240964   1.950   5.202   4.791
13674TIP3    H140965   1.903   5.268   4.841
13674TIP3    H240966   1.926   5.119   4.831
13675TIP3   OH240967   0.476   1.278   0.852
13675TIP3    H140968   0.503   1.213   0.787
13675TIP3    H240969   0.429   1.228   0.918
13676TIP3   OH240970   0.644   6.973   4.205
13676TIP3    H140971   0.625   7.040   4.138
13676TIP3    H240972   0.731   6.995   4.236
13677TIP3   OH240973   6.723   2.200   6.148
13677TIP3    H140974   6.728   2.288   6.110
13677TIP3    H240975   6.775   2.205   6.228
13678TIP3   OH240976   0.869   0.934   6.245
13678TIP3    H140977   0.864   1.018   6.291
13678TIP3    H240978   0.786   0.891   6.264
13679TIP3   OH240979   6.467   5.056   6.176
13679TIP3    H140980   6.468   5.115   6.100
13679TIP3    H240981   6.556   5.058   6.209
13680TIP3   OH240982   6.894   6.809   0.110
13680TIP3    H140983   6.820   6.829   0.166
13680TIP3    H240984   6.936   6.733   0.151
13681TIP3   OH240985   5.382   5.892   6.404
13681TIP3    H140986   5.338   5.976   6.411
13681TIP3    H240987   5.475   5.911   6.417
13682TIP3   OH240988   7.789   7.800   3.213
13682TIP3    H140989   7.817   7.709   3.223
13682TIP3    H240990   7.869   7.847   3.187
13683TIP3   OH240991   7.221   2.921   5.003
13683TIP3    H140992   7.192   2.831   5.018
13683TIP3    H240993   7.142   2.969   4.978
13684TIP3   OH240994   4.965   1.248   0.312
13684TIP3    H140995   4.995   1.337   0.293
13684TIP3    H240996   4.875   1.259   0.342
13685TIP3   OH240997   3.650   0.815   2.324
13685TIP3    H140998   3.608   0.852   2.402
13685TIP3    H240999   3.577   0.789   2.268
13686TIP3   OH241000   1.187   1.858   1.412
13686TIP3    H141001   1.120   1.793   1.434
13686TIP3    H241002   1.267   1.825   1.454
13687TIP3   OH241003   1.725   2.487   1.457
13687TIP3    H141004   1.654   2.423   1.456
13687TIP3    H241005   1.705   2.544   1.531
13688TIP3   OH241006   2.564   5.096   3.401
13688TIP3    H141007   2.569   5.028   3.333
13688TIP3    H241008   2.606   5.055   3.477
13689TIP3   OH241009   8.323   5.991   1.185
13689TIP3    H141010   8.243   6.041   1.169
13689TIP3    H241011   8.296   5.900   1.181
13690TIP3   OH241012   8.312   3.564   2.683
13690TIP3    H141013   8.282   3.646   2.644
13690TIP3    H241014   8.362   3.521   2.614
13691TIP3   OH241015   4.562   6.799   0.463
13691TIP3    H141016   4.502   6.821   0.392
13691TIP3    H241017   4.646   6.786   0.419
13692TIP3   OH241018   6.986   1.897   1.122
13692TIP3    H141019   7.080   1.888   1.139
13692TIP3    H241020   6.976   1.881   1.029
13693TIP3   OH241021   7.140   4.266   3.997
13693TIP3    H141022   7.217   4.211   4.012
13693TIP3    H241023   7.134   4.275   3.902
13694TIP3   OH241024   1.549   1.385   6.577
13694TIP3    H141025   1.510   1.313   6.627
13694TIP3    H241026   1.621   1.416   6.632
13695TIP3   OH241027   6.006   2.054   0.472
13695TIP3    H141028   5.961   2.043   0.388
13695TIP3    H241029   6.099   2.060   0.449
13696TIP3   OH241030   3.098   0.076   2.661
13696TIP3    H141031   3.186   0.113   2.651
13696TIP3    H241032   3.104  -0.010   2.620
13697TIP3   OH241033   3.924   4.128   0.287
13697TIP3    H141034   3.881   4.168   0.212
13697TIP3    H241035   3.859   4.132   0.357
13698TIP3   OH241036   6.960   0.135   6.493
13698TIP3    H141037   7.002   0.083   6.562
13698TIP3    H241038   7.019   0.209   6.479
13699TIP3   OH241039   6.094   7.774   4.491
13699TIP3    H141040   6.055   7.860   4.507
13699TIP3    H241041   6.177   7.794   4.449
13700TIP3   OH241042   7.307   4.597   2.445
13700TIP3    H141043   7.239   4.529   2.446
13700TIP3    H241044   7.386   4.551   2.417
13701TIP3   OH241045   1.830   1.005   4.628
13701TIP3    H141046   1.868   0.920   4.649
13701TIP3    H241047   1.737   0.986   4.615
13702TIP3   OH241048   5.246   7.814   6.663
13702TIP3    H141049   5.171   7.872   6.676
13702TIP3    H241050   5.207   7.726   6.655
13703TIP3   OH241051   3.908   2.405   6.148
13703TIP3    H141052   3.942   2.343   6.083
13703TIP3    H241053   3.969   2.478   6.146
13704TIP3   OH241054   1.860   3.390   2.442
13704TIP3    H141055   1.789   3.386   2.378
13704TIP3    H241056   1.921   3.321   2.415
13705TIP3   OH241057   7.689   3.408   5.184
13705TIP3    H141058   7.660   3.319   5.204
13705TIP3    H241059   7.621   3.464   5.223
13706TIP3   OH241060   6.555   6.667   1.052
13706TIP3    H141061   6.471   6.683   1.009
13706TIP3    H241062   6.597   6.600   0.999
13707TIP3   OH241063   3.112   7.177   5.498
13707TIP3    H141064   3.202   7.147   5.509
13707TIP3    H241065   3.094   7.229   5.577
13708TIP3   OH241066   3.292   6.600   6.516
13708TIP3    H141067   3.325   6.660   6.449
13708TIP3    H241068   3.271   6.520   6.468
13709TIP3   OH241069   0.873   4.845   6.265
13709TIP3    H141070   0.785   4.852   6.229
13709TIP3    H241071   0.875   4.759   6.308
13710TIP3   OH241072   7.354   7.558   6.259
13710TIP3    H141073   7.424   7.604   6.214
13710TIP3    H241074   7.335   7.613   6.336
13711TIP3   OH241075   3.270   0.840   6.423
13711TIP3    H141076   3.308   0.798   6.500
13711TIP3    H241077   3.329   0.913   6.404
13712TIP3   OH241078   6.849   5.689   4.162
13712TIP3    H141079   6.762   5.726   4.174
13712TIP3    H241080   6.839   5.628   4.088
13713TIP3   OH241081   6.105   3.243   0.454
13713TIP3    H141082   6.015   3.261   0.483
13713TIP3    H241083   6.102   3.153   0.423
13714TIP3   OH241084   3.868   6.715   2.828
13714TIP3    H141085   3.878   6.622   2.850
13714TIP3    H241086   3.783   6.739   2.864
13715TIP3   OH241087   6.782   3.836   1.677
13715TIP3    H141088   6.725   3.866   1.607
13715TIP3    H241089   6.829   3.914   1.705
13716TIP3   OH241090   3.326   3.377   6.551
13716TIP3    H141091   3.345   3.469   6.532
13716TIP3    H241092   3.272   3.379   6.630
13717TIP3   OH241093   3.541   2.374   5.744
13717TIP3    H141094   3.608   2.388   5.811
13717TIP3    H241095   3.479   2.314   5.785
13718TIP3   OH241096   3.671   2.027   2.518
13718TIP3    H141097   3.596   2.013   2.460
13718TIP3    H241098   3.644   1.990   2.602
13719TIP3   OH241099   1.472   3.548   1.690
13719TIP3    H141100   1.546   3.556   1.750
13719TIP3    H241101   1.493   3.472   1.635
13720TIP3   OH241102   6.359   0.923   1.548
13720TIP3    H141103   6.305   0.924   1.470
13720TIP3    H241104   6.334   1.002   1.596
13721TIP3   OH241105   2.319   5.795   4.113
13721TIP3    H141106   2.341   5.874   4.064
13721TIP3    H241107   2.402   5.768   4.152
13722TIP3   OH241108   5.129   5.910   3.635
13722TIP3    H141109   5.092   5.845   3.575
13722TIP3    H241110   5.090   5.993   3.608
13723TIP3   OH241111   0.850   1.961   6.242
13723TIP3    H141112   0.905   2.039   6.235
13723TIP3    H241113   0.765   1.989   6.209
13724TIP3   OH241114   1.839   3.723   5.706
13724TIP3    H141115   1.806   3.641   5.670
13724TIP3    H241116   1.863   3.775   5.629
13725TIP3   OH241117   1.555   6.884   5.321
13725TIP3    H141118   1.642   6.907   5.353
13725TIP3    H241119   1.497   6.948   5.362
13726TIP3   OH241120   3.300   0.982   4.068
13726TIP3    H141121   3.393   0.994   4.089
13726TIP3    H241122   3.282   0.891   4.092
13727TIP3   OH241123   2.110   6.216   1.556
13727TIP3    H141124   2.155   6.185   1.634
13727TIP3    H241125   2.177   6.262   1.505
13728TIP3   OH241126   8.039   3.978   3.358
13728TIP3    H141127   8.065   3.901   3.409
13728TIP3    H241128   7.949   3.960   3.331
13729TIP3   OH241129   3.749   5.338   3.539
13729TIP3    H141130   3.760   5.425   3.578
13729TIP3    H241131   3.778   5.348   3.448
13730TIP3   OH241132   1.813   2.598   3.345
13730TIP3    H141133   1.897   2.643   3.344
13730TIP3    H241134   1.760   2.644   3.280
13731TIP3   OH241135   6.152   5.328   6.621
13731TIP3    H141136   6.196   5.335   6.705
13731TIP3    H241137   6.061   5.307   6.643
13732TIP3   OH241138   4.434   3.783   3.625
13732TIP3    H141139   4.387   3.716   3.674
13732TIP3    H241140   4.520   3.745   3.608
13733TIP3   OH241141   3.378   6.552   1.201
13733TIP3    H141142   3.400   6.494   1.273
13733TIP3    H241143   3.336   6.628   1.243
13734TIP3   OH241144   4.368   1.436   5.342
13734TIP3    H141145   4.362   1.519   5.294
13734TIP3    H241146   4.293   1.385   5.311
13735TIP3   OH241147   0.674   3.154   1.581
13735TIP3    H141148   0.594   3.206   1.575
13735TIP3    H241149   0.664   3.087   1.513
13736TIP3   OH241150   0.845   3.411   1.090
13736TIP3    H141151   0.892   3.488   1.057
13736TIP3    H241152   0.836   3.354   1.014
13737TIP3   OH241153   6.896   1.812   4.376
13737TIP3    H141154   6.848   1.766   4.445
13737TIP3    H241155   6.828   1.836   4.312
13738TIP3   OH241156   0.855   0.278   2.684
13738TIP3    H141157   0.950   0.284   2.698
13738TIP3    H241158   0.818   0.278   2.773
13739TIP3   OH241159   1.952   5.873   4.891
13739TIP3    H141160   1.946   5.918   4.807
13739TIP3    H241161   2.012   5.800   4.874
13740TIP3   OH241162   3.979   4.056   1.798
13740TIP3    H141163   3.985   4.081   1.890
13740TIP3    H241164   3.994   4.137   1.750
13741TIP3   OH241165   5.457   3.558   6.230
13741TIP3    H141166   5.416   3.512   6.304
13741TIP3    H241167   5.396   3.630   6.210
13742TIP3   OH241168   0.980   0.878   6.003
13742TIP3    H141169   0.897   0.911   5.969
13742TIP3    H241170   0.974   0.891   6.098
13743TIP3   OH241171   0.683   1.431   1.496
13743TIP3    H141172   0.591   1.421   1.472
13743TIP3    H241173   0.689   1.396   1.585
13744TIP3   OH241174   0.058   3.483   5.160
13744TIP3    H141175   0.036   3.521   5.245
13744TIP3    H241176   0.147   3.514   5.143
13745TIP3   OH241177   2.949   3.850   0.982
13745TIP3    H141178   2.874   3.868   1.039
13745TIP3    H241179   2.926   3.889   0.898
13746TIP3   OH241180   3.163   3.659   0.998
13746TIP3    H141181   3.116   3.732   0.958
13746TIP3    H241182   3.194   3.694   1.081
13747TIP3   OH241183   2.264   1.854  -0.050
13747TIP3    H141184   2.223   1.812   0.026
13747TIP3    H241185   2.205   1.927  -0.071
13748TIP3   OH241186   1.722   5.355   4.907
13748TIP3    H141187   1.685   5.368   4.820
13748TIP3    H241188   1.667   5.288   4.947
13749TIP3   OH241189   2.079   2.455   3.137
13749TIP3    H141190   2.016   2.388   3.161
13749TIP3    H241191   2.061   2.472   3.044
13750TIP3   OH241192   4.195   5.081   5.389
13750TIP3    H141193   4.220   5.111   5.476
13750TIP3    H241194   4.273   5.037   5.356
13751TIP3   OH241195   6.881   7.501   3.696
13751TIP3    H141196   6.855   7.480   3.786
13751TIP3    H241197   6.976   7.490   3.696
13752TIP3   OH241198   2.147   5.468   6.394
13752TIP3    H141199   2.166   5.517   6.474
13752TIP3    H241200   2.086   5.524   6.346
13753TIP3   OH241201   1.271   1.245   5.087
13753TIP3    H141202   1.303   1.290   5.009
13753TIP3    H241203   1.209   1.305   5.127
13754TIP3   OH241204   8.015   2.034   5.138
13754TIP3    H141205   7.989   2.123   5.115
13754TIP3    H241206   8.077   2.009   5.070
13755TIP3   OH241207   2.810   5.491   1.975
13755TIP3    H141208   2.811   5.536   1.891
13755TIP3    H241209   2.742   5.536   2.026
13756TIP3   OH241210   5.350   4.623   5.672
13756TIP3    H141211   5.311   4.675   5.743
13756TIP3    H241212   5.394   4.688   5.617
13757TIP3   OH241213   3.781   6.458   1.616
13757TIP3    H141214   3.695   6.439   1.655
13757TIP3    H241215   3.820   6.522   1.675
13758TIP3   OH241216   3.676   0.052   3.255
13758TIP3    H141217   3.693   0.074   3.164
13758TIP3    H241218   3.720   0.121   3.305
13759TIP3   OH241219   4.318   6.039   3.770
13759TIP3    H141220   4.395   5.998   3.809
13759TIP3    H241221   4.268   5.966   3.733
13760TIP3   OH241222   6.119   5.949   4.829
13760TIP3    H141223   6.065   6.018   4.868
13760TIP3    H241224   6.133   5.977   4.739
13761TIP3   OH241225   0.241   0.699   6.132
13761TIP3    H141226   0.295   0.632   6.174
13761TIP3    H241227   0.158   0.696   6.179
13762TIP3   OH241228   5.925   2.977   3.674
13762TIP3    H141229   5.905   3.021   3.757
13762TIP3    H241230   5.917   2.883   3.694
13763TIP3   OH241231   0.056   2.357   5.313
13763TIP3    H141232   0.119   2.284   5.318
13763TIP3    H241233   0.106   2.429   5.275
13764TIP3   OH241234   1.803   7.623   5.054
13764TIP3    H141235   1.708   7.630   5.048
13764TIP3    H241236   1.821   7.615   5.147
13765TIP3   OH241237   1.270   2.362   1.793
13765TIP3    H141238   1.264   2.427   1.723
13765TIP3    H241239   1.186   2.315   1.789
13766TIP3   OH241240   5.868   0.469   6.672
13766TIP3    H141241   5.947   0.511   6.640
13766TIP3    H241242   5.890   0.376   6.676
13767TIP3   OH241243   1.353   2.414   6.628
13767TIP3    H141244   1.382   2.487   6.572
13767TIP3    H241245   1.354   2.338   6.570
13768TIP3   OH241246   5.133   3.584   1.602
13768TIP3    H141247   5.110   3.676   1.617
13768TIP3    H241248   5.135   3.575   1.507
13769TIP3   OH241249   7.910   4.000   5.887
13769TIP3    H141250   7.906   3.906   5.905
13769TIP3    H241251   7.931   4.006   5.794
13770TIP3   OH241252   2.646   5.042   6.003
13770TIP3    H141253   2.735   5.068   6.027
13770TIP3    H241254   2.591   5.076   6.074
13771TIP3   OH241255   7.976   2.629   1.627
13771TIP3    H141256   8.009   2.542   1.648
13771TIP3    H241257   7.950   2.624   1.535
13772TIP3   OH241258   0.324   2.312   6.540
13772TIP3    H141259   0.413   2.344   6.553
13772TIP3    H241260   0.329   2.258   6.461
13773TIP3   OH241261   6.662   5.561   5.812
13773TIP3    H141262   6.642   5.480   5.765
13773TIP3    H241263   6.632   5.630   5.753
13774TIP3   OH241264   6.223   7.124   6.011
13774TIP3    H141265   6.204   7.193   5.948
13774TIP3    H241266   6.141   7.111   6.058
13775TIP3   OH241267   2.005   0.411   0.245
13775TIP3    H141268   2.032   0.341   0.185
13775TIP3    H241269   2.083   0.466   0.254
13776TIP3   OH241270   7.291   6.732   0.498
13776TIP3    H141271   7.324   6.817   0.471
13776TIP3    H241272   7.297   6.677   0.420
13777TIP3   OH241273   3.021   7.434   1.119
13777TIP3    H141274   3.055   7.354   1.079
13777TIP3    H241275   2.931   7.412   1.145
13778TIP3   OH241276   1.753   0.736   5.699
13778TIP3    H141277   1.658   0.751   5.693
13778TIP3    H241278   1.787   0.815   5.741
13779TIP3   OH241279   7.412   2.215   2.023
13779TIP3    H141280   7.336   2.263   2.057
13779TIP3    H241281   7.401   2.218   1.928
13780TIP3   OH241282   3.236   0.826   3.686
13780TIP3    H141283   3.290   0.856   3.613
13780TIP3    H241284   3.208   0.907   3.730
13781TIP3   OH241285   6.387   7.404   2.671
13781TIP3    H141286   6.453   7.347   2.630
13781TIP3    H241287   6.404   7.491   2.634
13782TIP3   OH241288   5.963   4.943   4.347
13782TIP3    H141289   5.948   4.942   4.442
13782TIP3    H241290   5.877   4.929   4.309
13783TIP3   OH241291   2.703   0.381   4.632
13783TIP3    H141292   2.664   0.315   4.690
13783TIP3    H241293   2.650   0.378   4.553
13784TIP3   OH241294   0.579   3.506   0.931
13784TIP3    H141295   0.631   3.458   0.995
13784TIP3    H241296   0.600   3.466   0.847
13785TIP3   OH241297   5.987   6.715   2.082
13785TIP3    H141298   6.053   6.763   2.031
13785TIP3    H241299   6.000   6.623   2.057
13786TIP3   OH241300   7.647   5.926   1.444
13786TIP3    H141301   7.692   6.007   1.421
13786TIP3    H241302   7.716   5.869   1.478
13787TIP3   OH241303   5.637   0.374   4.080
13787TIP3    H141304   5.553   0.382   4.124
13787TIP3    H241305   5.699   0.351   4.150
13788TIP3   OH241306   6.947   2.051   3.849
13788TIP3    H141307   6.923   2.057   3.941
13788TIP3    H241308   6.885   1.988   3.812
13789TIP3   OH241309   5.404   3.689   1.976
13789TIP3    H141310   5.490   3.702   2.016
13789TIP3    H241311   5.419   3.621   1.909
13790TIP3   OH241312   3.910   6.059   3.476
13790TIP3    H141313   3.905   6.034   3.568
13790TIP3    H241314   4.001   6.042   3.451
13791TIP3   OH241315   1.429   5.818   0.451
13791TIP3    H141316   1.522   5.828   0.470
13791TIP3    H241317   1.398   5.907   0.432
13792TIP3   OH241318   3.958   5.543   1.434
13792TIP3    H141319   3.949   5.518   1.525
13792TIP3    H241320   3.882   5.505   1.390
13793TIP3   OH241321   3.257   0.938   4.418
13793TIP3    H141322   3.295   0.906   4.336
13793TIP3    H241323   3.167   0.906   4.417
13794TIP3   OH241324   1.238   6.737   0.395
13794TIP3    H141325   1.167   6.737   0.331
13794TIP3    H241326   1.230   6.652   0.439
13795TIP3   OH241327   4.389   5.511   6.194
13795TIP3    H141328   4.463   5.555   6.152
13795TIP3    H241329   4.322   5.578   6.202
13796TIP3   OH241330   1.921   1.699   1.984
13796TIP3    H141331   1.917   1.615   2.030
13796TIP3    H241332   1.933   1.764   2.054
13797TIP3   OH241333   2.192   6.355   4.762
13797TIP3    H141334   2.137   6.350   4.841
13797TIP3    H241335   2.280   6.375   4.795
13798TIP3   OH241336   8.225   2.357   0.174
13798TIP3    H141337   8.164   2.346   0.247
13798TIP3    H241338   8.182   2.313   0.101
13799TIP3   OH241339   3.856   2.593   1.434
13799TIP3    H141340   3.764   2.617   1.426
13799TIP3    H241341   3.901   2.652   1.374
13800TIP3   OH241342   4.467   0.773   4.434
13800TIP3    H141343   4.446   0.828   4.358
13800TIP3    H241344   4.468   0.684   4.399
13801TIP3   OH241345   4.565   7.304   4.296
13801TIP3    H141346   4.612   7.240   4.349
13801TIP3    H241347   4.483   7.261   4.272
13802TIP3   OH241348   7.975   1.746   4.026
13802TIP3    H141349   8.032   1.791   4.089
13802TIP3    H241350   8.021   1.664   4.007
13803TIP3   OH241351   0.422   4.708   0.876
13803TIP3    H141352   0.405   4.651   0.952
13803TIP3    H241353   0.437   4.794   0.914
13804TIP3   OH241354   5.347   5.671   5.309
13804TIP3    H141355   5.342   5.605   5.240
13804TIP3    H241356   5.276   5.650   5.369
13805TIP3   OH241357   1.221   3.409   5.641
13805TIP3    H141358   1.280   3.413   5.717
13805TIP3    H241359   1.270   3.450   5.570
13806TIP3   OH241360   4.431   7.615   6.089
13806TIP3    H141361   4.470   7.657   6.012
13806TIP3    H241362   4.492   7.634   6.160
13807TIP3   OH241363   0.204   2.005   4.201
13807TIP3    H141364   0.189   2.086   4.152
13807TIP3    H241365   0.162   1.937   4.149
13808TIP3   OH241366   6.979   3.520   5.837
13808TIP3    H141367   7.064   3.499   5.874
13808TIP3    H241368   6.968   3.614   5.850
13809TIP3   OH241369   3.298   6.399   0.116
13809TIP3    H141370   3.387   6.365   0.127
13809TIP3    H241371   3.241   6.326   0.140
13810TIP3   OH241372   4.231   0.894   3.522
13810TIP3    H141373   4.186   0.830   3.467
13810TIP3    H241374   4.172   0.969   3.525
13811TIP3   OH241375   5.829   4.574   2.852
13811TIP3    H141376   5.796   4.639   2.790
13811TIP3    H241377   5.809   4.490   2.810
13812TIP3   OH241378   2.678   7.868   1.576
13812TIP3    H141379   2.617   7.829   1.638
13812TIP3    H241380   2.704   7.795   1.519
13813TIP3   OH241381   3.405   5.429   1.334
13813TIP3    H141382   3.420   5.497   1.400
13813TIP3    H241383   3.440   5.465   1.253
13814TIP3   OH241384   6.053   1.774   4.834
13814TIP3    H141385   6.123   1.719   4.871
13814TIP3    H241386   6.044   1.744   4.744
13815TIP3   OH241387   2.638   5.403   4.732
13815TIP3    H141388   2.550   5.440   4.739
13815TIP3    H241389   2.684   5.462   4.673
13816TIP3   OH241390   7.942   1.852   6.386
13816TIP3    H141391   7.858   1.826   6.348
13816TIP3    H241392   7.924   1.937   6.427
13817TIP3   OH241393   1.216   4.231   2.776
13817TIP3    H141394   1.183   4.175   2.706
13817TIP3    H241395   1.306   4.200   2.791
13818TIP3   OH241396   2.873   0.216   2.691
13818TIP3    H141397   2.936   0.146   2.676
13818TIP3    H241398   2.808   0.206   2.622
13819TIP3   OH241399   5.453   2.824   3.683
13819TIP3    H141400   5.422   2.752   3.627
13819TIP3    H241401   5.538   2.795   3.714
13820TIP3   OH241402   3.879   6.790   4.787
13820TIP3    H141403   3.955   6.824   4.835
13820TIP3    H241404   3.820   6.865   4.781
13821TIP3   OH241405   4.105   7.096   0.274
13821TIP3    H141406   4.098   7.042   0.352
13821TIP3    H241407   4.088   7.036   0.201
13822TIP3   OH241408   1.650   6.660   4.112
13822TIP3    H141409   1.608   6.742   4.141
13822TIP3    H241410   1.577   6.602   4.092
13823TIP3   OH241411   1.740   7.698   5.581
13823TIP3    H141412   1.679   7.771   5.573
13823TIP3    H241413   1.816   7.734   5.627
13824TIP3   OH241414   4.206   0.561   1.264
13824TIP3    H141415   4.237   0.609   1.187
13824TIP3    H241416   4.161   0.484   1.228
13825TIP3   OH241417   3.222   0.456   5.649
13825TIP3    H141418   3.130   0.455   5.620
13825TIP3    H241419   3.219   0.424   5.739
13826TIP3   OH241420   7.162   4.280   3.443
13826TIP3    H141421   7.079   4.325   3.425
13826TIP3    H241422   7.146   4.190   3.414
13827TIP3   OH241423   6.245   2.215   3.378
13827TIP3    H141424   6.174   2.152   3.366
13827TIP3    H241425   6.297   2.180   3.451
13828TIP3   OH241426   6.679   2.083   1.016
13828TIP3    H141427   6.723   2.068   0.932
13828TIP3    H241428   6.748   2.118   1.073
13829TIP3   OH241429   4.146   3.213   2.051
13829TIP3    H141430   4.180   3.283   2.106
13829TIP3    H241431   4.221   3.156   2.036
13830TIP3   OH241432   0.283   4.956   2.542
13830TIP3    H141433   0.290   4.864   2.567
13830TIP3    H241434   0.202   4.962   2.492
13831TIP3   OH241435   5.020   0.214   4.099
13831TIP3    H141436   4.976   0.224   4.015
13831TIP3    H241437   4.953   0.178   4.157
13832TIP3   OH241438   1.421   3.549   2.791
13832TIP3    H141439   1.354   3.485   2.765
13832TIP3    H241440   1.384   3.634   2.765
13833TIP3   OH241441   3.089   4.224   3.898
13833TIP3    H141442   3.132   4.179   3.971
13833TIP3    H241443   3.159   4.239   3.834
13834TIP3   OH241444   6.643   2.952   3.215
13834TIP3    H141445   6.670   3.043   3.210
13834TIP3    H241446   6.721   2.905   3.243
13835TIP3   OH241447   0.146   1.689   3.183
13835TIP3    H141448   0.211   1.700   3.252
13835TIP3    H241449   0.094   1.769   3.186
13836TIP3   OH241450   7.097   3.452   0.251
13836TIP3    H141451   7.043   3.495   0.317
13836TIP3    H241452   7.106   3.362   0.282
13837TIP3   OH241453   7.104   2.865   6.691
13837TIP3    H141454   7.063   2.941   6.650
13837TIP3    H241455   7.030   2.814   6.724
13838TIP3   OH241456   7.806   2.228   3.192
13838TIP3    H141457   7.717   2.192   3.190
13838TIP3    H241458   7.825   2.238   3.286
13839TIP3   OH241459   5.639   1.299   5.324
13839TIP3    H141460   5.569   1.237   5.345
13839TIP3    H241461   5.659   1.282   5.232
13840TIP3   OH241462   7.731   6.969   6.420
13840TIP3    H141463   7.743   7.059   6.388
13840TIP3    H241464   7.801   6.958   6.484
13841TIP3   OH241465   4.559   0.898   4.659
13841TIP3    H141466   4.524   0.881   4.572
13841TIP3    H241467   4.537   0.989   4.677
13842TIP3   OH241468   6.255   1.856   5.135
13842TIP3    H141469   6.190   1.795   5.171
13842TIP3    H241470   6.231   1.941   5.170
13843TIP3   OH241471   8.025   5.464   0.825
13843TIP3    H141472   8.075   5.532   0.871
13843TIP3    H241473   7.936   5.499   0.819
13844TIP3   OH241474   7.149   7.694   0.479
13844TIP3    H141475   7.214   7.712   0.548
13844TIP3    H241476   7.199   7.705   0.397
13845TIP3   OH241477   0.878   4.847   4.023
13845TIP3    H141478   0.872   4.927   3.970
13845TIP3    H241479   0.945   4.866   4.088
13846TIP3   OH241480   7.324   5.503   0.354
13846TIP3    H141481   7.332   5.483   0.447
13846TIP3    H241482   7.291   5.592   0.351
13847TIP3   OH241483   8.252   3.775   3.885
13847TIP3    H141484   8.344   3.787   3.861
13847TIP3    H241485   8.208   3.853   3.851
13848TIP3   OH241486   3.528   1.257   0.658
13848TIP3    H141487   3.547   1.349   0.678
13848TIP3    H241488   3.568   1.242   0.573
13849TIP3   OH241489   3.991   3.181   1.417
13849TIP3    H141490   3.922   3.125   1.452
13849TIP3    H241491   3.958   3.270   1.427
13850TIP3   OH241492   6.552   5.027   4.360
13850TIP3    H141493   6.578   4.937   4.339
13850TIP3    H241494   6.634   5.071   4.381
13851TIP3   OH241495   7.882   7.575   4.052
13851TIP3    H141496   7.817   7.645   4.047
13851TIP3    H241497   7.843   7.511   4.113
13852TIP3   OH241498   5.278   5.322   0.575
13852TIP3    H141499   5.217   5.249   0.584
13852TIP3    H241500   5.252   5.384   0.643
13853TIP3   OH241501   4.112   7.015   3.651
13853TIP3    H141502   4.057   6.961   3.595
13853TIP3    H241503   4.055   7.088   3.677
13854TIP3   OH241504   7.684   1.820   6.285
13854TIP3    H141505   7.602   1.783   6.320
13854TIP3    H241506   7.667   1.914   6.281
13855TIP3   OH241507   2.894   7.328   2.671
13855TIP3    H141508   2.837   7.403   2.653
13855TIP3    H241509   2.922   7.298   2.585
13856TIP3   OH241510   6.023   6.326   1.766
13856TIP3    H141511   6.103   6.284   1.734
13856TIP3    H241512   6.047   6.419   1.772
13857TIP3   OH241513   6.657   1.012   1.544
13857TIP3    H141514   6.710   1.039   1.619
13857TIP3    H241515   6.577   0.976   1.583
13858TIP3   OH241516   2.600   1.203   1.907
13858TIP3    H141517   2.535   1.198   1.836
13858TIP3    H241518   2.676   1.244   1.866
13859TIP3   OH241519   2.169   5.826   3.810
13859TIP3    H141520   2.160   5.731   3.808
13859TIP3    H241521   2.244   5.843   3.866
13860TIP3   OH241522   0.365   5.955   3.497
13860TIP3    H141523   0.437   5.981   3.439
13860TIP3    H241524   0.325   5.880   3.453
13861TIP3   OH241525   6.987   5.589   2.285
13861TIP3    H141526   7.018   5.680   2.287
13861TIP3    H241527   6.896   5.595   2.255
13862TIP3   OH241528   2.844   1.674   5.477
13862TIP3    H141529   2.922   1.668   5.421
13862TIP3    H241530   2.828   1.584   5.505
13863TIP3   OH241531   5.371   1.773   4.336
13863TIP3    H141532   5.454   1.735   4.365
13863TIP3    H241533   5.310   1.754   4.407
13864TIP3   OH241534   0.448   0.412   4.246
13864TIP3    H141535   0.376   0.436   4.304
13864TIP3    H241536   0.421   0.443   4.159
13865TIP3   OH241537   2.637   2.118   0.192
13865TIP3    H141538   2.669   2.037   0.154
13865TIP3    H241539   2.579   2.090   0.263
13866TIP3   OH241540   3.160   6.518   5.557
13866TIP3    H141541   3.245   6.562   5.558
13866TIP3    H241542   3.155   6.472   5.641
13867TIP3   OH241543   7.493   6.358   5.326
13867TIP3    H141544   7.557   6.400   5.383
13867TIP3    H241545   7.502   6.265   5.344
13868TIP3   OH241546   1.903   1.178   3.275
13868TIP3    H141547   1.997   1.163   3.273
13868TIP3    H241548   1.892   1.253   3.333
13869TIP3   OH241549   7.672   1.827   3.311
13869TIP3    H141550   7.691   1.754   3.370
13869TIP3    H241551   7.618   1.886   3.363
13870TIP3   OH241552   4.380   4.836   1.590
13870TIP3    H141553   4.303   4.796   1.632
13870TIP3    H241554   4.355   4.844   1.498
13871TIP3   OH241555   2.771   1.098   4.739
13871TIP3    H141556   2.770   1.101   4.644
13871TIP3    H241557   2.864   1.101   4.762
13872TIP3   OH241558   4.612   2.944   2.392
13872TIP3    H141559   4.609   3.017   2.331
13872TIP3    H241560   4.520   2.919   2.405
13873TIP3   OH241561   2.537   3.789   3.777
13873TIP3    H141562   2.445   3.767   3.791
13873TIP3    H241563   2.545   3.878   3.812
13874TIP3   OH241564   6.969   4.874   3.825
13874TIP3    H141565   7.047   4.918   3.790
13874TIP3    H241566   6.905   4.879   3.755
13875TIP3   OH241567   0.884   4.193   4.430
13875TIP3    H141568   0.809   4.133   4.430
13875TIP3    H241569   0.954   4.142   4.471
13876TIP3   OH241570   0.140   6.821   3.787
13876TIP3    H141571   0.198   6.866   3.726
13876TIP3    H241572   0.111   6.889   3.848
13877TIP3   OH241573   4.132   7.717   1.424
13877TIP3    H141574   4.062   7.691   1.365
13877TIP3    H241575   4.143   7.642   1.482
13878TIP3   OH241576   1.178   2.453   4.634
13878TIP3    H141577   1.232   2.530   4.618
13878TIP3    H241578   1.165   2.414   4.548
13879TIP3   OH241579   5.519   5.728   3.894
13879TIP3    H141580   5.485   5.801   3.843
13879TIP3    H241581   5.488   5.649   3.849
13880TIP3   OH241582   0.346   4.328   5.233
13880TIP3    H141583   0.357   4.280   5.315
13880TIP3    H241584   0.398   4.279   5.170
13881TIP3   OH241585   5.482   4.245   5.000
13881TIP3    H141586   5.529   4.296   5.066
13881TIP3    H241587   5.465   4.161   5.043
13882TIP3   OH241588   6.248   3.611   6.032
13882TIP3    H141589   6.276   3.696   6.067
13882TIP3    H241590   6.290   3.605   5.947
13883TIP3   OH241591   2.045   6.327   0.234
13883TIP3    H141592   1.982   6.296   0.169
13883TIP3    H241593   2.127   6.283   0.211
13884TIP3   OH241594   4.458   1.896   3.335
13884TIP3    H141595   4.383   1.836   3.335
13884TIP3    H241596   4.473   1.915   3.428
13885TIP3   OH241597   7.284   7.034   5.488
13885TIP3    H141598   7.374   7.004   5.497
13885TIP3    H241599   7.231   6.954   5.494
13886TIP3   OH241600   8.331   1.934   3.139
13886TIP3    H141601   8.381   2.007   3.175
13886TIP3    H241602   8.253   1.929   3.195
13887TIP3   OH241603   6.098   7.426   2.580
13887TIP3    H141604   6.041   7.393   2.651
13887TIP3    H241605   6.187   7.415   2.614
13888TIP3   OH241606   0.902   3.366   1.601
13888TIP3    H141607   0.818   3.335   1.567
13888TIP3    H241608   0.964   3.351   1.529
13889TIP3   OH241609   1.396   7.109   5.339
13889TIP3    H141610   1.409   7.099   5.245
13889TIP3    H241611   1.453   7.182   5.363
13890TIP3   OH241612   2.266   6.152   3.004
13890TIP3    H141613   2.344   6.174   2.954
13890TIP3    H241614   2.275   6.058   3.023
13891TIP3   OH241615   2.978   2.754   2.703
13891TIP3    H141616   3.016   2.779   2.619
13891TIP3    H241617   3.053   2.726   2.756
13892TIP3   OH241618   6.374   3.330   1.250
13892TIP3    H141619   6.435   3.400   1.275
13892TIP3    H241620   6.352   3.287   1.333
13893TIP3   OH241621   2.501   6.759   1.132
13893TIP3    H141622   2.415   6.748   1.090
13893TIP3    H241623   2.504   6.852   1.155
13894TIP3   OH241624   5.720   1.384   5.757
13894TIP3    H141625   5.762   1.347   5.835
13894TIP3    H241626   5.682   1.466   5.787
13895TIP3   OH241627   5.294   0.523   3.838
13895TIP3    H141628   5.250   0.576   3.903
13895TIP3    H241629   5.305   0.438   3.880
13896TIP3   OH241630   0.375   0.447   4.856
13896TIP3    H141631   0.329   0.474   4.936
13896TIP3    H241632   0.411   0.361   4.877
13897TIP3   OH241633   0.252   4.069   4.738
13897TIP3    H141634   0.266   4.053   4.644
13897TIP3    H241635   0.303   4.001   4.781
13898TIP3   OH241636   6.453   5.849   4.546
13898TIP3    H141637   6.413   5.776   4.498
13898TIP3    H241638   6.546   5.845   4.521
13899TIP3   OH241639   3.063   3.903   4.198
13899TIP3    H141640   3.020   3.825   4.164
13899TIP3    H241641   3.070   3.887   4.292
13900TIP3   OH241642   4.834   4.476   2.655
13900TIP3    H141643   4.769   4.540   2.626
13900TIP3    H241644   4.894   4.467   2.581
13901TIP3   OH241645   1.349   1.105   5.835
13901TIP3    H141646   1.307   1.021   5.854
13901TIP3    H241647   1.416   1.113   5.903
13902TIP3   OH241648   0.090   5.495   3.300
13902TIP3    H141649   0.101   5.423   3.238
13902TIP3    H241650   0.167   5.488   3.358
13903TIP3   OH241651   0.626   3.306   2.987
13903TIP3    H141652   0.595   3.267   2.905
13903TIP3    H241653   0.610   3.400   2.976
13904TIP3   OH241654   3.039   0.934   1.646
13904TIP3    H141655   3.083   0.859   1.687
13904TIP3    H241656   2.983   0.895   1.578
13905TIP3   OH241657   1.614   0.776   4.678
13905TIP3    H141658   1.548   0.710   4.696
13905TIP3    H241659   1.696   0.738   4.711
13906TIP3   OH241660   5.097   3.431   2.384
13906TIP3    H141661   5.122   3.380   2.460
13906TIP3    H241662   5.110   3.522   2.409
13907TIP3   OH241663   2.098   1.322   2.890
13907TIP3    H141664   2.123   1.345   2.800
13907TIP3    H241665   2.167   1.361   2.944
13908TIP3   OH241666   2.281   3.561   5.968
13908TIP3    H141667   2.233   3.638   5.938
13908TIP3    H241668   2.238   3.535   6.049
13909TIP3   OH241669   3.006   2.549   3.344
13909TIP3    H141670   3.099   2.529   3.341
13909TIP3    H241671   2.963   2.473   3.307
13910TIP3   OH241672   0.853   7.270   3.866
13910TIP3    H141673   0.877   7.283   3.775
13910TIP3    H241674   0.929   7.301   3.916
13911TIP3   OH241675   0.305   6.995   3.339
13911TIP3    H141676   0.368   7.048   3.388
13911TIP3    H241677   0.342   6.907   3.339
13912TIP3   OH241678   1.686   3.105   4.218
13912TIP3    H141679   1.653   3.017   4.235
13912TIP3    H241680   1.612   3.151   4.179
13913TIP3   OH241681   0.280   1.233   0.180
13913TIP3    H141682   0.331   1.190   0.248
13913TIP3    H241683   0.292   1.327   0.196
13914TIP3   OH241684   3.096   5.343   2.861
13914TIP3    H141685   3.070   5.319   2.772
13914TIP3    H241686   3.026   5.309   2.917
13915TIP3   OH241687   1.301   1.406   2.614
13915TIP3    H141688   1.305   1.415   2.519
13915TIP3    H241689   1.381   1.357   2.636
13916TIP3   OH241690   6.338   5.734   5.811
13916TIP3    H141691   6.251   5.769   5.791
13916TIP3    H241692   6.387   5.744   5.730
13917TIP3   OH241693   4.979   5.148   6.312
13917TIP3    H141694   5.019   5.160   6.398
13917TIP3    H241695   5.043   5.187   6.251
13918TIP3   OH241696   6.066   0.473   1.840
13918TIP3    H141697   6.115   0.457   1.760
13918TIP3    H241698   6.001   0.403   1.843
13919TIP3   OH241699   1.527   6.467   6.279
13919TIP3    H141700   1.599   6.519   6.314
13919TIP3    H241701   1.564   6.420   6.205
13920TIP3   OH241702   4.994  -0.023   6.389
13920TIP3    H141703   5.018   0.012   6.303
13920TIP3    H241704   4.955   0.051   6.434
13921TIP3   OH241705   3.872   5.709   2.465
13921TIP3    H141706   3.862   5.699   2.371
13921TIP3    H241707   3.789   5.747   2.494
13922TIP3   OH241708   1.629   1.021   2.465
13922TIP3    H141709   1.688   1.032   2.539
13922TIP3    H241710   1.570   0.950   2.491
13923TIP3   OH241711   1.426   1.670   0.391
13923TIP3    H141712   1.402   1.722   0.468
13923TIP3    H241713   1.517   1.694   0.373
13924TIP3   OH241714   0.692   0.585   5.102
13924TIP3    H141715   0.766   0.645   5.105
13924TIP3    H241716   0.729   0.500   5.128
13925TIP3   OH241717   6.743   3.772   6.274
13925TIP3    H141718   6.817   3.715   6.293
13925TIP3    H241719   6.668   3.712   6.267
13926TIP3   OH241720   7.402   3.027   6.255
13926TIP3    H141721   7.461   2.964   6.213
13926TIP3    H241722   7.347   3.060   6.184
13927TIP3   OH241723   3.759   5.194   2.849
13927TIP3    H141724   3.687   5.218   2.907
13927TIP3    H241725   3.838   5.225   2.894
13928TIP3   OH241726   5.493   4.765   4.650
13928TIP3    H141727   5.561   4.776   4.583
13928TIP3    H241728   5.494   4.847   4.699
13929TIP3   OH241729   3.132   3.765   1.711
13929TIP3    H141730   3.156   3.707   1.784
13929TIP3    H241731   3.187   3.736   1.638
13930TIP3   OH241732   6.688   3.934   3.085
13930TIP3    H141733   6.774   3.971   3.104
13930TIP3    H241734   6.628   3.982   3.142
13931TIP3   OH241735   0.810   7.283   2.423
13931TIP3    H141736   0.732   7.229   2.410
13931TIP3    H241737   0.778   7.373   2.415
13932TIP3   OH241738   3.059   7.461   2.215
13932TIP3    H141739   3.027   7.539   2.260
13932TIP3    H241740   3.020   7.467   2.128
13933TIP3   OH241741   2.421   2.532   0.142
13933TIP3    H141742   2.515   2.526   0.162
13933TIP3    H241743   2.380   2.549   0.227
13934TIP3   OH241744   8.009   5.350   2.665
13934TIP3    H141745   8.049   5.330   2.749
13934TIP3    H241746   7.937   5.289   2.657
13935TIP3   OH241747   1.023   7.437   5.476
13935TIP3    H141748   1.032   7.440   5.571
13935TIP3    H241749   1.045   7.526   5.447
13936TIP3   OH241750   3.058   6.869   3.179
13936TIP3    H141751   3.034   6.919   3.101
13936TIP3    H241752   3.153   6.857   3.171
13937TIP3   OH241753   1.461   0.183   1.373
13937TIP3    H141754   1.492   0.205   1.285
13937TIP3    H241755   1.527   0.122   1.406
13938TIP3   OH241756   7.902   7.415   0.895
13938TIP3    H141757   7.907   7.349   0.826
13938TIP3    H241758   7.827   7.387   0.949
13939TIP3   OH241759   3.021   7.600   5.688
13939TIP3    H141760   2.997   7.664   5.755
13939TIP3    H241761   3.093   7.640   5.640
13940TIP3   OH241762   2.146   6.659   2.576
13940TIP3    H141763   2.150   6.679   2.483
13940TIP3    H241764   2.178   6.569   2.582
13941TIP3   OH241765   0.736   6.330   4.326
13941TIP3    H141766   0.808   6.296   4.379
13941TIP3    H241767   0.658   6.320   4.382
13942TIP3   OH241768   5.158   4.897   5.315
13942TIP3    H141769   5.137   4.804   5.307
13942TIP3    H241770   5.207   4.918   5.236
13943TIP3   OH241771   1.771   6.383   6.556
13943TIP3    H141772   1.714   6.312   6.525
13943TIP3    H241773   1.737   6.461   6.513
13944TIP3   OH241774   2.558   5.116   1.661
13944TIP3    H141775   2.608   5.039   1.633
13944TIP3    H241776   2.473   5.106   1.618
13945TIP3   OH241777   2.009   3.590   0.588
13945TIP3    H141778   2.031   3.497   0.586
13945TIP3    H241779   2.086   3.633   0.625
13946TIP3   OH241780   0.553   4.745   4.902
13946TIP3    H141781   0.644   4.715   4.909
13946TIP3    H241782   0.501   4.672   4.934
13947TIP3   OH241783   0.216   1.740   6.671
13947TIP3    H141784   0.198   1.728   6.765
13947TIP3    H241785   0.305   1.708   6.659
13948TIP3   OH241786   7.977   0.714   0.569
13948TIP3    H141787   7.986   0.669   0.653
13948TIP3    H241788   7.889   0.753   0.573
13949TIP3   OH241789   6.542   5.424   5.187
13949TIP3    H141790   6.626   5.427   5.233
13949TIP3    H241791   6.533   5.510   5.147
13950TIP3   OH241792   6.364   6.088   3.877
13950TIP3    H141793   6.454   6.083   3.910
13950TIP3    H241794   6.310   6.078   3.955
13951TIP3   OH241795   6.620   7.633   1.431
13951TIP3    H141796   6.640   7.546   1.396
13951TIP3    H241797   6.535   7.655   1.392
13952TIP3   OH241798   1.600   3.901   0.904
13952TIP3    H141799   1.511   3.917   0.937
13952TIP3    H241800   1.587   3.873   0.814
13953TIP3   OH241801   3.512   3.690   3.539
13953TIP3    H141802   3.452   3.690   3.614
13953TIP3    H241803   3.505   3.779   3.504
13954TIP3   OH241804   6.399   1.755   5.928
13954TIP3    H141805   6.322   1.811   5.917
13954TIP3    H241806   6.374   1.672   5.887
13955TIP3   OH241807   2.095   0.754   1.912
13955TIP3    H141808   2.061   0.774   2.000
13955TIP3    H241809   2.178   0.709   1.928
13956TIP3   OH241810   3.161   4.662   2.771
13956TIP3    H141811   3.168   4.612   2.689
13956TIP3    H241812   3.097   4.615   2.823
13957TIP3   OH241813   5.830   4.340   6.781
13957TIP3    H141814   5.890   4.415   6.784
13957TIP3    H241815   5.860   4.288   6.706
13958TIP3   OH241816   7.230   4.156   4.432
13958TIP3    H141817   7.280   4.075   4.424
13958TIP3    H241818   7.147   4.128   4.471
13959TIP3   OH241819   3.719   3.687   1.568
13959TIP3    H141820   3.785   3.755   1.583
13959TIP3    H241821   3.681   3.709   1.483
13960TIP3   OH241822   0.644   6.091   5.423
13960TIP3    H141823   0.668   6.183   5.436
13960TIP3    H241824   0.714   6.056   5.368
13961TIP3   OH241825   0.965   4.456   0.907
13961TIP3    H141826   0.999   4.490   0.990
13961TIP3    H241827   1.036   4.403   0.871
13962TIP3   OH241828   0.390   1.608   6.326
13962TIP3    H141829   0.483   1.618   6.346
13962TIP3    H241830   0.350   1.690   6.356
13963TIP3   OH241831   0.990   5.414   4.847
13963TIP3    H141832   1.061   5.352   4.865
13963TIP3    H241833   0.924   5.394   4.914
13964TIP3   OH241834   2.085   6.539   0.025
13964TIP3    H141835   2.049   6.530  -0.064
13964TIP3    H241836   2.128   6.455   0.042
13965TIP3   OH241837   6.580   3.809   3.370
13965TIP3    H141838   6.596   3.762   3.288
13965TIP3    H241839   6.586   3.901   3.346
13966TIP3   OH241840   3.858   3.483   6.221
13966TIP3    H141841   3.907   3.402   6.232
13966TIP3    H241842   3.902   3.527   6.148
13967TIP3   OH241843   6.863   7.602   3.399
13967TIP3    H141844   6.929   7.666   3.372
13967TIP3    H241845   6.865   7.535   3.330
13968TIP3   OH241846   3.337   4.014   4.998
13968TIP3    H141847   3.322   4.101   4.961
13968TIP3    H241848   3.339   3.956   4.922
13969TIP3   OH241849   4.405   6.874   2.621
13969TIP3    H141850   4.435   6.915   2.703
13969TIP3    H241851   4.390   6.948   2.562
13970TIP3   OH241852   1.089   3.415   3.089
13970TIP3    H141853   1.164   3.460   3.053
13970TIP3    H241854   1.023   3.417   3.019
13971TIP3   OH241855   0.223   1.708   2.349
13971TIP3    H141856   0.312   1.671   2.342
13971TIP3    H241857   0.184   1.661   2.423
13972TIP3   OH241858   4.940   0.207   2.701
13972TIP3    H141859   4.981   0.165   2.626
13972TIP3    H241860   4.846   0.206   2.680
13973TIP3   OH241861   5.180   1.888   6.805
13973TIP3    H141862   5.110   1.875   6.868
13973TIP3    H241863   5.152   1.964   6.753
13974TIP3   OH241864   8.213   4.011   0.312
13974TIP3    H141865   8.165   4.057   0.244
13974TIP3    H241866   8.181   4.048   0.394
13975TIP3   OH241867   4.244   4.232   5.181
13975TIP3    H141868   4.281   4.173   5.115
13975TIP3    H241869   4.296   4.312   5.174
13976TIP3   OH241870   4.618   0.162   6.369
13976TIP3    H141871   4.638   0.255   6.376
13976TIP3    H241872   4.657   0.135   6.286
13977TIP3   OH241873   5.874   1.339   0.153
13977TIP3    H141874   5.952   1.370   0.107
13977TIP3    H241875   5.904   1.262   0.202
13978TIP3   OH241876   7.391   3.663   1.665
13978TIP3    H141877   7.419   3.622   1.583
13978TIP3    H241878   7.386   3.756   1.644
13979TIP3   OH241879   7.528   3.093   0.974
13979TIP3    H141880   7.617   3.101   0.940
13979TIP3    H241881   7.530   3.016   1.030
13980TIP3   OH241882   3.925   0.673   4.681
13980TIP3    H141883   3.924   0.588   4.636
13980TIP3    H241884   3.835   0.684   4.713
13981TIP3   OH241885   3.604   4.946   4.502
13981TIP3    H141886   3.644   4.899   4.429
13981TIP3    H241887   3.510   4.941   4.485
13982TIP3   OH241888   7.967   3.821   4.068
13982TIP3    H141889   8.057   3.849   4.088
13982TIP3    H241890   7.913   3.895   4.096
13983TIP3   OH241891   5.770   6.995   1.694
13983TIP3    H141892   5.748   6.979   1.786
13983TIP3    H241893   5.833   7.067   1.696
13984TIP3   OH241894   0.918   2.180   5.715
13984TIP3    H141895   0.943   2.091   5.739
13984TIP3    H241896   0.970   2.200   5.637
13985TIP3   OH241897   0.352   4.984   5.175
13985TIP3    H141898   0.444   4.989   5.150
13985TIP3    H241899   0.322   4.902   5.137
13986TIP3   OH241900   2.064   3.374   3.789
13986TIP3    H141901   2.104   3.418   3.714
13986TIP3    H241902   1.972   3.400   3.785
13987TIP3   OH241903   0.729   1.272   4.966
13987TIP3    H141904   0.738   1.228   5.050
13987TIP3    H241905   0.665   1.219   4.918
13988TIP3   OH241906   3.291   6.783   1.385
13988TIP3    H141907   3.286   6.815   1.475
13988TIP3    H241908   3.315   6.860   1.333
13989TIP3   OH241909   1.667   6.084   1.518
13989TIP3    H141910   1.643   5.999   1.481
13989TIP3    H241911   1.752   6.104   1.479
13990TIP3   OH241912   6.177   4.114   1.930
13990TIP3    H141913   6.159   4.140   1.840
13990TIP3    H241914   6.240   4.042   1.922
13991TIP3   OH241915   1.527   2.491   0.404
13991TIP3    H141916   1.527   2.442   0.321
13991TIP3    H241917   1.448   2.462   0.449
13992TIP3   OH241918   7.613   2.859   1.203
13992TIP3    H141919   7.632   2.812   1.284
13992TIP3    H241920   7.518   2.858   1.196
13993TIP3   OH241921   0.944   6.134   4.453
13993TIP3    H141922   1.027   6.155   4.496
13993TIP3    H241923   0.922   6.047   4.485
13994TIP3   OH241924   0.315   1.059   4.154
13994TIP3    H141925   0.375   0.986   4.170
13994TIP3    H241926   0.346   1.128   4.214
13995TIP3   OH241927   1.866   7.590   0.138
13995TIP3    H141928   1.786   7.585   0.190
13995TIP3    H241929   1.842   7.643   0.062
13996TIP3   OH241930   5.566   1.808   3.249
13996TIP3    H141931   5.540   1.767   3.332
13996TIP3    H241932   5.520   1.891   3.248
13997TIP3   OH241933   2.325   1.423   2.998
13997TIP3    H141934   2.338   1.374   3.079
13997TIP3    H241935   2.413   1.439   2.965
13998TIP3   OH241936   1.201   0.615   5.743
13998TIP3    H141937   1.205   0.542   5.805
13998TIP3    H241938   1.212   0.693   5.797
13999TIP3   OH241939   1.918   5.115   5.485
13999TIP3    H141940   1.929   5.185   5.550
13999TIP3    H241941   1.824   5.102   5.480
14000TIP3   OH241942   0.621   7.781   0.259
14000TIP3    H141943   0.635   7.822   0.344
14000TIP3    H241944   0.682   7.707   0.258
14001TIP3   OH241945   7.383   1.129   1.283
14001TIP3    H141946   7.409   1.199   1.342
14001TIP3    H241947   7.359   1.173   1.201
14002TIP3   OH241948   4.841   5.683   6.051
14002TIP3    H141949   4.887   5.745   5.993
14002TIP3    H241950   4.909   5.653   6.112
14003TIP3   OH241951   2.359   4.875   0.183
14003TIP3    H141952   2.284   4.908   0.133
14003TIP3    H241953   2.431   4.871   0.119
14004TIP3   OH241954   4.758   5.706   2.762
14004TIP3    H141955   4.683   5.650   2.784
14004TIP3    H241956   4.719   5.788   2.731
14005TIP3   OH241957   2.099   7.588   3.632
14005TIP3    H141958   2.136   7.656   3.689
14005TIP3    H241959   2.158   7.514   3.642
14006TIP3   OH241960   1.550   2.112   3.213
14006TIP3    H141961   1.565   2.207   3.212
14006TIP3    H241962   1.632   2.075   3.244
14007TIP3   OH241963   5.749   0.222   3.438
14007TIP3    H141964   5.701   0.152   3.481
14007TIP3    H241965   5.724   0.302   3.485
14008TIP3   OH241966   0.370   6.413   3.860
14008TIP3    H141967   0.434   6.421   3.789
14008TIP3    H241968   0.290   6.381   3.817
14009TIP3   OH241969   5.277   0.319   6.165
14009TIP3    H141970   5.270   0.298   6.258
14009TIP3    H241971   5.208   0.267   6.124
14010TIP3   OH241972   3.647   6.905   3.226
14010TIP3    H141973   3.644   6.980   3.286
14010TIP3    H241974   3.660   6.829   3.284
14011TIP3   OH241975   5.586   4.356   3.286
14011TIP3    H141976   5.604   4.348   3.192
14011TIP3    H241977   5.671   4.380   3.324
14012TIP3   OH241978   6.053   1.837   1.631
14012TIP3    H141979   6.098   1.752   1.637
14012TIP3    H241980   5.960   1.815   1.632
14013TIP3   OH241981   2.240   3.721   0.126
14013TIP3    H141982   2.177   3.778   0.082
14013TIP3    H241983   2.189   3.643   0.151
14014TIP3   OH241984   4.004   0.091   3.770
14014TIP3    H141985   3.931   0.123   3.822
14014TIP3    H241986   4.004  -0.004   3.784
14015TIP3   OH241987   1.721   0.809   1.749
14015TIP3    H141988   1.688   0.892   1.715
14015TIP3    H241989   1.651   0.775   1.803
14016TIP3   OH241990   0.625   7.646   1.164
14016TIP3    H141991   0.682   7.722   1.152
14016TIP3    H241992   0.686   7.573   1.178
14017TIP3   OH241993   2.899   2.348   4.046
14017TIP3    H141994   2.889   2.342   3.951
14017TIP3    H241995   2.890   2.257   4.076
14018TIP3   OH241996   4.541   1.659   1.583
14018TIP3    H141997   4.447   1.640   1.586
14018TIP3    H241998   4.572   1.641   1.672
14019TIP3   OH241999   3.689   4.370   6.439
14019TIP3    H142000   3.660   4.428   6.369
14019TIP3    H242001   3.645   4.403   6.517
14020TIP3   OH242002   6.867   5.935   6.563
14020TIP3    H142003   6.837   5.846   6.548
14020TIP3    H242004   6.962   5.931   6.547
14021TIP3   OH242005   1.862   4.762   1.599
14021TIP3    H142006   1.897   4.675   1.580
14021TIP3    H242007   1.934   4.821   1.578
14022TIP3   OH242008   0.502   0.658   5.814
14022TIP3    H142009   0.509   0.752   5.797
14022TIP3    H242010   0.570   0.640   5.879
14023TIP3   OH242011   3.680   3.614   4.031
14023TIP3    H142012   3.623   3.688   4.050
14023TIP3    H242013   3.709   3.628   3.941
14024TIP3   OH242014   4.213   3.672   2.008
14024TIP3    H142015   4.294   3.722   1.997
14024TIP3    H242016   4.154   3.731   2.053
14025TIP3   OH242017   2.729   2.287   0.965
14025TIP3    H142018   2.813   2.269   1.007
14025TIP3    H242019   2.665   2.284   1.036
14026TIP3   OH242020   6.312   6.925   4.437
14026TIP3    H142021   6.320   6.948   4.345
14026TIP3    H242022   6.399   6.940   4.474
14027TIP3   OH242023   2.733   5.053   6.695
14027TIP3    H142024   2.827   5.069   6.683
14027TIP3    H242025   2.727   5.005   6.778
14028TIP3   OH242026   4.562   4.095   4.483
14028TIP3    H142027   4.473   4.121   4.506
14028TIP3    H242028   4.597   4.056   4.563
14029TIP3   OH242029   7.280   4.553   3.673
14029TIP3    H142030   7.274   4.545   3.768
14029TIP3    H242031   7.271   4.647   3.656
14030TIP3   OH242032   5.400   7.406   3.072
14030TIP3    H142033   5.474   7.351   3.096
14030TIP3    H242034   5.332   7.384   3.136
14031TIP3   OH242035   2.964   0.222   3.672
14031TIP3    H142036   2.921   0.136   3.676
14031TIP3    H242037   2.959   0.247   3.580
14032TIP3   OH242038   1.549   5.961   6.055
14032TIP3    H142039   1.514   5.900   5.991
14032TIP3    H242040   1.478   6.023   6.070
14033TIP3   OH242041   0.075   3.829   0.638
14033TIP3    H142042   0.107   3.847   0.727
14033TIP3    H242043   0.060   3.734   0.637
14034TIP3   OH242044   7.639   7.259   6.625
14034TIP3    H142045   7.675   7.250   6.537
14034TIP3    H242046   7.674   7.184   6.674
14035TIP3   OH242047   4.962   6.768   4.122
14035TIP3    H142048   4.888   6.707   4.125
14035TIP3    H242049   5.037   6.717   4.152
14036TIP3   OH242050   8.125   1.724   1.295
14036TIP3    H142051   8.180   1.716   1.373
14036TIP3    H242052   8.169   1.671   1.229
14037TIP3   OH242053   3.809   4.723   2.489
14037TIP3    H142054   3.884   4.747   2.543
14037TIP3    H242055   3.735   4.769   2.530
14038TIP3   OH242056   1.292   5.272   6.802
14038TIP3    H142057   1.381   5.238   6.794
14038TIP3    H242058   1.304   5.362   6.830
14039TIP3   OH242059   7.596   0.804   5.101
14039TIP3    H142060   7.605   0.734   5.165
14039TIP3    H242061   7.530   0.772   5.040
14040TIP3   OH242062   7.920   0.993   2.338
14040TIP3    H142063   8.014   0.988   2.319
14040TIP3    H242064   7.906   1.085   2.363
14041TIP3   OH242065   0.439   2.892   5.604
14041TIP3    H142066   0.453   2.803   5.572
14041TIP3    H242067   0.358   2.921   5.562
14042TIP3   OH242068   3.838   5.306   6.795
14042TIP3    H142069   3.824   5.312   6.889
14042TIP3    H242070   3.816   5.215   6.774
14043TIP3   OH242071   4.914   5.388   2.812
14043TIP3    H142072   4.834   5.365   2.764
14043TIP3    H242073   4.944   5.468   2.771
14044TIP3   OH242074   3.146   7.806   6.377
14044TIP3    H142075   3.139   7.757   6.295
14044TIP3    H242076   3.067   7.859   6.381
14045TIP3   OH242077   0.206   0.503   5.086
14045TIP3    H142078   0.119   0.542   5.093
14045TIP3    H242079   0.198   0.418   5.130
14046TIP3   OH242080   7.637   3.017   3.284
14046TIP3    H142081   7.550   2.978   3.289
14046TIP3    H242082   7.695   2.944   3.261
14047TIP3   OH242083   4.895   2.328   3.336
14047TIP3    H142084   4.828   2.277   3.289
14047TIP3    H242085   4.900   2.287   3.422
14048TIP3   OH242086   8.016   5.420   1.672
14048TIP3    H142087   8.084   5.469   1.718
14048TIP3    H242088   7.934   5.448   1.712
14049TIP3   OH242089   0.579   2.864   4.445
14049TIP3    H142090   0.549   2.954   4.429
14049TIP3    H242091   0.501   2.818   4.476
14050TIP3   OH242092   7.920   3.451   0.166
14050TIP3    H142093   7.855   3.381   0.157
14050TIP3    H242094   7.971   3.427   0.243
14051TIP3   OH242095   3.552   2.943   6.722
14051TIP3    H142096   3.634   2.914   6.684
14051TIP3    H242097   3.535   3.027   6.681
14052TIP3   OH242098   8.123   5.096   5.622
14052TIP3    H142099   8.136   5.095   5.716
14052TIP3    H242100   8.044   5.043   5.607
14053TIP3   OH242101   2.802   0.372   2.228
14053TIP3    H142102   2.716   0.390   2.265
14053TIP3    H242103   2.784   0.316   2.152
14054TIP3   OH242104   2.026   2.310   4.122
14054TIP3    H142105   1.946   2.338   4.078
14054TIP3    H242106   2.094   2.365   4.085
14055TIP3   OH242107   3.338   3.076   5.242
14055TIP3    H142108   3.287   3.023   5.181
14055TIP3    H242109   3.273   3.108   5.305
14056TIP3   OH242110   4.951   3.232   5.349
14056TIP3    H142111   4.921   3.187   5.271
14056TIP3    H242112   5.046   3.218   5.351
14057TIP3   OH242113   6.441   7.671   2.136
14057TIP3    H142114   6.516   7.683   2.077
14057TIP3    H242115   6.389   7.603   2.095
14058TIP3   OH242116   0.380   1.781   4.962
14058TIP3    H142117   0.377   1.806   5.055
14058TIP3    H242118   0.456   1.722   4.956
14059TIP3   OH242119   0.178   7.726   6.078
14059TIP3    H142120   0.229   7.780   6.139
14059TIP3    H242121   0.232   7.720   6.000
14060TIP3   OH242122   3.407   3.642   6.508
14060TIP3    H142123   3.382   3.655   6.416
14060TIP3    H242124   3.486   3.695   6.518
14061TIP3   OH242125   6.048   0.077   0.264
14061TIP3    H142126   6.024   0.150   0.207
14061TIP3    H242127   6.045   0.114   0.352
14062TIP3   OH242128   3.057   5.596   0.845
14062TIP3    H142129   3.050   5.632   0.933
14062TIP3    H242130   3.010   5.657   0.790
14063TIP3   OH242131   5.504   3.747   5.186
14063TIP3    H142132   5.442   3.721   5.254
14063TIP3    H242133   5.580   3.691   5.200
14064TIP3   OH242134   4.774   3.361   3.205
14064TIP3    H142135   4.830   3.306   3.149
14064TIP3    H242136   4.816   3.447   3.204
14065TIP3   OH242137   4.449   1.543   3.663
14065TIP3    H142138   4.538   1.541   3.701
14065TIP3    H242139   4.442   1.631   3.625
14066TIP3   OH242140   3.904   2.871   4.756
14066TIP3    H142141   3.866   2.938   4.699
14066TIP3    H242142   3.950   2.920   4.824
14067TIP3   OH242143   5.140   7.687   5.587
14067TIP3    H142144   5.146   7.751   5.515
14067TIP3    H242145   5.051   7.653   5.582
14068TIP3   OH242146   3.149   6.723   4.973
14068TIP3    H142147   3.190   6.805   4.945
14068TIP3    H242148   3.056   6.744   4.982
14069TIP3   OH242149   2.730   5.555   4.041
14069TIP3    H142150   2.702   5.464   4.030
14069TIP3    H242151   2.775   5.576   3.959
14070TIP3   OH242152   1.457   7.127   4.383
14070TIP3    H142153   1.547   7.153   4.399
14070TIP3    H242154   1.451   7.121   4.287
14071TIP3   OH242155   3.035   7.450   3.096
14071TIP3    H142156   3.042   7.541   3.125
14071TIP3    H242157   3.100   7.403   3.148
14072TIP3   OH242158   4.321   5.835   3.210
14072TIP3    H142159   4.404   5.881   3.194
14072TIP3    H242160   4.277   5.834   3.126
14073TIP3   OH242161   5.354   2.680   2.077
14073TIP3    H142162   5.332   2.591   2.050
14073TIP3    H242163   5.380   2.724   1.996
14074TIP3   OH242164   5.868   6.749   4.857
14074TIP3    H142165   5.915   6.829   4.884
14074TIP3    H242166   5.781   6.780   4.833
14075TIP3   OH242167   2.947   6.594   4.295
14075TIP3    H142168   2.956   6.583   4.389
14075TIP3    H242169   2.965   6.507   4.259
14076TIP3   OH242170   4.522   4.976   0.834
14076TIP3    H142171   4.557   4.890   0.857
14076TIP3    H242172   4.474   4.960   0.753
14077TIP3   OH242173   8.161   7.640   3.307
14077TIP3    H142174   8.211   7.704   3.357
14077TIP3    H242175   8.218   7.617   3.234
14078TIP3   OH242176   7.653   3.535   0.475
14078TIP3    H142177   7.747   3.520   0.468
14078TIP3    H242178   7.634   3.598   0.406
14079TIP3   OH242179   4.132   2.512   5.174
14079TIP3    H142180   4.163   2.542   5.259
14079TIP3    H242181   4.047   2.554   5.163
14080TIP3   OH242182   2.505   1.527   0.603
14080TIP3    H142183   2.561   1.508   0.528
14080TIP3    H242184   2.562   1.570   0.666
14081TIP3   OH242185   4.355   2.906   2.413
14081TIP3    H142186   4.319   2.874   2.496
14081TIP3    H242187   4.299   2.980   2.390
14082TIP3   OH242188   4.141   0.742   4.828
14082TIP3    H142189   4.067   0.697   4.787
14082TIP3    H242190   4.191   0.778   4.755
14083TIP3   OH242191   3.451   4.743   5.305
14083TIP3    H142192   3.500   4.825   5.309
14083TIP3    H242193   3.518   4.675   5.292
14084TIP3   OH242194   0.279   2.262   0.840
14084TIP3    H142195   0.207   2.199   0.849
14084TIP3    H242196   0.346   2.215   0.789
14085TIP3   OH242197   2.686   5.451   6.620
14085TIP3    H142198   2.609   5.397   6.638
14085TIP3    H242199   2.707   5.492   6.704
14086TIP3   OH242200   0.607   6.383   2.941
14086TIP3    H142201   0.544   6.407   2.873
14086TIP3    H242202   0.556   6.339   3.008
14087TIP3   OH242203   2.519   0.501   3.118
14087TIP3    H142204   2.469   0.435   3.165
14087TIP3    H242205   2.466   0.521   3.041
14088TIP3   OH242206   6.690   4.920   6.740
14088TIP3    H142207   6.719   4.832   6.713
14088TIP3    H242208   6.600   4.908   6.768
14089TIP3   OH242209   6.656   7.141   5.381
14089TIP3    H142210   6.660   7.055   5.423
14089TIP3    H242211   6.646   7.122   5.288
14090TIP3   OH242212   1.989   3.613   4.629
14090TIP3    H142213   1.941   3.531   4.632
14090TIP3    H242214   1.938   3.669   4.570
14091TIP3   OH242215   3.692   6.379   6.464
14091TIP3    H142216   3.781   6.360   6.434
14091TIP3    H242217   3.701   6.403   6.556
14092TIP3   OH242218   7.318   1.016   1.979
14092TIP3    H142219   7.402   0.972   1.993
14092TIP3    H242220   7.295   0.994   1.888
14093TIP3   OH242221   6.518   7.026   1.843
14093TIP3    H142222   6.516   7.043   1.749
14093TIP3    H242223   6.492   7.109   1.883
14094TIP3   OH242224   6.754   3.491   6.132
14094TIP3    H142225   6.817   3.501   6.203
14094TIP3    H242226   6.770   3.565   6.075
14095TIP3   OH242227   1.395   1.237   4.306
14095TIP3    H142228   1.364   1.327   4.298
14095TIP3    H242229   1.462   1.240   4.374
14096TIP3   OH242230   7.070   2.595   6.506
14096TIP3    H142231   7.007   2.662   6.533
14096TIP3    H242232   7.151   2.643   6.490
14097TIP3   OH242233   4.563   5.495   2.010
14097TIP3    H142234   4.645   5.539   1.986
14097TIP3    H242235   4.505   5.511   1.935
14098TIP3   OH242236   1.672   2.788   2.626
14098TIP3    H142237   1.599   2.731   2.601
14098TIP3    H242238   1.631   2.860   2.673
14099TIP3   OH242239   0.889   0.075   0.807
14099TIP3    H142240   0.841   0.125   0.740
14099TIP3    H242241   0.826   0.010   0.838
14100TIP3   OH242242   0.709   2.222   0.991
14100TIP3    H142243   0.753   2.162   1.051
14100TIP3    H242244   0.762   2.220   0.912
14101TIP3   OH242245   6.899   0.309   0.646
14101TIP3    H142246   6.923   0.382   0.703
14101TIP3    H242247   6.803   0.308   0.647
14102TIP3   OH242248   7.030   7.328   0.717
14102TIP3    H142249   6.987   7.245   0.697
14102TIP3    H242250   7.021   7.379   0.637
14103TIP3   OH242251   6.331   7.551   1.030
14103TIP3    H142252   6.402   7.492   1.006
14103TIP3    H242253   6.355   7.583   1.117
14104TIP3   OH242254   2.294   4.949   4.403
14104TIP3    H142255   2.278   4.915   4.491
14104TIP3    H242256   2.264   5.039   4.406
14105TIP3   OH242257   0.970   5.844   0.394
14105TIP3    H142258   0.899   5.781   0.385
14105TIP3    H242259   1.041   5.795   0.434
14106TIP3   OH242260   3.058   1.873   2.290
14106TIP3    H142261   3.147   1.908   2.287
14106TIP3    H242262   3.061   1.804   2.357
14107TIP3   OH242263   3.302   0.384   3.916
14107TIP3    H142264   3.347   0.402   3.833
14107TIP3    H242265   3.253   0.303   3.899
14108TIP3   OH242266   0.257   5.524   5.276
14108TIP3    H142267   0.306   5.531   5.357
14108TIP3    H242268   0.167   5.505   5.303
14109TIP3   OH242269   2.611   5.520   4.414
14109TIP3    H142270   2.699   5.503   4.381
14109TIP3    H242271   2.560   5.444   4.385
14110TIP3   OH242272   4.817   0.727   6.358
14110TIP3    H142273   4.909   0.725   6.385
14110TIP3    H242274   4.819   0.760   6.268
14111TIP3   OH242275   5.975   2.719   0.154
14111TIP3    H142276   5.985   2.644   0.096
14111TIP3    H242277   6.020   2.694   0.234
14112TIP3   OH242278   3.701   2.024   4.452
14112TIP3    H142279   3.724   2.042   4.361
14112TIP3    H242280   3.757   1.950   4.477
14113TIP3   OH242281   6.677   4.946   0.444
14113TIP3    H142282   6.643   4.967   0.357
14113TIP3    H242283   6.711   5.029   0.477
14114TIP3   OH242284   5.118   7.748   6.391
14114TIP3    H142285   5.101   7.676   6.452
14114TIP3    H242286   5.209   7.737   6.367
14115TIP3   OH242287   7.711   1.971   0.455
14115TIP3    H142288   7.785   2.018   0.416
14115TIP3    H242289   7.733   1.965   0.548
14116TIP3   OH242290   4.662   3.822   1.466
14116TIP3    H142291   4.695   3.904   1.502
14116TIP3    H242292   4.573   3.842   1.438
14117TIP3   OH242293   6.493   1.571   4.619
14117TIP3    H142294   6.509   1.638   4.685
14117TIP3    H242295   6.549   1.498   4.645
14118TIP3   OH242296   4.196   4.652   4.904
14118TIP3    H142297   4.245   4.574   4.877
14118TIP3    H242298   4.159   4.686   4.822
14119TIP3   OH242299   4.078   2.257   5.999
14119TIP3    H142300   4.022   2.198   5.949
14119TIP3    H242301   4.089   2.333   5.942
14120TIP3   OH242302   1.401   5.719   4.155
14120TIP3    H142303   1.329   5.744   4.211
14120TIP3    H242304   1.367   5.730   4.066
14121TIP3   OH242305   7.156   5.471   2.046
14121TIP3    H142306   7.213   5.437   2.116
14121TIP3    H242307   7.081   5.510   2.093
14122TIP3   OH242308   7.833   6.650   0.884
14122TIP3    H142309   7.928   6.654   0.898
14122TIP3    H242310   7.822   6.658   0.790
14123TIP3   OH242311   0.941   2.730   5.522
14123TIP3    H142312   0.938   2.643   5.561
14123TIP3    H242313   0.990   2.783   5.585
14124TIP3   OH242314   7.722   3.876   2.012
14124TIP3    H142315   7.772   3.842   2.086
14124TIP3    H242316   7.699   3.799   1.961
14125TIP3   OH242317   2.639   1.266   2.845
14125TIP3    H142318   2.718   1.258   2.898
14125TIP3    H242319   2.615   1.176   2.823
14126TIP3   OH242320   3.190   6.839   5.523
14126TIP3    H142321   3.217   6.831   5.431
14126TIP3    H242322   3.099   6.869   5.518
14127TIP3   OH242323   3.245   3.198   5.512
14127TIP3    H142324   3.271   3.144   5.586
14127TIP3    H242325   3.177   3.255   5.546
14128TIP3   OH242326   1.509   3.253   1.188
14128TIP3    H142327   1.526   3.203   1.109
14128TIP3    H242328   1.484   3.340   1.157
14129TIP3   OH242329   2.873   5.230   0.966
14129TIP3    H142330   2.958   5.210   0.926
14129TIP3    H242331   2.814   5.243   0.892
14130TIP3   OH242332   3.302   1.117   1.986
14130TIP3    H142333   3.235   1.166   1.938
14130TIP3    H242334   3.316   1.169   2.066
14131TIP3   OH242335   7.062   2.084   1.470
14131TIP3    H142336   7.149   2.117   1.448
14131TIP3    H242337   7.075   2.035   1.551
14132TIP3   OH242338   7.049   0.062   1.589
14132TIP3    H142339   6.978   0.005   1.558
14132TIP3    H242340   7.091   0.093   1.509
14133TIP3   OH242341   7.655   2.868   3.977
14133TIP3    H142342   7.561   2.881   3.966
14133TIP3    H242343   7.695   2.919   3.907
14134TIP3   OH242344   5.069   6.447   3.481
14134TIP3    H142345   5.056   6.529   3.434
14134TIP3    H242346   5.162   6.426   3.467
14135TIP3   OH242347   4.919   2.272   3.612
14135TIP3    H142348   4.863   2.348   3.625
14135TIP3    H242349   5.007   2.303   3.632
14136TIP3   OH242350   2.422   5.395   2.855
14136TIP3    H142351   2.328   5.397   2.834
14136TIP3    H242352   2.438   5.306   2.885
14137TIP3   OH242353   7.572   4.122   4.190
14137TIP3    H142354   7.560   4.206   4.235
14137TIP3    H242355   7.665   4.105   4.195
14138TIP3   OH242356   4.712   7.300   0.235
14138TIP3    H142357   4.634   7.268   0.191
14138TIP3    H242358   4.739   7.377   0.185
14139TIP3   OH242359   2.938   0.349   1.276
14139TIP3    H142360   2.899   0.363   1.362
14139TIP3    H242361   2.864   0.345   1.216
14140TIP3   OH242362   2.343   7.879   5.976
14140TIP3    H142363   2.305   7.811   6.032
14140TIP3    H242364   2.371   7.832   5.897
14141TIP3   OH242365   5.666   5.715   4.123
14141TIP3    H142366   5.604   5.723   4.051
14141TIP3    H242367   5.632   5.773   4.192
14142TIP3   OH242368   1.780   5.134   2.083
14142TIP3    H142369   1.704   5.145   2.026
14142TIP3    H242370   1.853   5.116   2.024
14143TIP3   OH242371   2.805   6.709   0.305
14143TIP3    H142372   2.722   6.697   0.350
14143TIP3    H242373   2.864   6.645   0.346
14144TIP3   OH242374   4.718   7.745   6.838
14144TIP3    H142375   4.717   7.813   6.771
14144TIP3    H242376   4.681   7.668   6.794
14145TIP3   OH242377   5.708   7.572   0.730
14145TIP3    H142378   5.734   7.499   0.786
14145TIP3    H242379   5.613   7.566   0.724
14146TIP3   OH242380   8.194   6.310   3.738
14146TIP3    H142381   8.219   6.251   3.667
14146TIP3    H242382   8.247   6.282   3.812
14147TIP3   OH242383   0.166   1.008   3.009
14147TIP3    H142384   0.076   1.017   2.980
14147TIP3    H242385   0.219   1.041   2.936
14148TIP3   OH242386   7.442   4.653   0.518
14148TIP3    H142387   7.496   4.668   0.595
14148TIP3    H242388   7.436   4.558   0.510
14149TIP3   OH242389   2.520   1.914   1.766
14149TIP3    H142390   2.547   1.981   1.703
14149TIP3    H242391   2.434   1.944   1.797
14150TIP3   OH242392   7.996   4.651   3.669
14150TIP3    H142393   7.902   4.667   3.678
14150TIP3    H242394   8.009   4.635   3.576
14151TIP3   OH242395   2.816   4.791   5.843
14151TIP3    H142396   2.749   4.758   5.903
14151TIP3    H242397   2.842   4.875   5.880
14152TIP3   OH242398   5.859   5.572   2.907
14152TIP3    H142399   5.931   5.521   2.869
14152TIP3    H242400   5.785   5.511   2.909
14153TIP3   OH242401   2.069   5.976   1.342
14153TIP3    H142402   2.023   5.970   1.426
14153TIP3    H242403   2.080   5.886   1.314
14154TIP3   OH242404   0.027   5.868   4.363
14154TIP3    H142405  -0.043   5.803   4.352
14154TIP3    H242406  -0.011   5.933   4.422
14155TIP3   OH242407   4.237   3.165   2.547
14155TIP3    H142408   4.192   3.148   2.465
14155TIP3    H242409   4.166   3.175   2.611
14156TIP3   OH242410   4.827   6.296   1.146
14156TIP3    H142411   4.894   6.227   1.142
14156TIP3    H242412   4.872   6.372   1.181
14157TIP3   OH242413   1.084   1.187   0.803
14157TIP3    H142414   0.992   1.201   0.780
14157TIP3    H242415   1.129   1.264   0.770
14158TIP3   OH242416   5.951   5.151   5.669
14158TIP3    H142417   5.947   5.057   5.687
14158TIP3    H242418   5.993   5.188   5.746
14159TIP3   OH242419   0.334   6.124   2.553
14159TIP3    H142420   0.415   6.153   2.512
14159TIP3    H242421   0.360   6.101   2.643
14160TIP3   OH242422   7.490   3.568   1.434
14160TIP3    H142423   7.446   3.505   1.377
14160TIP3    H242424   7.583   3.546   1.428
14161TIP3   OH242425   4.322   3.988   5.021
14161TIP3    H142426   4.415   4.005   5.009
14161TIP3    H242427   4.311   3.897   4.995
14162TIP3   OH242428   4.224   2.514   3.315
14162TIP3    H142429   4.251   2.423   3.326
14162TIP3    H242430   4.136   2.518   3.353
14163TIP3   OH242431   0.957   5.761   4.780
14163TIP3    H142432   0.891   5.768   4.849
14163TIP3    H242433   1.041   5.762   4.826
14164TIP3   OH242434   2.507   4.426   5.035
14164TIP3    H142435   2.576   4.456   4.975
14164TIP3    H242436   2.551   4.414   5.119
14165TIP3   OH242437   4.300   4.161   4.540
14165TIP3    H142438   4.261   4.248   4.538
14165TIP3    H242439   4.261   4.119   4.617
14166TIP3   OH242440   2.897   1.867   2.084
14166TIP3    H142441   2.955   1.848   2.010
14166TIP3    H242442   2.955   1.889   2.156
14167TIP3   OH242443   0.409   6.607   2.981
14167TIP3    H142444   0.470   6.661   2.931
14167TIP3    H242445   0.457   6.527   3.001
14168TIP3   OH242446   0.895   7.632   1.711
14168TIP3    H142447   0.801   7.629   1.694
14168TIP3    H242448   0.915   7.546   1.748
14169TIP3   OH242449   1.643   6.726   0.354
14169TIP3    H142450   1.702   6.741   0.280
14169TIP3    H242451   1.656   6.634   0.377
14170TIP3   OH242452   4.400   2.359   3.748
14170TIP3    H142453   4.366   2.272   3.767
14170TIP3    H242454   4.325   2.417   3.762
14171TIP3   OH242455   1.877   2.163   1.079
14171TIP3    H142456   1.947   2.222   1.049
14171TIP3    H242457   1.880   2.169   1.174
14172TIP3   OH242458   2.595   4.937   0.035
14172TIP3    H142459   2.608   4.941  -0.060
14172TIP3    H242460   2.668   4.988   0.071
14173TIP3   OH242461   4.631   0.300   3.999
14173TIP3    H142462   4.598   0.379   4.040
14173TIP3    H242463   4.726   0.305   4.010
14174TIP3   OH242464   4.987   5.457   3.568
14174TIP3    H142465   5.054   5.514   3.607
14174TIP3    H242466   5.038   5.392   3.519
14175TIP3   OH242467   0.139   7.302   5.208
14175TIP3    H142468   0.162   7.385   5.250
14175TIP3    H242469   0.102   7.249   5.279
14176TIP3   OH242470   3.150   2.711   0.751
14176TIP3    H142471   3.175   2.779   0.689
14176TIP3    H242472   3.232   2.669   0.776
14177TIP3   OH242473   2.413   5.119   5.052
14177TIP3    H142474   2.354   5.148   4.983
14177TIP3    H242475   2.455   5.199   5.083
14178TIP3   OH242476   2.519   5.660   4.935
14178TIP3    H142477   2.550   5.746   4.964
14178TIP3    H242478   2.478   5.677   4.850
14179TIP3   OH242479   4.915   4.299   1.640
14179TIP3    H142480   4.966   4.281   1.561
14179TIP3    H242481   4.980   4.309   1.709
14180TIP3   OH242482   5.094   5.437   6.737
14180TIP3    H142483   5.144   5.491   6.800
14180TIP3    H242484   5.007   5.429   6.776
14181TIP3   OH242485   5.443   0.282   2.076
14181TIP3    H142486   5.374   0.348   2.066
14181TIP3    H242487   5.524   0.332   2.077
14182TIP3   OH242488   6.617   5.711   0.617
14182TIP3    H142489   6.664   5.671   0.691
14182TIP3    H242490   6.591   5.797   0.649
14183TIP3   OH242491   4.621   3.309   0.117
14183TIP3    H142492   4.589   3.273   0.034
14183TIP3    H242493   4.714   3.327   0.101
14184TIP3   OH242494   0.375   7.659   2.120
14184TIP3    H142495   0.315   7.654   2.195
14184TIP3    H242496   0.355   7.581   2.068
14185TIP3   OH242497   2.145   4.830   6.277
14185TIP3    H142498   2.050   4.840   6.283
14185TIP3    H242499   2.177   4.917   6.252
14186TIP3   OH242500   2.201   2.830   1.326
14186TIP3    H142501   2.257   2.907   1.320
14186TIP3    H242502   2.133   2.855   1.388
14187TIP3   OH242503   2.092   1.847   5.590
14187TIP3    H142504   2.010   1.871   5.632
14187TIP3    H242505   2.084   1.879   5.500
14188TIP3   OH242506   2.242   6.668   4.189
14188TIP3    H142507   2.309   6.637   4.249
14188TIP3    H242508   2.256   6.763   4.183
14189TIP3   OH242509   3.434   7.582   4.175
14189TIP3    H142510   3.358   7.526   4.187
14189TIP3    H242511   3.509   7.525   4.194
14190TIP3   OH242512   5.483   3.096   2.663
14190TIP3    H142513   5.434   3.101   2.745
14190TIP3    H242514   5.564   3.145   2.680
14191TIP3   OH242515   7.974   1.258   3.137
14191TIP3    H142516   7.885   1.261   3.171
14191TIP3    H242517   7.977   1.326   3.070
14192TIP3   OH242518   7.818   6.239   6.275
14192TIP3    H142519   7.838   6.294   6.200
14192TIP3    H242520   7.887   6.173   6.276
14193TIP3   OH242521   1.181   7.820   0.988
14193TIP3    H142522   1.261   7.858   1.024
14193TIP3    H242523   1.121   7.816   1.063
14194TIP3   OH242524   5.033   3.156   2.187
14194TIP3    H142525   4.989   3.240   2.197
14194TIP3    H242526   5.046   3.125   2.277
14195TIP3   OH242527   6.131   4.098   3.703
14195TIP3    H142528   6.064   4.048   3.750
14195TIP3    H242529   6.084   4.174   3.669
14196TIP3   OH242530   4.055   2.323   2.766
14196TIP3    H142531   4.047   2.346   2.858
14196TIP3    H242532   4.033   2.403   2.718
14197TIP3   OH242533   1.148   7.234   4.087
14197TIP3    H142534   1.108   7.208   4.171
14197TIP3    H242535   1.210   7.163   4.068
14198TIP3   OH242536   4.715   5.352   2.248
14198TIP3    H142537   4.755   5.280   2.199
14198TIP3    H242538   4.624   5.325   2.261
14199TIP3   OH242539   2.312   4.322   4.259
14199TIP3    H142540   2.270   4.318   4.173
14199TIP3    H242541   2.382   4.257   4.255
14200TIP3   OH242542   7.162   5.054   2.758
14200TIP3    H142543   7.202   4.986   2.703
14200TIP3    H242544   7.080   5.075   2.714
14201TIP3   OH242545   7.280   7.650   3.023
14201TIP3    H142546   7.222   7.661   3.098
14201TIP3    H242547   7.299   7.739   2.994
14202TIP3   OH242548   3.565   7.336   3.504
14202TIP3    H142549   3.492   7.345   3.443
14202TIP3    H242550   3.524   7.344   3.591
14203TIP3   OH242551   4.051   5.921   2.273
14203TIP3    H142552   4.129   5.963   2.310
14203TIP3    H242553   4.083   5.878   2.194
14204TIP3   OH242554   5.647   4.765   2.706
14204TIP3    H142555   5.584   4.813   2.759
14204TIP3    H242556   5.670   4.825   2.635
14205TIP3   OH242557   7.343   2.413   0.544
14205TIP3    H142558   7.362   2.337   0.599
14205TIP3    H242559   7.255   2.396   0.510
14206TIP3   OH242560   3.398   6.328   3.950
14206TIP3    H142561   3.360   6.414   3.967
14206TIP3    H242562   3.379   6.312   3.857
14207TIP3   OH242563   3.936   3.986   2.880
14207TIP3    H142564   3.942   4.063   2.824
14207TIP3    H242565   3.902   4.019   2.963
14208TIP3   OH242566   4.559   4.206   3.475
14208TIP3    H142567   4.475   4.182   3.436
14208TIP3    H242568   4.549   4.183   3.568
14209TIP3   OH242569   7.808   1.823   0.700
14209TIP3    H142570   7.895   1.857   0.677
14209TIP3    H242571   7.810   1.732   0.672
14210TIP3   OH242572   2.850   0.394   5.253
14210TIP3    H142573   2.794   0.461   5.213
14210TIP3    H242574   2.832   0.314   5.203
14211TIP3   OH242575   7.950   3.482   5.964
14211TIP3    H142576   7.975   3.400   5.922
14211TIP3    H242577   7.858   3.471   5.985
14212TIP3   OH242578   0.436   7.784   5.557
14212TIP3    H142579   0.344   7.787   5.532
14212TIP3    H242580   0.450   7.693   5.585
14213TIP3   OH242581   0.356   1.837  -0.025
14213TIP3    H142582   0.283   1.898  -0.030
14213TIP3    H242583   0.420   1.882   0.031
14214TIP3   OH242584   0.891   1.114   3.153
14214TIP3    H142585   0.819   1.062   3.188
14214TIP3    H242586   0.856   1.153   3.073
14215TIP3   OH242587   0.941   0.563   3.529
14215TIP3    H142588   0.925   0.656   3.540
14215TIP3    H242589   0.999   0.540   3.602
14216TIP3   OH242590   5.412   0.746   4.149
14216TIP3    H142591   5.448   0.834   4.159
14216TIP3    H242592   5.412   0.709   4.237
14217TIP3   OH242593   3.959   1.341   0.609
14217TIP3    H142594   3.872   1.376   0.590
14217TIP3    H242595   3.976   1.367   0.700
14218TIP3   OH242596   2.276   2.442   4.096
14218TIP3    H142597   2.345   2.386   4.131
14218TIP3    H242598   2.304   2.461   4.006
14219TIP3   OH242599   4.062   4.999   2.972
14219TIP3    H142600   4.110   4.973   2.894
14219TIP3    H242601   3.970   4.981   2.950
14220TIP3   OH242602   4.132   2.348   0.713
14220TIP3    H142603   4.178   2.419   0.756
14220TIP3    H242604   4.201   2.287   0.687
14221TIP3   OH242605   0.263   2.928   3.386
14221TIP3    H142606   0.226   2.866   3.447
14221TIP3    H242607   0.357   2.910   3.387
14222TIP3   OH242608   6.494   0.305   4.308
14222TIP3    H142609   6.477   0.398   4.323
14222TIP3    H242610   6.468   0.290   4.217
14223TIP3   OH242611   5.777   0.534   1.898
14223TIP3    H142612   5.814   0.577   1.975
14223TIP3    H242613   5.791   0.441   1.913
14224TIP3   OH242614   2.970   3.521   2.109
14224TIP3    H142615   2.961   3.517   2.205
14224TIP3    H242616   2.890   3.481   2.076
14225TIP3   OH242617   4.797   6.298   0.761
14225TIP3    H142618   4.863   6.236   0.793
14225TIP3    H242619   4.733   6.243   0.716
14226TIP3   OH242620   2.420   7.147   2.114
14226TIP3    H142621   2.424   7.122   2.022
14226TIP3    H242622   2.483   7.089   2.158
14227TIP3   OH242623   2.496   3.168   4.236
14227TIP3    H142624   2.412   3.214   4.231
14227TIP3    H242625   2.502   3.119   4.154
14228TIP3   OH242626   6.766   5.746   4.962
14228TIP3    H142627   6.841   5.694   4.992
14228TIP3    H242628   6.691   5.705   5.003
14229TIP3   OH242629   7.413   5.301   1.337
14229TIP3    H142630   7.459   5.341   1.410
14229TIP3    H242631   7.473   5.234   1.304
14230TIP3   OH242632   2.529   1.776   3.226
14230TIP3    H142633   2.526   1.685   3.196
14230TIP3    H242634   2.449   1.816   3.193
14231TIP3   OH242635   6.552   3.478   1.037
14231TIP3    H142636   6.480   3.467   0.975
14231TIP3    H242637   6.628   3.493   0.981
14232TIP3   OH242638   8.149   6.867   4.491
14232TIP3    H142639   8.100   6.810   4.432
14232TIP3    H242640   8.240   6.839   4.482
14233TIP3   OH242641   3.809   6.496   3.550
14233TIP3    H142642   3.851   6.430   3.495
14233TIP3    H242643   3.741   6.448   3.597
14234TIP3   OH242644   8.164   0.702   1.114
14234TIP3    H142645   8.070   0.721   1.117
14234TIP3    H242646   8.205   0.789   1.108
14235TIP3   OH242647   5.312   4.541   6.100
14235TIP3    H142648   5.407   4.530   6.112
14235TIP3    H242649   5.304   4.613   6.038
14236TIP3   OH242650   1.156   2.181   3.065
14236TIP3    H142651   1.251   2.171   3.067
14236TIP3    H242652   1.122   2.094   3.084
14237TIP3   OH242653   0.320   6.945   3.632
14237TIP3    H142654   0.368   6.866   3.609
14237TIP3    H242655   0.349   7.010   3.568
14238TIP3   OH242656   7.221   3.467   1.309
14238TIP3    H142657   7.297   3.409   1.311
14238TIP3    H242658   7.254   3.549   1.271
14239TIP3   OH242659   4.283   7.684   0.196
14239TIP3    H142660   4.365   7.712   0.235
14239TIP3    H242661   4.306   7.606   0.145
14240TIP3   OH242662   5.561   4.314   6.510
14240TIP3    H142663   5.643   4.362   6.501
14240TIP3    H242664   5.586   4.222   6.501
14241TIP3   OH242665   1.362   6.913   6.034
14241TIP3    H142666   1.354   6.854   5.960
14241TIP3    H242667   1.276   6.955   6.040
14242TIP3   OH242668   1.695   7.326   0.039
14242TIP3    H142669   1.749   7.276   0.100
14242TIP3    H242670   1.750   7.336  -0.039
14243TIP3   OH242671   5.979   4.313   3.649
14243TIP3    H142672   5.951   4.353   3.567
14243TIP3    H242673   6.010   4.386   3.702
14244TIP3   OH242674   1.304   4.777   1.541
14244TIP3    H142675   1.396   4.800   1.550
14244TIP3    H242676   1.258   4.860   1.550
14245TIP3   OH242677   5.192   6.466   6.422
14245TIP3    H142678   5.135   6.474   6.499
14245TIP3    H242679   5.178   6.377   6.391
14246TIP3   OH242680   5.725   4.397   1.353
14246TIP3    H142681   5.698   4.381   1.444
14246TIP3    H242682   5.729   4.492   1.346
14247TIP3   OH242683   6.218   2.749   3.592
14247TIP3    H142684   6.252   2.666   3.559
14247TIP3    H242685   6.264   2.763   3.675
14248TIP3   OH242686   6.988   0.968   5.396
14248TIP3    H142687   6.936   0.890   5.414
14248TIP3    H242688   6.931   1.041   5.422
14249TIP3   OH242689   4.759   6.246   2.120
14249TIP3    H142690   4.665   6.265   2.117
14249TIP3    H242691   4.771   6.175   2.056
14250TIP3   OH242692   1.681   0.768   2.234
14250TIP3    H142693   1.639   0.854   2.237
14250TIP3    H242694   1.664   0.730   2.320
14251TIP3   OH242695   0.552   2.045   4.192
14251TIP3    H142696   0.526   2.102   4.264
14251TIP3    H242697   0.485   1.977   4.190
14252TIP3   OH242698   3.197   5.521   3.588
14252TIP3    H142699   3.128   5.549   3.528
14252TIP3    H242700   3.266   5.586   3.578
14253TIP3   OH242701   5.691   0.318   4.696
14253TIP3    H142702   5.599   0.291   4.693
14253TIP3    H242703   5.740   0.237   4.685
14254TIP3   OH242704   4.565   2.716   4.896
14254TIP3    H142705   4.531   2.662   4.825
14254TIP3    H242706   4.648   2.675   4.919
14255TIP3   OH242707   3.580   1.513   3.551
14255TIP3    H142708   3.497   1.552   3.579
14255TIP3    H242709   3.569   1.419   3.568
14256TIP3   OH242710   7.311   2.680   0.568
14256TIP3    H142711   7.273   2.687   0.655
14256TIP3    H242712   7.309   2.586   0.548
14257TIP3   OH242713   2.491   7.035   1.858
14257TIP3    H142714   2.418   7.087   1.826
14257TIP3    H242715   2.481   6.950   1.815
14258TIP3   OH242716   5.991   1.473   3.565
14258TIP3    H142717   6.000   1.413   3.491
14258TIP3    H242718   5.905   1.453   3.602
14259TIP3   OH242719   7.939   4.029   2.395
14259TIP3    H142720   7.847   4.023   2.370
14259TIP3    H242721   7.937   4.060   2.486
14260TIP3   OH242722   0.674   3.428   6.176
14260TIP3    H142723   0.590   3.381   6.171
14260TIP3    H242724   0.661   3.507   6.124
14261TIP3   OH242725   1.481   5.885   2.135
14261TIP3    H142726   1.499   5.812   2.076
14261TIP3    H242727   1.500   5.850   2.223
14262TIP3   OH242728   6.873   1.414   1.569
14262TIP3    H142729   6.858   1.396   1.476
14262TIP3    H242730   6.943   1.353   1.595
14263TIP3   OH242731   1.773   0.830   6.448
14263TIP3    H142732   1.775   0.926   6.444
14263TIP3    H242733   1.817   0.801   6.368
14264TIP3   OH242734   6.640   4.858   2.565
14264TIP3    H142735   6.644   4.891   2.476
14264TIP3    H242736   6.617   4.934   2.618
14265TIP3   OH242737   0.445   6.763   4.174
14265TIP3    H142738   0.414   6.793   4.089
14265TIP3    H242739   0.509   6.830   4.201
14266TIP3   OH242740   8.092   5.529   4.622
14266TIP3    H142741   8.120   5.443   4.592
14266TIP3    H242742   8.128   5.537   4.711
14267TIP3   OH242743   6.297   0.516   0.456
14267TIP3    H142744   6.330   0.603   0.478
14267TIP3    H242745   6.374   0.468   0.425
14268TIP3   OH242746   0.398   4.066   3.058
14268TIP3    H142747   0.445   4.130   3.111
14268TIP3    H242748   0.463   3.998   3.040
14269TIP3   OH242749   3.823   6.557   1.112
14269TIP3    H142750   3.766   6.634   1.111
14269TIP3    H242751   3.839   6.541   1.205
14270TIP3   OH242752   1.005   0.054   6.661
14270TIP3    H142753   0.951  -0.025   6.661
14270TIP3    H242754   1.057   0.046   6.581
14271TIP3   OH242755   1.182   6.488   0.863
14271TIP3    H142756   1.273   6.460   0.854
14271TIP3    H242757   1.181   6.577   0.829
14272TIP3   OH242758   7.987   3.109   2.713
14272TIP3    H142759   7.974   3.179   2.648
14272TIP3    H242760   7.974   3.152   2.797
14273TIP3   OH242761   7.395   3.078   0.536
14273TIP3    H142762   7.430   2.998   0.497
14273TIP3    H242763   7.470   3.138   0.538
14274TIP3   OH242764   6.969   1.721   5.346
14274TIP3    H142765   6.905   1.706   5.416
14274TIP3    H242766   6.934   1.673   5.271
14275TIP3   OH242767   3.303   2.348   0.526
14275TIP3    H142768   3.226   2.303   0.492
14275TIP3    H242769   3.359   2.361   0.449
14276TIP3   OH242770   2.294   6.738   6.057
14276TIP3    H142771   2.265   6.690   5.979
14276TIP3    H242772   2.269   6.828   6.041
14277TIP3   OH242773   2.282   0.288   2.981
14277TIP3    H142774   2.321   0.372   2.956
14277TIP3    H242775   2.201   0.312   3.025
14278TIP3   OH242776   5.440   3.260   3.904
14278TIP3    H142777   5.403   3.330   3.850
14278TIP3    H242778   5.479   3.199   3.841
14279TIP3   OH242779   5.350   3.793   0.188
14279TIP3    H142780   5.368   3.727   0.255
14279TIP3    H242781   5.432   3.802   0.140
14280TIP3   OH242782   6.256   4.766   6.276
14280TIP3    H142783   6.242   4.744   6.184
14280TIP3    H242784   6.348   4.791   6.281
14281TIP3   OH242785   4.066   6.410   2.363
14281TIP3    H142786   4.047   6.490   2.413
14281TIP3    H242787   3.980   6.372   2.344
14282TIP3   OH242788   3.241   1.314   0.971
14282TIP3    H142789   3.244   1.229   0.928
14282TIP3    H242790   3.280   1.299   1.057
14283TIP3   OH242791   6.393   1.200   1.424
14283TIP3    H142792   6.313   1.168   1.383
14283TIP3    H242793   6.385   1.175   1.516
14284TIP3   OH242794   1.868   5.820   1.813
14284TIP3    H142795   1.833   5.864   1.891
14284TIP3    H242796   1.924   5.751   1.848
14285TIP3   OH242797   0.963   6.283   3.252
14285TIP3    H142798   1.039   6.254   3.200
14285TIP3    H242799   0.965   6.378   3.247
14286TIP3   OH242800   1.920   0.245   4.706
14286TIP3    H142801   1.869   0.301   4.646
14286TIP3    H242802   1.967   0.307   4.761
14287TIP3   OH242803   2.722   7.314   0.808
14287TIP3    H142804   2.799   7.366   0.784
14287TIP3    H242805   2.717   7.246   0.740
14288TIP3   OH242806   4.903   3.035   5.737
14288TIP3    H142807   4.821   3.010   5.694
14288TIP3    H242808   4.936   2.954   5.774
14289TIP3   OH242809   0.253   1.601   5.883
14289TIP3    H142810   0.302   1.541   5.939
14289TIP3    H242811   0.228   1.548   5.807
14290TIP3   OH242812   3.178   7.097   4.428
14290TIP3    H142813   3.101   7.040   4.421
14290TIP3    H242814   3.252   7.037   4.425
14291TIP3   OH242815   3.712   0.452   1.586
14291TIP3    H142816   3.688   0.461   1.494
14291TIP3    H242817   3.630   0.429   1.630
14292TIP3   OH242818   7.183   6.181   4.683
14292TIP3    H142819   7.222   6.242   4.746
14292TIP3    H242820   7.089   6.198   4.688
14293TIP3   OH242821   7.280   4.051   5.395
14293TIP3    H142822   7.370   4.072   5.372
14293TIP3    H242823   7.227   4.108   5.339
14294TIP3   OH242824   5.255   3.243   6.024
14294TIP3    H142825   5.204   3.318   6.055
14294TIP3    H242826   5.290   3.204   6.104
14295TIP3   OH242827   2.390   5.319   6.393
14295TIP3    H142828   2.341   5.397   6.418
14295TIP3    H242829   2.440   5.296   6.471
14296TIP3   OH242830   3.468   5.159   1.293
14296TIP3    H142831   3.433   5.246   1.310
14296TIP3    H242832   3.562   5.169   1.308
14297TIP3   OH242833   6.677   4.634   2.081
14297TIP3    H142834   6.685   4.583   2.161
14297TIP3    H242835   6.594   4.681   2.090
14298TIP3   OH242836   1.099   4.049   3.990
14298TIP3    H142837   1.078   4.115   4.056
14298TIP3    H242838   1.074   4.089   3.907
14299TIP3   OH242839   7.299   7.400   4.972
14299TIP3    H142840   7.204   7.411   4.985
14299TIP3    H242841   7.320   7.456   4.898
14300TIP3   OH242842   3.057  -0.024   4.463
14300TIP3    H142843   3.029   0.068   4.459
14300TIP3    H242844   2.975  -0.073   4.456
14301TIP3   OH242845   8.248   1.064   0.205
14301TIP3    H142846   8.318   1.007   0.236
14301TIP3    H242847   8.171   1.007   0.202
14302TIP3   OH242848   5.570   3.374   5.990
14302TIP3    H142849   5.662   3.354   5.973
14302TIP3    H242850   5.561   3.364   6.085
14303TIP3   OH242851   0.293   7.138   1.890
14303TIP3    H142852   0.257   7.069   1.945
14303TIP3    H242853   0.238   7.138   1.811
14304TIP3   OH242854   6.480   0.579   1.748
14304TIP3    H142855   6.488   0.484   1.732
14304TIP3    H242856   6.551   0.617   1.696
14305TIP3   OH242857   7.337   7.785   0.290
14305TIP3    H142858   7.432   7.794   0.299
14305TIP3    H242859   7.305   7.875   0.284
14306TIP3   OH242860   2.295   4.945   3.909
14306TIP3    H142861   2.245   4.893   3.973
14306TIP3    H242862   2.229   4.979   3.849
14307TIP3   OH242863   4.721   6.452   6.466
14307TIP3    H142864   4.671   6.445   6.385
14307TIP3    H242865   4.700   6.371   6.514
14308TIP3   OH242866   1.590   6.150   6.511
14308TIP3    H142867   1.613   6.065   6.475
14308TIP3    H242868   1.528   6.187   6.448
14309TIP3   OH242869   4.504   6.687   0.704
14309TIP3    H142870   4.512   6.743   0.627
14309TIP3    H242871   4.586   6.699   0.752
14310TIP3   OH242872   3.970   6.935   4.283
14310TIP3    H142873   3.995   6.920   4.374
14310TIP3    H242874   4.023   6.872   4.233
14311TIP3   OH242875   7.219   5.881   4.279
14311TIP3    H142876   7.292   5.844   4.230
14311TIP3    H242877   7.260   5.918   4.357
14312TIP3   OH242878   3.693   2.918   1.028
14312TIP3    H142879   3.777   2.877   1.046
14312TIP3    H242880   3.657   2.940   1.114
14313TIP3   OH242881   0.184   0.959   3.687
14313TIP3    H142882   0.191   1.054   3.697
14313TIP3    H242883   0.198   0.924   3.775
14314TIP3   OH242884   3.679   1.092   4.432
14314TIP3    H142885   3.745   1.024   4.419
14314TIP3    H242886   3.729   1.174   4.427
14315TIP3   OH242887   3.379   5.899   4.608
14315TIP3    H142888   3.374   5.804   4.599
14315TIP3    H242889   3.410   5.930   4.523
14316TIP3   OH242890   1.354   5.757   5.877
14316TIP3    H142891   1.397   5.685   5.831
14316TIP3    H242892   1.351   5.828   5.814
14317TIP3   OH242893   0.163   2.477   0.971
14317TIP3    H142894   0.140   2.512   0.885
14317TIP3    H242895   0.198   2.390   0.952
14318TIP3   OH242896   2.452   0.104   3.100
14318TIP3    H142897   2.515   0.065   3.039
14318TIP3    H242898   2.399   0.162   3.045
14319TIP3   OH242899   4.752   5.187   0.082
14319TIP3    H142900   4.719   5.273   0.110
14319TIP3    H242901   4.837   5.205   0.042
14320TIP3   OH242902   5.696   7.423   2.692
14320TIP3    H142903   5.672   7.364   2.763
14320TIP3    H242904   5.780   7.390   2.660
14321TIP3   OH242905   6.528   1.810   2.751
14321TIP3    H142906   6.447   1.850   2.721
14321TIP3    H242907   6.527   1.721   2.714
14322TIP3   OH242908   0.009   1.432   3.155
14322TIP3    H142909   0.072   1.504   3.165
14322TIP3    H242910  -0.074   1.476   3.134
14323TIP3   OH242911   2.261   7.651   6.141
14323TIP3    H142912   2.208   7.628   6.065
14323TIP3    H242913   2.240   7.585   6.206
14324TIP3   OH242914   8.124   1.142   1.717
14324TIP3    H142915   8.144   1.060   1.672
14324TIP3    H242916   8.042   1.172   1.676
14325TIP3   OH242917   8.236   3.504   4.020
14325TIP3    H142918   8.298   3.514   4.093
14325TIP3    H242919   8.247   3.584   3.969
14326TIP3   OH242920   7.191   5.686   5.464
14326TIP3    H142921   7.208   5.690   5.558
14326TIP3    H242922   7.224   5.769   5.430
14327TIP3   OH242923   0.260   2.046   6.041
14327TIP3    H142924   0.192   1.979   6.032
14327TIP3    H242925   0.220   2.126   6.008
14328TIP3   OH242926   5.437   7.484   6.515
14328TIP3    H142927   5.368   7.420   6.530
14328TIP3    H242928   5.518   7.433   6.518
14329TIP3   OH242929   0.894   6.503   2.440
14329TIP3    H142930   0.809   6.496   2.396
14329TIP3    H242931   0.875   6.494   2.533
14330TIP3   OH242932   0.784   2.343   6.773
14330TIP3    H142933   0.854   2.281   6.792
14330TIP3    H242934   0.830   2.422   6.742
14331TIP3   OH242935   2.146   0.458   2.513
14331TIP3    H142936   2.146   0.394   2.441
14331TIP3    H242937   2.106   0.411   2.586
14332TIP3   OH242938   3.518   5.671   5.859
14332TIP3    H142939   3.586   5.671   5.926
14332TIP3    H242940   3.532   5.752   5.810
14333TIP3   OH242941   5.990   2.412   2.471
14333TIP3    H142942   5.914   2.464   2.447
14333TIP3    H242943   6.034   2.463   2.538
14334TIP3   OH242944   7.730   1.167   1.389
14334TIP3    H142945   7.683   1.223   1.451
14334TIP3    H242946   7.684   1.178   1.306
14335TIP3   OH242947   7.135   6.220   3.457
14335TIP3    H142948   7.077   6.146   3.438
14335TIP3    H242949   7.131   6.275   3.379
14336TIP3   OH242950   1.900   1.610   2.528
14336TIP3    H142951   1.890   1.518   2.552
14336TIP3    H242952   1.958   1.646   2.596
14337TIP3   OH242953   5.920   7.474   4.426
14337TIP3    H142954   5.859   7.505   4.494
14337TIP3    H242955   5.969   7.403   4.469
14338TIP3   OH242956   4.876   2.888   5.318
14338TIP3    H142957   4.846   2.810   5.365
14338TIP3    H242958   4.803   2.949   5.322
14339TIP3   OH242959   0.039   7.243   3.276
14339TIP3    H142960  -0.045   7.234   3.231
14339TIP3    H242961   0.057   7.154   3.308
14340TIP3   OH242962   7.859   0.470   5.973
14340TIP3    H142963   7.917   0.545   5.985
14340TIP3    H242964   7.848   0.433   6.060
14341TIP3   OH242965   3.343   5.026   1.507
14341TIP3    H142966   3.341   5.082   1.429
14341TIP3    H242967   3.410   4.960   1.487
14342TIP3   OH242968   7.504   0.624   6.406
14342TIP3    H142969   7.593   0.655   6.386
14342TIP3    H242970   7.510   0.593   6.497
14343TIP3   OH242971   0.868   1.220   0.633
14343TIP3    H142972   0.950   1.220   0.584
14343TIP3    H242973   0.827   1.136   0.612
14344TIP3   OH242974   1.068   0.619   6.072
14344TIP3    H142975   1.019   0.698   6.047
14344TIP3    H242976   1.154   0.651   6.097
14345TIP3   OH242977   4.618   7.116   4.881
14345TIP3    H142978   4.681   7.044   4.890
14345TIP3    H242979   4.662   7.191   4.922
14346TIP3   OH242980   6.838   5.793   3.202
14346TIP3    H142981   6.871   5.819   3.116
14346TIP3    H242982   6.753   5.753   3.185
14347TIP3   OH242983   6.618   6.126   4.066
14347TIP3    H142984   6.587   6.097   4.152
14347TIP3    H242985   6.633   6.220   4.077
14348TIP3   OH242986   2.825   0.693   1.777
14348TIP3    H142987   2.768   0.769   1.789
14348TIP3    H242988   2.845   0.693   1.684
14349TIP3   OH242989   7.143   0.660   0.109
14349TIP3    H142990   7.138   0.627   0.019
14349TIP3    H242991   7.225   0.624   0.143
14350TIP3   OH242992   4.561   2.221   2.225
14350TIP3    H142993   4.558   2.316   2.210
14350TIP3    H242994   4.543   2.210   2.318
14351TIP3   OH242995   5.941   1.753   5.693
14351TIP3    H142996   5.986   1.769   5.777
14351TIP3    H242997   5.931   1.839   5.654
14352TIP3   OH242998   3.807   2.797   5.568
14352TIP3    H142999   3.809   2.741   5.645
14352TIP3    H243000   3.722   2.840   5.571
14353TIP3   OH243001   3.730   1.542   3.311
14353TIP3    H143002   3.775   1.626   3.325
14353TIP3    H243003   3.679   1.529   3.391
14354TIP3   OH243004   3.885   3.989   4.476
14354TIP3    H143005   3.962   3.961   4.427
14354TIP3    H243006   3.920   4.018   4.561
14355TIP3   OH243007   3.877   4.317   2.254
14355TIP3    H143008   3.837   4.289   2.337
14355TIP3    H243009   3.868   4.413   2.255
14356TIP3   OH243010   6.762   7.668   2.721
14356TIP3    H143011   6.701   7.715   2.777
14356TIP3    H243012   6.834   7.643   2.779
14357TIP3   OH243013   0.493   0.231   1.086
14357TIP3    H143014   0.413   0.275   1.114
14357TIP3    H243015   0.556   0.302   1.071
14358TIP3   OH243016  -0.041   0.247   1.276
14358TIP3    H143017   0.049   0.216   1.269
14358TIP3    H243018  -0.047   0.284   1.365
14359TIP3   OH243019   2.695   2.038   5.380
14359TIP3    H143020   2.755   2.082   5.319
14359TIP3    H243021   2.609   2.053   5.342
14360TIP3   OH243022   5.060   2.583   5.238
14360TIP3    H143023   5.120   2.511   5.258
14360TIP3    H243024   5.116   2.660   5.230
14361TIP3   OH243025   0.657   7.488   2.017
14361TIP3    H143026   0.641   7.402   2.055
14361TIP3    H243027   0.576   7.510   1.971
14362TIP3   OH243028   7.973   2.407   3.008
14362TIP3    H143029   8.005   2.455   3.085
14362TIP3    H243030   7.907   2.347   3.043
14363TIP3   OH243031   0.185   5.838   4.133
14363TIP3    H143032   0.112   5.843   4.196
14363TIP3    H243033   0.240   5.913   4.154
14364TIP3   OH243034   7.146   6.781   5.511
14364TIP3    H143035   7.166   6.717   5.442
14364TIP3    H243036   7.203   6.757   5.584
14365TIP3   OH243037   0.530   3.539   2.861
14365TIP3    H143038   0.507   3.574   2.775
14365TIP3    H243039   0.473   3.586   2.922
14366TIP3   OH243040   1.618   3.096   2.732
14366TIP3    H143041   1.700   3.103   2.780
14366TIP3    H243042   1.552   3.079   2.799
14367TIP3   OH243043   0.434   6.624   5.458
14367TIP3    H143044   0.435   6.701   5.401
14367TIP3    H243045   0.443   6.658   5.546
14368TIP3   OH243046   4.698   5.156   3.510
14368TIP3    H143047   4.656   5.070   3.509
14368TIP3    H243048   4.697   5.182   3.602
14369TIP3   OH243049   2.278   5.470   5.388
14369TIP3    H143050   2.349   5.499   5.331
14369TIP3    H243051   2.318   5.460   5.474
14370TIP3   OH243052   2.240   7.695   2.715
14370TIP3    H143053   2.302   7.624   2.701
14370TIP3    H243054   2.285   7.755   2.775
14371TIP3   OH243055   5.772   2.539   4.042
14371TIP3    H143056   5.701   2.520   3.981
14371TIP3    H243057   5.748   2.492   4.122
14372TIP3   OH243058   8.140   0.537   4.521
14372TIP3    H143059   8.063   0.501   4.564
14372TIP3    H243060   8.150   0.625   4.558
14373TIP3   OH243061   4.092   3.712   4.075
14373TIP3    H143062   4.141   3.647   4.125
14373TIP3    H243063   4.009   3.668   4.053
14374TIP3   OH243064   0.710   1.017   4.346
14374TIP3    H143065   0.794   1.030   4.391
14374TIP3    H243066   0.704   0.922   4.334
14375TIP3   OH243067   7.091   3.275   1.524
14375TIP3    H143068   7.098   3.296   1.431
14375TIP3    H243069   7.170   3.224   1.543
14376TIP3   OH243070   5.390   0.796   1.001
14376TIP3    H143071   5.440   0.832   0.928
14376TIP3    H243072   5.335   0.728   0.961
14377TIP3   OH243073   5.406   7.145   3.698
14377TIP3    H143074   5.379   7.204   3.769
14377TIP3    H243075   5.488   7.107   3.730
14378TIP3   OH243076   6.621   5.334   0.848
14378TIP3    H143077   6.546   5.393   0.860
14378TIP3    H243078   6.692   5.376   0.896
14379TIP3   OH243079   5.753   5.369   0.835
14379TIP3    H143080   5.693   5.440   0.810
14379TIP3    H243081   5.763   5.318   0.754
14380TIP3   OH243082   5.843   7.146   2.346
14380TIP3    H143083   5.756   7.161   2.310
14380TIP3    H243084   5.852   7.050   2.347
14381TIP3   OH243085   2.479   3.169   1.822
14381TIP3    H143086   2.490   3.220   1.902
14381TIP3    H243087   2.415   3.218   1.770
14382TIP3   OH243088   4.419   3.890   5.960
14382TIP3    H143089   4.471   3.963   5.928
14382TIP3    H243090   4.329   3.914   5.939
14383TIP3   OH243091   4.257   0.671   5.853
14383TIP3    H143092   4.240   0.747   5.797
14383TIP3    H243093   4.267   0.598   5.793
14384TIP3   OH243094   3.985   7.744   1.686
14384TIP3    H143095   3.948   7.757   1.599
14384TIP3    H243096   4.040   7.666   1.678
14385TIP3   OH243097   6.857   2.518   5.363
14385TIP3    H143098   6.869   2.613   5.370
14385TIP3    H243099   6.830   2.490   5.450
14386TIP3   OH243100   6.513   0.370   0.390
14386TIP3    H143101   6.495   0.292   0.338
14386TIP3    H243102   6.583   0.415   0.342
14387TIP3   OH243103   5.331   1.110   4.302
14387TIP3    H143104   5.250   1.151   4.331
14387TIP3    H243105   5.348   1.150   4.216
14388TIP3   OH243106   6.268   2.057   0.481
14388TIP3    H143107   6.338   2.117   0.507
14388TIP3    H243108   6.309   1.971   0.481
14389TIP3   OH243109   0.652   6.201   4.855
14389TIP3    H143110   0.653   6.154   4.938
14389TIP3    H243111   0.650   6.132   4.789
14390TIP3   OH243112   7.862   0.785   5.016
14390TIP3    H143113   7.773   0.803   5.043
14390TIP3    H243114   7.868   0.823   4.928
14391TIP3   OH243115   3.574   5.499   5.642
14391TIP3    H143116   3.644   5.555   5.610
14391TIP3    H243117   3.552   5.535   5.728
14392TIP3   OH243118   1.387   3.943   5.979
14392TIP3    H143119   1.401   4.035   5.959
14392TIP3    H243120   1.355   3.905   5.898
14393TIP3   OH243121   6.304   4.789   3.954
14393TIP3    H143122   6.262   4.798   4.039
14393TIP3    H243123   6.268   4.707   3.918
14394TIP3   OH243124   4.653   4.876   1.702
14394TIP3    H143125   4.709   4.846   1.631
14394TIP3    H243126   4.565   4.878   1.665
14395TIP3   OH243127   0.966   0.638   0.089
14395TIP3    H143128   0.996   0.706   0.029
14395TIP3    H243129   1.047   0.604   0.129
14396TIP3   OH243130   1.020   4.278   1.298
14396TIP3    H143131   0.948   4.241   1.349
14396TIP3    H243132   1.080   4.205   1.284
14397TIP3   OH243133   5.359   6.998   2.069
14397TIP3    H143134   5.270   6.983   2.039
14397TIP3    H243135   5.401   6.912   2.064
14398TIP3   OH243136   7.962   6.303   0.073
14398TIP3    H143137   8.029   6.346   0.126
14398TIP3    H243138   7.894   6.370   0.062
14399TIP3   OH243139   8.184   5.854   0.848
14399TIP3    H143140   8.203   5.795   0.775
14399TIP3    H243141   8.194   5.942   0.810
14400TIP3   OH243142   7.008   4.559   2.237
14400TIP3    H143143   6.978   4.619   2.304
14400TIP3    H243144   7.028   4.478   2.284
14401TIP3   OH243145   3.349   1.804   0.556
14401TIP3    H143146   3.316   1.721   0.523
14401TIP3    H243147   3.444   1.799   0.542
14402TIP3   OH243148   7.910   3.742   0.483
14402TIP3    H143149   7.945   3.728   0.396
14402TIP3    H243150   7.940   3.830   0.508
14403TIP3   OH243151   8.209   4.302   5.404
14403TIP3    H143152   8.295   4.331   5.432
14403TIP3    H243153   8.226   4.236   5.337
14404TIP3   OH243154   1.213   7.381   0.186
14404TIP3    H143155   1.219   7.303   0.241
14404TIP3    H243156   1.235   7.453   0.245
14405TIP3   OH243157   5.796   2.225   3.712
14405TIP3    H143158   5.778   2.302   3.658
14405TIP3    H243159   5.710   2.191   3.736
14406TIP3   OH243160   1.189   0.640   5.360
14406TIP3    H143161   1.245   0.568   5.389
14406TIP3    H243162   1.225   0.664   5.275
14407TIP3   OH243163   1.778   4.182   5.735
14407TIP3    H143164   1.828   4.253   5.693
14407TIP3    H243165   1.794   4.195   5.829
14408TIP3   OH243166   4.527   6.172   1.888
14408TIP3    H143167   4.581   6.095   1.870
14408TIP3    H243168   4.489   6.195   1.802
14409TIP3   OH243169   5.312   6.858   1.299
14409TIP3    H143170   5.290   6.836   1.208
14409TIP3    H243171   5.407   6.853   1.303
14410TIP3   OH243172   3.442   4.404   0.213
14410TIP3    H143173   3.394   4.388   0.295
14410TIP3    H243174   3.529   4.431   0.241
14411TIP3   OH243175   8.235   1.816   5.072
14411TIP3    H143176   8.310   1.856   5.029
14411TIP3    H243177   8.170   1.805   5.003
14412TIP3   OH243178   7.806   6.242   4.992
14412TIP3    H143179   7.848   6.318   5.032
14412TIP3    H243180   7.875   6.201   4.941
14413TIP3   OH243181   3.438   6.779   0.688
14413TIP3    H143182   3.451   6.684   0.690
14413TIP3    H243183   3.520   6.814   0.654
14414TIP3   OH243184   6.518   2.868   0.783
14414TIP3    H143185   6.450   2.934   0.765
14414TIP3    H243186   6.489   2.826   0.864
14415TIP3   OH243187   0.919   5.010   5.571
14415TIP3    H143188   0.842   4.975   5.615
14415TIP3    H243189   0.980   5.031   5.642
14416TIP3   OH243190   6.931   5.353   2.905
14416TIP3    H143191   7.012   5.302   2.903
14416TIP3    H243192   6.918   5.373   2.998
14417TIP3   OH243193   1.709   5.673   5.482
14417TIP3    H143194   1.707   5.761   5.521
14417TIP3    H243195   1.622   5.661   5.444
14418TIP3   OH243196   5.079   2.116   5.351
14418TIP3    H143197   5.121   2.073   5.276
14418TIP3    H243198   5.067   2.046   5.415
14419TIP3   OH243199   3.906   1.900   3.620
14419TIP3    H143200   3.986   1.852   3.601
14419TIP3    H243201   3.837   1.848   3.579
14420TIP3   OH243202   1.765   3.539   3.691
14420TIP3    H143203   1.808   3.623   3.708
14420TIP3    H243204   1.677   3.550   3.726
14421TIP3   OH243205   0.260   1.489   6.817
14421TIP3    H143206   0.268   1.424   6.886
14421TIP3    H243207   0.345   1.533   6.815
14422TIP3   OH243208   0.143   0.631   2.838
14422TIP3    H143209   0.054   0.626   2.804
14422TIP3    H243210   0.133   0.633   2.933
14423TIP3   OH243211   7.726   7.186   2.106
14423TIP3    H143212   7.647   7.186   2.052
14423TIP3    H243213   7.758   7.096   2.102
14424TIP3   OH243214   6.695   5.440   2.480
14424TIP3    H143215   6.766   5.378   2.464
14424TIP3    H243216   6.740   5.522   2.500
14425TIP3   OH243217   6.447   6.540   3.102
14425TIP3    H143218   6.356   6.535   3.071
14425TIP3    H243219   6.500   6.541   3.022
14426TIP3   OH243220   7.559   3.873   5.815
14426TIP3    H143221   7.474   3.839   5.844
14426TIP3    H243222   7.580   3.941   5.878
14427TIP3   OH243223   1.519   5.263   5.743
14427TIP3    H143224   1.529   5.320   5.819
14427TIP3    H243225   1.467   5.189   5.776
14428TIP3   OH243226   4.460   0.304   4.970
14428TIP3    H143227   4.488   0.247   4.899
14428TIP3    H243228   4.372   0.274   4.993
14429TIP3   OH243229   5.442   6.558   6.566
14429TIP3    H143230   5.385   6.517   6.501
14429TIP3    H243231   5.399   6.642   6.586
14430TIP3   OH243232   8.198   6.057   4.504
14430TIP3    H143233   8.104   6.076   4.502
14430TIP3    H243234   8.240   6.143   4.508
14431TIP3   OH243235   7.720   0.246   4.761
14431TIP3    H143236   7.633   0.272   4.793
14431TIP3    H243237   7.701   0.190   4.685
14432TIP3   OH243238   1.550   1.525   2.855
14432TIP3    H143239   1.601   1.445   2.869
14432TIP3    H243240   1.573   1.553   2.767
14433TIP3   OH243241   6.648   2.414   0.011
14433TIP3    H143242   6.642   2.509   0.015
14433TIP3    H243243   6.607   2.384   0.093
14434TIP3   OH243244   1.551   2.543   1.961
14434TIP3    H143245   1.527   2.618   2.016
14434TIP3    H243246   1.646   2.536   1.971
14435TIP3   OH243247   6.651   1.031   0.930
14435TIP3    H143248   6.665   0.937   0.940
14435TIP3    H243249   6.560   1.039   0.902
14436TIP3   OH243250   0.244   4.564   4.185
14436TIP3    H143251   0.255   4.657   4.205
14436TIP3    H243252   0.191   4.530   4.257
14437TIP3   OH243253   4.023   0.096   2.803
14437TIP3    H143254   4.105   0.056   2.773
14437TIP3    H243255   4.023   0.083   2.898
14438TIP3   OH243256   6.048   1.412   4.288
14438TIP3    H143257   6.099   1.414   4.207
14438TIP3    H243258   6.114   1.407   4.357
14439TIP3   OH243259   3.922   0.793   6.203
14439TIP3    H143260   3.922   0.799   6.107
14439TIP3    H243261   4.008   0.755   6.224
14440TIP3   OH243262   6.596   4.137   0.083
14440TIP3    H143263   6.655   4.070   0.047
14440TIP3    H243264   6.538   4.158   0.010
14441TIP3   OH243265   3.956   4.768   5.805
14441TIP3    H143266   3.884   4.714   5.772
14441TIP3    H243267   4.035   4.729   5.768
14442TIP3   OH243268   1.784   6.077   0.902
14442TIP3    H143269   1.818   6.004   0.850
14442TIP3    H243270   1.854   6.096   0.964
14443TIP3   OH243271   4.099   4.141   6.157
14443TIP3    H143272   4.128   4.228   6.183
14443TIP3    H243273   4.064   4.153   6.069
14444TIP3   OH243274   3.993   1.235   0.295
14444TIP3    H143275   4.051   1.292   0.346
14444TIP3    H243276   3.906   1.271   0.308
14445TIP3   OH243277   8.312   6.616   1.907
14445TIP3    H143278   8.340   6.531   1.873
14445TIP3    H243279   8.358   6.625   1.991
14446TIP3   OH243280   1.704   4.238   4.806
14446TIP3    H143281   1.694   4.243   4.711
14446TIP3    H243282   1.622   4.276   4.840
14447TIP3   OH243283   5.969   1.257   4.532
14447TIP3    H143284   5.935   1.171   4.557
14447TIP3    H243285   5.957   1.260   4.437
14448TIP3   OH243286   5.120   1.838   4.239
14448TIP3    H143287   5.209   1.823   4.271
14448TIP3    H243288   5.131   1.901   4.167
14449TIP3   OH243289   8.184   2.178   1.933
14449TIP3    H143290   8.197   2.236   2.008
14449TIP3    H243291   8.118   2.222   1.880
14450TIP3   OH243292   0.551   5.290   1.539
14450TIP3    H143293   0.478   5.233   1.563
14450TIP3    H243294   0.629   5.236   1.550
14451TIP3   OH243295   1.016   4.335   2.954
14451TIP3    H143296   1.078   4.295   2.893
14451TIP3    H243297   0.977   4.407   2.905
14452TIP3   OH243298   4.325   2.074   4.535
14452TIP3    H143299   4.361   2.151   4.579
14452TIP3    H243300   4.345   2.087   4.442
14453TIP3   OH243301   0.500   1.753   0.847
14453TIP3    H143302   0.458   1.696   0.782
14453TIP3    H243303   0.490   1.706   0.930
14454TIP3   OH243304   3.532   3.324   3.323
14454TIP3    H143305   3.539   3.290   3.233
14454TIP3    H243306   3.622   3.328   3.354
14455TIP3   OH243307   0.250   5.242   6.250
14455TIP3    H143308   0.279   5.232   6.341
14455TIP3    H243309   0.263   5.335   6.232
14456TIP3   OH243310   0.091   2.119   2.375
14456TIP3    H143311   0.180   2.150   2.359
14456TIP3    H243312   0.037   2.168   2.313
14457TIP3   OH243313   5.612   3.611   5.860
14457TIP3    H143314   5.628   3.541   5.924
14457TIP3    H243315   5.579   3.684   5.912
14458TIP3   OH243316   1.325   3.667   1.107
14458TIP3    H143317   1.282   3.703   1.030
14458TIP3    H243318   1.377   3.594   1.073
14459TIP3   OH243319   4.029   0.402   2.851
14459TIP3    H143320   3.992   0.314   2.848
14459TIP3    H243321   3.958   0.459   2.824
14460TIP3   OH243322   3.410   5.437   6.536
14460TIP3    H143323   3.505   5.427   6.535
14460TIP3    H243324   3.391   5.493   6.461
14461TIP3   OH243325   4.325   0.211   1.337
14461TIP3    H143326   4.389   0.219   1.407
14461TIP3    H243327   4.267   0.140   1.364
14462TIP3   OH243328   0.187   5.426   1.833
14462TIP3    H143329   0.193   5.507   1.781
14462TIP3    H243330   0.275   5.415   1.869
14463TIP3   OH243331   6.566   1.649   5.578
14463TIP3    H143332   6.614   1.636   5.660
14463TIP3    H243333   6.479   1.614   5.596
14464TIP3   OH243334   3.826   6.123   2.228
14464TIP3    H143335   3.827   6.183   2.303
14464TIP3    H243336   3.865   6.042   2.262
14465TIP3   OH243337   6.404   4.729   2.624
14465TIP3    H143338   6.485   4.758   2.583
14465TIP3    H243339   6.363   4.674   2.557
14466TIP3   OH243340   4.855   7.609   3.525
14466TIP3    H143341   4.912   7.666   3.576
14466TIP3    H243342   4.769   7.650   3.529
14467TIP3   OH243343   2.411   4.707   6.296
14467TIP3    H143344   2.404   4.731   6.203
14467TIP3    H243345   2.499   4.735   6.321
14468TIP3   OH243346   1.327   4.071   4.896
14468TIP3    H143347   1.331   4.131   4.970
14468TIP3    H243348   1.400   4.010   4.910
14469TIP3   OH243349   4.678   6.220   0.341
14469TIP3    H143350   4.738   6.211   0.415
14469TIP3    H243351   4.599   6.259   0.379
14470TIP3   OH243352   4.175   6.273   2.060
14470TIP3    H143353   4.205   6.362   2.041
14470TIP3    H243354   4.179   6.227   1.976
14471TIP3   OH243355   5.381   2.206   4.297
14471TIP3    H143356   5.387   2.166   4.384
14471TIP3    H243357   5.471   2.222   4.271
14472TIP3   OH243358   6.712   0.294   3.711
14472TIP3    H143359   6.774   0.334   3.649
14472TIP3    H243360   6.758   0.298   3.795
14473TIP3   OH243361   1.142   1.760   1.762
14473TIP3    H143362   1.189   1.765   1.845
14473TIP3    H243363   1.134   1.851   1.732
14474TIP3   OH243364   3.380   6.111   5.151
14474TIP3    H143365   3.384   6.112   5.055
14474TIP3    H243366   3.321   6.183   5.172
14475TIP3   OH243367   4.396   5.315   3.985
14475TIP3    H143368   4.420   5.319   3.892
14475TIP3    H243369   4.464   5.261   4.026
14476TIP3   OH243370   5.140   7.328   1.794
14476TIP3    H143371   5.110   7.253   1.742
14476TIP3    H243372   5.181   7.288   1.871
14477TIP3   OH243373   6.561   4.714   4.971
14477TIP3    H143374   6.484   4.674   4.929
14477TIP3    H243375   6.586   4.785   4.912
14478TIP3   OH243376   3.376   7.596   5.841
14478TIP3    H143377   3.462   7.638   5.833
14478TIP3    H243378   3.313   7.665   5.821
14479TIP3   OH243379   1.555   0.067   3.785
14479TIP3    H143380   1.590   0.031   3.866
14479TIP3    H243381   1.502   0.142   3.813
14480TIP3   OH243382   8.199   5.973   1.645
14480TIP3    H143383   8.212   6.028   1.722
14480TIP3    H243384   8.181   6.035   1.574
14481TIP3   OH243385   3.322   6.666   5.869
14481TIP3    H143386   3.415   6.648   5.881
14481TIP3    H243387   3.319   6.747   5.817
14482TIP3   OH243388   5.787   4.803   5.389
14482TIP3    H143389   5.731   4.785   5.314
14482TIP3    H243390   5.874   4.817   5.352
14483TIP3   OH243391   0.979   1.895   1.585
14483TIP3    H143392   0.947   1.967   1.531
14483TIP3    H243393   0.911   1.884   1.652
14484TIP3   OH243394   4.557   0.372   2.397
14484TIP3    H143395   4.484   0.356   2.456
14484TIP3    H243396   4.554   0.301   2.333
14485TIP3   OH243397   0.198   4.359   6.225
14485TIP3    H143398   0.136   4.431   6.227
14485TIP3    H243399   0.145   4.282   6.203
14486TIP3   OH243400   4.990   4.661   4.547
14486TIP3    H143401   5.085   4.669   4.543
14486TIP3    H243402   4.962   4.736   4.600
14487TIP3   OH243403   8.026   1.873   1.725
14487TIP3    H143404   7.967   1.851   1.653
14487TIP3    H243405   7.969   1.913   1.791
14488TIP3   OH243406   6.918   2.304   0.765
14488TIP3    H143407   6.974   2.305   0.842
14488TIP3    H243408   6.936   2.387   0.721
14489TIP3   OH243409   5.698   5.857   6.462
14489TIP3    H143410   5.752   5.878   6.386
14489TIP3    H243411   5.652   5.777   6.438
14490TIP3   OH243412   8.259   6.827   2.554
14490TIP3    H143413   8.229   6.738   2.535
14490TIP3    H243414   8.179   6.875   2.577
14491TIP3   OH243415   4.316   0.179   3.964
14491TIP3    H143416   4.253   0.123   4.008
14491TIP3    H243417   4.398   0.129   3.962
14492TIP3   OH243418   3.950   0.155   4.245
14492TIP3    H143419   4.013   0.102   4.294
14492TIP3    H243420   3.994   0.240   4.235
14493TIP3   OH243421   6.740   1.743   2.254
14493TIP3    H143422   6.706   1.663   2.296
14493TIP3    H243423   6.661   1.791   2.228
14494TIP3   OH243424   5.217   3.817   5.004
14494TIP3    H143425   5.193   3.909   5.000
14494TIP3    H243426   5.204   3.785   4.915
14495TIP3   OH243427   0.135   0.528   2.285
14495TIP3    H143428   0.086   0.446   2.276
14495TIP3    H243429   0.164   0.530   2.376
14496TIP3   OH243430   4.373   3.114   5.357
14496TIP3    H143431   4.348   3.144   5.270
14496TIP3    H243432   4.334   3.179   5.417
14497TIP3   OH243433   7.757   5.640   3.536
14497TIP3    H143434   7.833   5.584   3.525
14497TIP3    H243435   7.688   5.598   3.484
14498TIP3   OH243436   4.153   7.545   6.023
14498TIP3    H143437   4.112   7.461   6.046
14498TIP3    H243438   4.242   7.539   6.058
14499TIP3   OH243439   0.689   2.038   3.278
14499TIP3    H143440   0.664   2.051   3.187
14499TIP3    H243441   0.676   1.945   3.293
14500TIP3   OH243442   6.308   2.430   6.055
14500TIP3    H143443   6.396   2.397   6.036
14500TIP3    H243444   6.322   2.521   6.083
14501TIP3   OH243445   3.701   3.040   4.240
14501TIP3    H143446   3.636   3.110   4.252
14501TIP3    H243447   3.727   3.047   4.148
14502TIP3   OH243448   2.174   5.994   5.544
14502TIP3    H143449   2.169   5.904   5.509
14502TIP3    H243450   2.102   6.040   5.502
14503TIP3   OH243451   7.199   0.868   1.346
14503TIP3    H143452   7.249   0.818   1.411
14503TIP3    H243453   7.250   0.948   1.332
14504TIP3   OH243454   7.786   2.847   0.990
14504TIP3    H143455   7.784   2.932   0.946
14504TIP3    H243456   7.757   2.865   1.079
14505TIP3   OH243457   4.510   1.868   5.781
14505TIP3    H143458   4.538   1.840   5.868
14505TIP3    H243459   4.419   1.894   5.791
14506TIP3   OH243460   4.229   5.105   4.387
14506TIP3    H143461   4.142   5.102   4.428
14506TIP3    H243462   4.273   5.027   4.419
14507TIP3   OH243463   8.052   5.905   2.227
14507TIP3    H143464   8.129   5.940   2.272
14507TIP3    H243465   8.084   5.881   2.140
14508TIP3   OH243466   6.238   2.663   3.187
14508TIP3    H143467   6.290   2.721   3.243
14508TIP3    H243468   6.303   2.606   3.146
14509TIP3   OH243469   6.871   4.967   3.275
14509TIP3    H143470   6.792   5.015   3.249
14509TIP3    H243471   6.912   4.942   3.192
14510TIP3   OH243472   0.106   3.587   2.421
14510TIP3    H143473   0.045   3.567   2.350
14510TIP3    H243474   0.166   3.652   2.384
14511TIP3   OH243475   6.895   1.073   4.774
14511TIP3    H143476   6.839   1.058   4.698
14511TIP3    H243477   6.833   1.091   4.845
14512TIP3   OH243478   1.184   6.077   4.805
14512TIP3    H143479   1.199   6.009   4.740
14512TIP3    H243480   1.224   6.043   4.885
14513TIP3   OH243481   1.067   6.253   2.861
14513TIP3    H143482   1.131   6.300   2.807
14513TIP3    H243483   1.052   6.172   2.813
14514TIP3   OH243484   1.574   1.460   2.345
14514TIP3    H143485   1.572   1.369   2.317
14514TIP3    H243486   1.546   1.509   2.267
14515TIP3   OH243487   2.023   4.549   5.208
14515TIP3    H143488   2.060   4.548   5.120
14515TIP3    H243489   1.995   4.639   5.221
14516TIP3   OH243490   1.263   5.221   4.476
14516TIP3    H143491   1.306   5.143   4.512
14516TIP3    H243492   1.262   5.206   4.381
14517TIP3   OH243493   2.334   3.939   1.136
14517TIP3    H143494   2.326   3.953   1.230
14517TIP3    H243495   2.265   3.875   1.115
14518TIP3   OH243496   0.275   6.831   1.856
14518TIP3    H143497   0.284   6.744   1.894
14518TIP3    H243498   0.357   6.845   1.809
14519TIP3   OH243499   7.116   6.467   2.511
14519TIP3    H143500   7.189   6.423   2.554
14519TIP3    H243501   7.111   6.427   2.424
14520TIP3   OH243502   6.363   3.333   3.122
14520TIP3    H143503   6.292   3.296   3.174
14520TIP3    H243504   6.326   3.343   3.035
14521TIP3   OH243505   5.930   1.415   4.837
14521TIP3    H143506   6.002   1.442   4.780
14521TIP3    H243507   5.857   1.400   4.778
14522TIP3   OH243508   8.307   2.629   0.063
14522TIP3    H143509   8.272   2.557   0.115
14522TIP3    H243510   8.335   2.589  -0.019
14523TIP3   OH243511   0.007   3.719   1.765
14523TIP3    H143512   0.020   3.796   1.820
14523TIP3    H243513   0.054   3.740   1.684
14524TIP3   OH243514   7.199   2.574   1.485
14524TIP3    H143515   7.186   2.668   1.498
14524TIP3    H243516   7.122   2.533   1.526
14525TIP3   OH243517   4.538   4.219   0.527
14525TIP3    H143518   4.524   4.304   0.485
14525TIP3    H243519   4.495   4.227   0.612
14526TIP3   OH243520   1.911   7.279   3.075
14526TIP3    H143521   1.973   7.324   3.132
14526TIP3    H243522   1.907   7.334   2.996
14527TIP3   OH243523   6.790   7.602   2.276
14527TIP3    H143524   6.771   7.673   2.338
14527TIP3    H243525   6.740   7.626   2.197
14528TIP3   OH243526   1.669   4.783   4.097
14528TIP3    H143527   1.576   4.789   4.117
14528TIP3    H243528   1.711   4.769   4.181
14529TIP3   OH243529   5.285   0.873   6.138
14529TIP3    H143530   5.371   0.907   6.162
14529TIP3    H243531   5.303   0.789   6.096
14530TIP3   OH243532   0.907   1.838   3.007
14530TIP3    H143533   0.855   1.918   3.012
14530TIP3    H243534   0.852   1.777   2.959
14531TIP3   OH243535   6.445   6.459   0.247
14531TIP3    H143536   6.409   6.544   0.220
14531TIP3    H243537   6.368   6.403   0.258
14532TIP3   OH243538   3.631   6.157   3.730
14532TIP3    H143539   3.617   6.248   3.704
14532TIP3    H243540   3.624   6.158   3.826
14533TIP3   OH243541   6.341   3.588   4.444
14533TIP3    H143542   6.373   3.665   4.398
14533TIP3    H243543   6.419   3.549   4.483
14534TIP3   OH243544   6.570   7.071   4.519
14534TIP3    H143545   6.569   7.010   4.592
14534TIP3    H243546   6.496   7.129   4.534
14535TIP3   OH243547   0.230   7.145   5.698
14535TIP3    H143548   0.325   7.141   5.711
14535TIP3    H243549   0.214   7.090   5.621
14536TIP3   OH243550   2.555   7.370   4.504
14536TIP3    H143551   2.592   7.433   4.442
14536TIP3    H243552   2.630   7.320   4.535
14537TIP3   OH243553   5.857   4.990   1.703
14537TIP3    H143554   5.810   5.061   1.746
14537TIP3    H243555   5.938   5.031   1.670
14538TIP3   OH243556   1.133   7.013   5.808
14538TIP3    H143557   1.060   7.020   5.746
14538TIP3    H243558   1.211   7.036   5.757
14539TIP3   OH243559   2.657   5.269   3.985
14539TIP3    H143560   2.580   5.221   4.015
14539TIP3    H243561   2.674   5.236   3.897
14540TIP3   OH243562   6.525   6.635   5.896
14540TIP3    H143563   6.599   6.578   5.873
14540TIP3    H243564   6.512   6.690   5.819
14541TIP3   OH243565   1.422   1.093   3.832
14541TIP3    H143566   1.328   1.095   3.851
14541TIP3    H243567   1.463   1.134   3.909
14542TIP3   OH243568   0.617   2.469   1.030
14542TIP3    H143569   0.525   2.472   1.056
14542TIP3    H243570   0.636   2.375   1.018
14543TIP3   OH243571   5.320   7.435   4.367
14543TIP3    H143572   5.329   7.530   4.377
14543TIP3    H243573   5.225   7.421   4.359
14544TIP3   OH243574   6.362   0.089   2.475
14544TIP3    H143575   6.437   0.145   2.497
14544TIP3    H243576   6.291   0.123   2.530
14545TIP3   OH243577   7.133   7.257   2.468
14545TIP3    H143578   7.162   7.326   2.408
14545TIP3    H243579   7.126   7.179   2.414
14546TIP3   OH243580   5.799   6.195   3.289
14546TIP3    H143581   5.890   6.201   3.318
14546TIP3    H243582   5.748   6.228   3.363
14547TIP3   OH243583   6.266   1.463   5.937
14547TIP3    H143584   6.211   1.514   5.996
14547TIP3    H243585   6.217   1.382   5.923
14548TIP3   OH243586   0.901   0.811   3.673
14548TIP3    H143587   0.986   0.846   3.646
14548TIP3    H243588   0.838   0.874   3.638
14549TIP3   OH243589   8.219   5.542   1.789
14549TIP3    H143590   8.198   5.463   1.840
14549TIP3    H243591   8.233   5.610   1.855
14550TIP3   OH243592   0.446   2.607   3.484
14550TIP3    H143593   0.489   2.668   3.424
14550TIP3    H243594   0.517   2.573   3.538
14551TIP3   OH243595   7.398   5.147   5.986
14551TIP3    H143596   7.336   5.204   6.032
14551TIP3    H243597   7.475   5.203   5.973
14552TIP3   OH243598   2.155   4.611   5.837
14552TIP3    H143599   2.065   4.603   5.804
14552TIP3    H243600   2.147   4.659   5.919
14553TIP3   OH243601   4.040   1.672   6.460
14553TIP3    H143602   4.072   1.592   6.420
14553TIP3    H243603   4.038   1.652   6.554
14554TIP3   OH243604   5.480   1.798   4.753
14554TIP3    H143605   5.412   1.730   4.754
14554TIP3    H243606   5.562   1.751   4.753
14555TIP3   OH243607   3.559   6.450   3.710
14555TIP3    H143608   3.467   6.423   3.717
14555TIP3    H243609   3.559   6.543   3.732
14556TIP3   OH243610   6.758   0.306   0.165
14556TIP3    H143611   6.802   0.319   0.249
14556TIP3    H243612   6.784   0.218   0.138
14557TIP3   OH243613   6.210   4.556   3.810
14557TIP3    H143614   6.119   4.575   3.789
14557TIP3    H243615   6.247   4.519   3.730
14558TIP3   OH243616   2.553   3.630   2.845
14558TIP3    H143617   2.491   3.561   2.821
14558TIP3    H243618   2.515   3.710   2.811
14559TIP3   OH243619   4.346   4.694   1.041
14559TIP3    H143620   4.290   4.726   0.970
14559TIP3    H243621   4.334   4.758   1.111
14560TIP3   OH243622   2.963   4.057   2.215
14560TIP3    H143623   2.979   4.148   2.192
14560TIP3    H243624   2.959   4.011   2.131
14561TIP3   OH243625   7.004   1.087   5.141
14561TIP3    H143626   7.042   1.028   5.075
14561TIP3    H243627   7.007   1.037   5.222
14562TIP3   OH243628   8.029   4.920   2.883
14562TIP3    H143629   8.026   4.972   2.963
14562TIP3    H243630   7.998   4.833   2.909
14563TIP3   OH243631   4.074   1.574   1.508
14563TIP3    H143632   3.978   1.573   1.505
14563TIP3    H243633   4.101   1.542   1.422
14564TIP3   OH243634   6.163   6.297   4.326
14564TIP3    H143635   6.143   6.318   4.418
14564TIP3    H243636   6.078   6.279   4.287
14565TIP3   OH243637   5.541   0.465   0.705
14565TIP3    H143638   5.636   0.455   0.704
14565TIP3    H243639   5.508   0.388   0.659
14566TIP3   OH243640   0.374   5.493   2.631
14566TIP3    H143641   0.424   5.523   2.555
14566TIP3    H243642   0.440   5.456   2.690
14567TIP3   OH243643   4.907   7.130   2.059
14567TIP3    H143644   4.891   7.144   2.153
14567TIP3    H243645   4.961   7.052   2.056
14568TIP3   OH243646   4.172   0.852   1.965
14568TIP3    H143647   4.205   0.768   1.932
14568TIP3    H243648   4.085   0.831   1.998
14569TIP3   OH243649   0.634   6.586   4.484
14569TIP3    H143650   0.623   6.671   4.526
14569TIP3    H243651   0.636   6.523   4.557
14570TIP3   OH243652   3.549   1.224   3.402
14570TIP3    H143653   3.596   1.217   3.485
14570TIP3    H243654   3.503   1.141   3.393
14571TIP3   OH243655   4.291   0.155   3.256
14571TIP3    H143656   4.289   0.059   3.258
14571TIP3    H243657   4.307   0.181   3.347
14572TIP3   OH243658   7.810   0.712   3.437
14572TIP3    H143659   7.721   0.743   3.454
14572TIP3    H243660   7.799   0.626   3.398
14573TIP3   OH243661   3.554   5.321   2.974
14573TIP3    H143662   3.547   5.409   2.937
14573TIP3    H243663   3.465   5.299   3.000
14574TIP3   OH243664   6.515   5.163   3.610
14574TIP3    H143665   6.512   5.081   3.560
14574TIP3    H243666   6.606   5.168   3.641
14575TIP3   OH243667   8.131   7.490   4.336
14575TIP3    H143668   8.103   7.434   4.409
14575TIP3    H243669   8.120   7.435   4.259
14576TIP3   OH243670   4.067   7.611   3.604
14576TIP3    H143671   4.009   7.563   3.545
14576TIP3    H243672   4.069   7.700   3.568
14577TIP3   OH243673   1.522   3.783   5.540
14577TIP3    H143674   1.571   3.865   5.548
14577TIP3    H243675   1.587   3.715   5.556
14578TIP3   OH243676   3.472   1.705   2.680
14578TIP3    H143677   3.459   1.611   2.683
14578TIP3    H243678   3.517   1.721   2.597
14579TIP3   OH243679   3.038   2.235   6.455
14579TIP3    H143680   2.956   2.247   6.504
14579TIP3    H243681   3.103   2.214   6.522
14580TIP3   OH243682   7.110   6.398   3.190
14580TIP3    H143683   7.021   6.389   3.156
14580TIP3    H243684   7.164   6.344   3.133
14581TIP3   OH243685   5.340   4.838   2.090
14581TIP3    H143686   5.411   4.785   2.053
14581TIP3    H243687   5.376   4.927   2.093
14582TIP3   OH243688   1.520   5.659   2.326
14582TIP3    H143689   1.493   5.567   2.334
14582TIP3    H243690   1.611   5.659   2.354
14583TIP3   OH243691   1.458   2.262   0.208
14583TIP3    H143692   1.364   2.264   0.223
14583TIP3    H243693   1.482   2.170   0.217
14584TIP3   OH243694   1.975   2.449   5.065
14584TIP3    H143695   1.992   2.408   4.980
14584TIP3    H243696   2.011   2.387   5.129
14585TIP3   OH243697   2.714   4.105   5.865
14585TIP3    H143698   2.751   4.102   5.776
14585TIP3    H243699   2.738   4.020   5.903
14586TIP3   OH243700   6.298   6.282   2.136
14586TIP3    H143701   6.372   6.307   2.080
14586TIP3    H243702   6.239   6.235   2.077
14587TIP3   OH243703   0.090   2.358   2.194
14587TIP3    H143704   0.080   2.451   2.214
14587TIP3    H243705   0.153   2.355   2.123
14588TIP3   OH243706   5.484   7.565   1.773
14588TIP3    H143707   5.516   7.641   1.726
14588TIP3    H243708   5.390   7.564   1.756
14589TIP3   OH243709   7.753   6.142   0.160
14589TIP3    H143710   7.830   6.189   0.129
14589TIP3    H243711   7.692   6.211   0.187
14590TIP3   OH243712   3.896   0.144   0.770
14590TIP3    H143713   3.943   0.227   0.772
14590TIP3    H243714   3.926   0.098   0.848
14591TIP3   OH243715   1.400   3.350   2.000
14591TIP3    H143716   1.417   3.415   1.932
14591TIP3    H243717   1.371   3.273   1.952
14592TIP3   OH243718   6.462   5.671   2.844
14592TIP3    H143719   6.496   5.738   2.785
14592TIP3    H243720   6.407   5.616   2.789
14593TIP3   OH243721   3.828   6.500   5.448
14593TIP3    H143722   3.874   6.584   5.451
14593TIP3    H243723   3.896   6.434   5.460
14594TIP3   OH243724   7.600  -0.005   2.891
14594TIP3    H143725   7.515  -0.049   2.901
14594TIP3    H243726   7.618   0.033   2.976
14595TIP3   OH243727   3.326   2.468   1.016
14595TIP3    H143728   3.337   2.457   0.922
14595TIP3    H243729   3.381   2.544   1.038
14596TIP3   OH243730   5.487   5.001   4.768
14596TIP3    H143731   5.452   5.062   4.703
14596TIP3    H243732   5.550   5.053   4.818
14597TIP3   OH243733   0.658   7.085   3.735
14597TIP3    H143734   0.629   7.160   3.786
14597TIP3    H243735   0.713   7.034   3.795
14598TIP3   OH243736   6.340   1.045   0.592
14598TIP3    H143737   6.252   1.018   0.618
14598TIP3    H243738   6.346   1.137   0.618
14599TIP3   OH243739   1.952   5.614   0.590
14599TIP3    H143740   1.892   5.542   0.568
14599TIP3    H243741   2.013   5.618   0.516
14600TIP3   OH243742   5.367   7.843   5.718
14600TIP3    H143743   5.358   7.825   5.811
14600TIP3    H243744   5.286   7.809   5.679
14601TIP3   OH243745   1.489   6.453   4.054
14601TIP3    H143746   1.531   6.394   4.116
14601TIP3    H243747   1.398   6.423   4.051
14602TIP3   OH243748   7.829   3.662   4.243
14602TIP3    H143749   7.784   3.746   4.253
14602TIP3    H243750   7.882   3.673   4.164
14603TIP3   OH243751   2.739   3.179   1.728
14603TIP3    H143752   2.740   3.199   1.635
14603TIP3    H243753   2.647   3.162   1.748
14604TIP3   OH243754   7.801   2.843   3.492
14604TIP3    H143755   7.854   2.815   3.417
14604TIP3    H243756   7.734   2.775   3.500
14605TIP3   OH243757   6.754   2.226   6.443
14605TIP3    H143758   6.815   2.192   6.509
14605TIP3    H243759   6.724   2.309   6.479
14606TIP3   OH243760   6.060   0.432   5.907
14606TIP3    H143761   5.972   0.459   5.880
14606TIP3    H243762   6.117   0.500   5.873
14607TIP3   OH243763   6.643   7.661   1.013
14607TIP3    H143764   6.658   7.602   0.939
14607TIP3    H243765   6.553   7.643   1.040
14608TIP3   OH243766   0.459   4.345   4.375
14608TIP3    H143767   0.461   4.314   4.284
14608TIP3    H243768   0.478   4.438   4.370
14609TIP3   OH243769   6.427   7.603   2.477
14609TIP3    H143770   6.432   7.547   2.399
14609TIP3    H243771   6.387   7.684   2.445
14610TIP3   OH243772   7.617   4.594   0.305
14610TIP3    H143773   7.570   4.626   0.382
14610TIP3    H243774   7.550   4.553   0.251
14611TIP3   OH243775   0.691   2.910   6.278
14611TIP3    H143776   0.764   2.971   6.293
14611TIP3    H243777   0.613   2.964   6.278
14612TIP3   OH243778   0.808   5.689   0.685
14612TIP3    H143779   0.793   5.615   0.745
14612TIP3    H243780   0.819   5.648   0.600
14613TIP3   OH243781   7.263   1.392   5.770
14613TIP3    H143782   7.283   1.485   5.757
14613TIP3    H243783   7.225   1.387   5.858
14614TIP3   OH243784   8.274   3.280   0.808
14614TIP3    H143785   8.347   3.259   0.866
14614TIP3    H243786   8.197   3.281   0.864
14615TIP3   OH243787   0.594   4.792   1.376
14615TIP3    H143788   0.597   4.719   1.314
14615TIP3    H243789   0.672   4.844   1.356
14616TIP3   OH243790   8.189   2.213   3.565
14616TIP3    H143791   8.115   2.180   3.514
14616TIP3    H243792   8.166   2.304   3.583
14617TIP3   OH243793   1.958   4.064   3.280
14617TIP3    H143794   1.908   4.038   3.202
14617TIP3    H243795   2.011   3.988   3.301
14618TIP3   OH243796   6.553   6.371   5.381
14618TIP3    H143797   6.587   6.281   5.391
14618TIP3    H243798   6.470   6.370   5.429
14619TIP3   OH243799   5.690   1.643   3.458
14619TIP3    H143800   5.703   1.685   3.543
14619TIP3    H243801   5.754   1.686   3.401
14620TIP3   OH243802   1.330   7.007   0.516
14620TIP3    H143803   1.423   7.031   0.522
14620TIP3    H243804   1.332   6.916   0.486
14621TIP3   OH243805   2.331   0.791   0.001
14621TIP3    H143806   2.388   0.830   0.067
14621TIP3    H243807   2.246   0.785   0.043
14622TIP3   OH243808   7.280   0.582   1.953
14622TIP3    H143809   7.228   0.526   2.011
14622TIP3    H243810   7.239   0.572   1.867
14623TIP3   OH243811   6.025   2.034   4.839
14623TIP3    H143812   5.949   2.029   4.781
14623TIP3    H243813   6.052   1.943   4.851
14624TIP3   OH243814   6.346   4.945   5.083
14624TIP3    H143815   6.426   4.998   5.091
14624TIP3    H243816   6.368   4.861   5.125
14625TIP3   OH243817   5.995   1.525   6.031
14625TIP3    H143818   5.938   1.595   6.062
14625TIP3    H243819   5.935   1.464   5.987
14626TIP3   OH243820   3.621   6.430   4.409
14626TIP3    H143821   3.646   6.516   4.445
14626TIP3    H243822   3.693   6.372   4.434
14627TIP3   OH243823   0.248   2.922   5.031
14627TIP3    H143824   0.330   2.921   4.980
14627TIP3    H243825   0.244   3.011   5.066
14628TIP3   OH243826   5.508   0.142   2.880
14628TIP3    H143827   5.449   0.197   2.931
14628TIP3    H243828   5.592   0.188   2.880
14629TIP3   OH243829   2.123   3.224   1.208
14629TIP3    H143830   2.085   3.271   1.283
14629TIP3    H243831   2.048   3.193   1.158
14630TIP3   OH243832   3.977   4.460   3.587
14630TIP3    H143833   4.062   4.444   3.545
14630TIP3    H243834   3.926   4.506   3.521
14631TIP3   OH243835   3.046   5.787   3.248
14631TIP3    H143836   2.979   5.815   3.187
14631TIP3    H243837   3.116   5.752   3.193
14632TIP3   OH243838   3.596   7.509   5.366
14632TIP3    H143839   3.631   7.521   5.454
14632TIP3    H243840   3.501   7.509   5.378
14633TIP3   OH243841   6.396   7.266   5.491
14633TIP3    H143842   6.413   7.357   5.467
14633TIP3    H243843   6.481   7.222   5.481
14634TIP3   OH243844   8.127   7.132   5.185
14634TIP3    H143845   8.103   7.221   5.212
14634TIP3    H243846   8.146   7.140   5.091
14635TIP3   OH243847   4.289   1.416   3.487
14635TIP3    H143848   4.321   1.345   3.431
14635TIP3    H243849   4.361   1.479   3.489
14636TIP3   OH243850   0.787   0.513   3.789
14636TIP3    H143851   0.877   0.547   3.787
14636TIP3    H243852   0.747   0.547   3.710
14637TIP3   OH243853   7.029   5.415   4.674
14637TIP3    H143854   7.078   5.333   4.686
14637TIP3    H243855   7.014   5.421   4.580
14638TIP3   OH243856   3.155   1.785   4.072
14638TIP3    H143857   3.236   1.814   4.031
14638TIP3    H243858   3.142   1.846   4.144
14639TIP3   OH243859   2.947   6.892   1.008
14639TIP3    H143860   2.918   6.842   0.931
14639TIP3    H243861   3.012   6.836   1.050
14640TIP3   OH243862   8.279   7.594   1.008
14640TIP3    H143863   8.281   7.616   0.915
14640TIP3    H243864   8.209   7.529   1.016
14641TIP3   OH243865   6.666   6.652   3.295
14641TIP3    H143866   6.615   6.628   3.218
14641TIP3    H243867   6.717   6.574   3.316
14642TIP3   OH243868   5.647   3.029   4.790
14642TIP3    H143869   5.685   3.034   4.702
14642TIP3    H243870   5.559   2.996   4.776
14643TIP3   OH243871   1.046   4.169   6.674
14643TIP3    H143872   1.099   4.249   6.671
14643TIP3    H243873   1.106   4.100   6.646
14644TIP3   OH243874   4.828   6.292   4.105
14644TIP3    H143875   4.860   6.202   4.109
14644TIP3    H243876   4.753   6.294   4.165
14645TIP3   OH243877   0.419   6.528   1.039
14645TIP3    H143878   0.453   6.439   1.028
14645TIP3    H243879   0.402   6.558   0.950
14646TIP3   OH243880   7.802   1.252   5.963
14646TIP3    H143881   7.883   1.213   5.996
14646TIP3    H243882   7.732   1.199   6.001
14647TIP3   OH243883   3.257   3.345   3.703
14647TIP3    H143884   3.331   3.387   3.658
14647TIP3    H243885   3.270   3.365   3.795
14648TIP3   OH243886   4.707   5.289   6.690
14648TIP3    H143887   4.724   5.373   6.648
14648TIP3    H243888   4.769   5.228   6.650
14649TIP3   OH243889   7.318   1.696   5.279
14649TIP3    H143890   7.274   1.659   5.355
14649TIP3    H243891   7.343   1.621   5.226
14650TIP3   OH243892   6.474   7.276   1.939
14650TIP3    H143893   6.430   7.344   1.889
14650TIP3    H243894   6.462   7.302   2.031
14651TIP3   OH243895   4.861   7.572   2.152
14651TIP3    H143896   4.787   7.630   2.130
14651TIP3    H243897   4.863   7.508   2.080
14652TIP3   OH243898   2.933   4.527   6.006
14652TIP3    H143899   2.998   4.587   5.971
14652TIP3    H243900   2.969   4.440   5.990
14653TIP3   OH243901   3.660   3.943   1.181
14653TIP3    H143902   3.755   3.956   1.180
14653TIP3    H243903   3.632   3.959   1.091
14654TIP3   OH243904   6.941   4.834   2.762
14654TIP3    H143905   6.900   4.819   2.847
14654TIP3    H243906   6.873   4.874   2.709
14655TIP3   OH243907   1.301   1.487   4.234
14655TIP3    H143908   1.246   1.531   4.169
14655TIP3    H243909   1.371   1.551   4.253
14656TIP3   OH243910   4.087   1.068   3.709
14656TIP3    H143911   4.120   1.091   3.796
14656TIP3    H243912   4.075   1.152   3.664
14657TIP3   OH243913   1.275   4.179   4.284
14657TIP3    H143914   1.193   4.164   4.237
14657TIP3    H243915   1.254   4.164   4.375
14658TIP3   OH243916   2.029   1.465   0.311
14658TIP3    H143917   2.059   1.528   0.246
14658TIP3    H243918   1.977   1.517   0.373
14659TIP3   OH243919   3.847   6.731   0.802
14659TIP3    H143920   3.903   6.776   0.740
14659TIP3    H243921   3.872   6.766   0.887
14660TIP3   OH243922   0.952   1.508   2.564
14660TIP3    H143923   0.963   1.583   2.506
14660TIP3    H243924   1.034   1.502   2.613
14661TIP3   OH243925   3.085   1.676   1.747
14661TIP3    H143926   3.038   1.734   1.687
14661TIP3    H243927   3.177   1.698   1.733
14662TIP3   OH243928   4.365   7.213   2.877
14662TIP3    H143929   4.406   7.264   2.807
14662TIP3    H243930   4.274   7.242   2.878
14663TIP3   OH243931   6.769   4.480   2.530
14663TIP3    H143932   6.759   4.385   2.535
14663TIP3    H243933   6.830   4.501   2.601
14664TIP3   OH243934   6.072   3.966   0.726
14664TIP3    H143935   6.038   4.052   0.703
14664TIP3    H243936   6.142   3.984   0.789
14665TIP3   OH243937   6.505   6.936   3.048
14665TIP3    H143938   6.588   6.889   3.060
14665TIP3    H243939   6.531   7.024   3.020
14666TIP3   OH243940   1.533   5.587   5.281
14666TIP3    H143941   1.492   5.501   5.288
14666TIP3    H243942   1.606   5.574   5.221
14667TIP3   OH243943   6.405   0.745   4.575
14667TIP3    H143944   6.491   0.782   4.556
14667TIP3    H243945   6.377   0.788   4.656
14668TIP3   OH243946   4.200   5.350   4.610
14668TIP3    H143947   4.160   5.268   4.581
14668TIP3    H243948   4.136   5.389   4.668
14669TIP3   OH243949   1.385   5.108  -0.036
14669TIP3    H143950   1.378   5.090   0.058
14669TIP3    H243951   1.311   5.061  -0.075
14670TIP3   OH243952   0.855   3.375   6.364
14670TIP3    H143953   0.802   3.391   6.285
14670TIP3    H243954   0.854   3.457   6.412
14671TIP3   OH243955   6.743   1.050   3.667
14671TIP3    H143956   6.744   0.962   3.705
14671TIP3    H243957   6.724   1.108   3.740
14672TIP3   OH243958   0.587   3.558   3.956
14672TIP3    H143959   0.554   3.472   3.982
14672TIP3    H243960   0.570   3.563   3.862
14673TIP3   OH243961   1.062   6.961   1.896
14673TIP3    H143962   1.008   7.000   1.965
14673TIP3    H243963   1.003   6.951   1.822
14674TIP3   OH243964   5.206   5.465   3.917
14674TIP3    H143965   5.171   5.504   3.837
14674TIP3    H243966   5.244   5.382   3.888
14675TIP3   OH243967   2.844   4.033   5.635
14675TIP3    H143968   2.887   4.115   5.612
14675TIP3    H243969   2.911   3.966   5.620
14676TIP3   OH243970   3.322   0.906   0.164
14676TIP3    H143971   3.355   0.874   0.248
14676TIP3    H243972   3.228   0.918   0.178
14677TIP3   OH243973   8.251   0.127   5.114
14677TIP3    H143974   8.164   0.157   5.089
14677TIP3    H243975   8.302   0.133   5.033
14678TIP3   OH243976   6.736   1.813   4.150
14678TIP3    H143977   6.746   1.902   4.116
14678TIP3    H243978   6.642   1.797   4.150
14679TIP3   OH243979   3.734   3.278   1.192
14679TIP3    H143980   3.678   3.221   1.245
14679TIP3    H243981   3.784   3.328   1.256
14680TIP3   OH243982   6.048   3.399   1.437
14680TIP3    H143983   6.128   3.402   1.490
14680TIP3    H243984   5.997   3.474   1.467
14681TIP3   OH243985   6.919   1.779   3.709
14681TIP3    H143986   6.836   1.826   3.699
14681TIP3    H243987   6.934   1.739   3.623
14682TIP3   OH243988   0.313   2.356   3.327
14682TIP3    H143989   0.345   2.314   3.407
14682TIP3    H243990   0.270   2.435   3.358
14683TIP3   OH243991   2.010   2.566   1.503
14683TIP3    H143992   1.934   2.511   1.481
14683TIP3    H243993   2.082   2.529   1.452
14684TIP3   OH243994   2.566   6.546   4.753
14684TIP3    H143995   2.547   6.486   4.680
14684TIP3    H243996   2.652   6.519   4.784
14685TIP3   OH243997   7.666   7.039   3.378
14685TIP3    H143998   7.650   7.088   3.297
14685TIP3    H243999   7.746   6.988   3.360
14686TIP3   OH244000   3.068   3.047   4.006
14686TIP3    H144001   2.995   2.986   3.993
14686TIP3    H244002   3.140   3.009   3.956
14687TIP3   OH244003   2.007   6.644   6.491
14687TIP3    H144004   2.094   6.626   6.453
14687TIP3    H244005   1.989   6.568   6.546
14688TIP3   OH244006   4.276   3.444   0.533
14688TIP3    H144007   4.188   3.481   0.522
14688TIP3    H244008   4.307   3.427   0.444
14689TIP3   OH244009   7.198   7.523   1.150
14689TIP3    H144010   7.172   7.436   1.119
14689TIP3    H244011   7.266   7.506   1.215
14690TIP3   OH244012   6.405   3.806   4.253
14690TIP3    H144013   6.495   3.807   4.220
14690TIP3    H244014   6.361   3.876   4.205
14691TIP3   OH244015   0.722   0.250   0.022
14691TIP3    H144016   0.701   0.342   0.007
14691TIP3    H244017   0.666   0.224   0.096
14692TIP3   OH244018   7.472   4.426   6.728
14692TIP3    H144019   7.501   4.407   6.817
14692TIP3    H244020   7.398   4.485   6.739
14693TIP3   OH244021   7.600   6.113   4.551
14693TIP3    H144022   7.646   6.106   4.635
14693TIP3    H244023   7.667   6.139   4.489
14694TIP3   OH244024   4.460   1.765   4.814
14694TIP3    H144025   4.373   1.783   4.850
14694TIP3    H244026   4.510   1.733   4.889
14695TIP3   OH244027   5.881   3.891   0.526
14695TIP3    H144028   5.932   3.820   0.486
14695TIP3    H244029   5.912   3.894   0.617
14696TIP3   OH244030   3.507   0.723   6.217
14696TIP3    H144031   3.565   0.700   6.291
14696TIP3    H244032   3.458   0.798   6.248
14697TIP3   OH244033   5.016   3.480   3.385
14697TIP3    H144034   5.040   3.425   3.459
14697TIP3    H244035   5.064   3.443   3.311
14698TIP3   OH244036   6.036   4.259   5.229
14698TIP3    H144037   6.080   4.174   5.228
14698TIP3    H244038   5.979   4.255   5.306
14699TIP3   OH244039   4.824   3.075   1.560
14699TIP3    H144040   4.854   3.087   1.650
14699TIP3    H244041   4.869   2.996   1.529
14700TIP3   OH244042   5.465   3.806   5.990
14700TIP3    H144043   5.410   3.846   5.923
14700TIP3    H244044   5.409   3.801   6.067
14701TIP3   OH244045   1.785   4.520   2.909
14701TIP3    H144046   1.706   4.567   2.936
14701TIP3    H244047   1.804   4.462   2.983
14702TIP3   OH244048   5.916   2.369   3.240
14702TIP3    H144049   5.952   2.302   3.181
14702TIP3    H244050   5.828   2.338   3.261
14703TIP3   OH244051   0.670   6.004   6.750
14703TIP3    H144052   0.739   6.061   6.784
14703TIP3    H244053   0.674   6.016   6.655
14704TIP3   OH244054   4.679   6.400   3.603
14704TIP3    H144055   4.724   6.352   3.533
14704TIP3    H244056   4.742   6.400   3.676
14705TIP3   OH244057   7.025   6.122   1.241
14705TIP3    H144058   7.028   6.204   1.192
14705TIP3    H244059   7.049   6.146   1.331
14706TIP3   OH244060   1.420   3.316   3.654
14706TIP3    H144061   1.438   3.401   3.696
14706TIP3    H244062   1.387   3.261   3.726
14707TIP3   OH244063   5.037   4.030   4.962
14707TIP3    H144064   4.993   3.945   4.969
14707TIP3    H244065   5.033   4.051   4.868
14708TIP3   OH244066   7.931   2.128   6.460
14708TIP3    H144067   7.985   2.149   6.384
14708TIP3    H244068   7.936   2.206   6.515
14709TIP3   OH244069   3.105   6.098   0.795
14709TIP3    H144070   3.034   6.093   0.859
14709TIP3    H244071   3.133   6.190   0.797
14710TIP3   OH244072   2.416   6.139   5.364
14710TIP3    H144073   2.347   6.124   5.428
14710TIP3    H244074   2.492   6.093   5.399
14711TIP3   OH244075   0.407   3.316   6.591
14711TIP3    H144076   0.431   3.406   6.570
14711TIP3    H244077   0.332   3.297   6.534
14712TIP3   OH244078   0.467   4.137   3.860
14712TIP3    H144079   0.543   4.126   3.916
14712TIP3    H244080   0.452   4.051   3.821
14713TIP3   OH244081   4.206   7.366   1.208
14713TIP3    H144082   4.242   7.391   1.123
14713TIP3    H244083   4.136   7.429   1.224
14714TIP3   OH244084   6.867   0.256   1.328
14714TIP3    H144085   6.876   0.204   1.248
14714TIP3    H244086   6.812   0.330   1.303
14715TIP3   OH244087   4.187   5.178   5.663
14715TIP3    H144088   4.134   5.147   5.737
14715TIP3    H244089   4.238   5.251   5.699
14716TIP3   OH244090   3.854   5.637   5.030
14716TIP3    H144091   3.805   5.627   5.111
14716TIP3    H244092   3.881   5.729   5.029
14717TIP3   OH244093   0.062   5.774   2.171
14717TIP3    H144094   0.137   5.770   2.111
14717TIP3    H244095  -0.015   5.774   2.114
14718TIP3   OH244096   3.866   5.879   1.094
14718TIP3    H144097   3.940   5.829   1.057
14718TIP3    H244098   3.884   5.970   1.070
14719TIP3   OH244099   3.207   7.424   0.387
14719TIP3    H144100   3.296   7.426   0.354
14719TIP3    H244101   3.213   7.462   0.475
14720TIP3   OH244102   2.637   0.233   2.051
14720TIP3    H144103   2.561   0.273   2.008
14720TIP3    H244104   2.606   0.147   2.078
14721TIP3   OH244105   3.051   6.102   2.575
14721TIP3    H144106   3.047   6.150   2.492
14721TIP3    H244107   3.139   6.065   2.576
14722TIP3   OH244108   7.764   5.032   5.981
14722TIP3    H144109   7.753   4.972   5.907
14722TIP3    H244110   7.777   5.118   5.940
14723TIP3   OH244111   5.951   2.222   1.706
14723TIP3    H144112   6.001   2.300   1.731
14723TIP3    H244113   5.996   2.188   1.629
14724TIP3   OH244114   1.601   5.471   1.743
14724TIP3    H144115   1.512   5.503   1.732
14724TIP3    H244116   1.648   5.499   1.665
14725TIP3   OH244117   1.790   3.099   4.995
14725TIP3    H144118   1.844   3.060   4.925
14725TIP3    H244119   1.798   3.193   4.982
14726TIP3   OH244120   4.032   0.994   4.147
14726TIP3    H144121   4.017   0.918   4.091
14726TIP3    H244122   4.092   0.962   4.215
14727TIP3   OH244123   7.815   0.510   4.999
14727TIP3    H144124   7.844   0.599   5.019
14727TIP3    H244125   7.814   0.506   4.904
14728TIP3   OH244126   3.234   5.530   3.244
14728TIP3    H144127   3.288   5.463   3.201
14728TIP3    H244128   3.283   5.554   3.322
14729TIP3   OH244129   4.838   0.438   5.491
14729TIP3    H144130   4.906   0.389   5.445
14729TIP3    H244131   4.809   0.503   5.427
14730TIP3   OH244132   6.770   3.773   4.536
14730TIP3    H144133   6.838   3.749   4.599
14730TIP3    H244134   6.788   3.718   4.460
14731TIP3   OH244135   4.901   7.563   5.652
14731TIP3    H144136   4.844   7.487   5.640
14731TIP3    H244137   4.873   7.601   5.735
14732TIP3   OH244138   5.869   5.181   6.411
14732TIP3    H144139   5.937   5.116   6.392
14732TIP3    H244140   5.851   5.170   6.504
14733TIP3   OH244141   5.021   4.069   5.743
14733TIP3    H144142   5.078   4.101   5.813
14733TIP3    H244143   4.933   4.089   5.773
14734TIP3   OH244144   2.833   7.685   4.025
14734TIP3    H144145   2.905   7.726   3.977
14734TIP3    H244146   2.871   7.605   4.061
14735TIP3   OH244147   4.561   2.236   5.259
14735TIP3    H144148   4.495   2.231   5.327
14735TIP3    H244149   4.644   2.244   5.306
14736TIP3   OH244150   7.961   7.070   0.480
14736TIP3    H144151   8.020   7.000   0.454
14736TIP3    H244152   7.975   7.140   0.416
14737TIP3   OH244153   0.672   6.467   5.708
14737TIP3    H144154   0.762   6.443   5.727
14737TIP3    H244155   0.663   6.453   5.614
14738TIP3   OH244156   0.568   2.672   0.471
14738TIP3    H144157   0.557   2.601   0.408
14738TIP3    H244158   0.636   2.641   0.530
14739TIP3   OH244159   8.109   0.707   6.068
14739TIP3    H144160   8.156   0.714   5.985
14739TIP3    H244161   8.086   0.797   6.091
14740TIP3   OH244162   6.201   0.340   1.632
14740TIP3    H144163   6.171   0.249   1.631
14740TIP3    H244164   6.295   0.335   1.648
14741TIP3   OH244165   3.994   6.431   6.480
14741TIP3    H144166   4.049   6.379   6.421
14741TIP3    H244167   4.011   6.394   6.566
14742TIP3   OH244168   1.126   5.991   0.845
14742TIP3    H144169   1.149   6.082   0.865
14742TIP3    H244170   1.057   5.999   0.778
14743TIP3   OH244171   1.646   5.764   0.710
14743TIP3    H144172   1.663   5.850   0.671
14743TIP3    H244173   1.693   5.766   0.793
14744TIP3   OH244174   5.697   5.970   4.603
14744TIP3    H144175   5.615   6.003   4.638
14744TIP3    H244176   5.677   5.946   4.513
14745TIP3   OH244177   1.929   0.252   1.621
14745TIP3    H144178   1.927   0.194   1.546
14745TIP3    H244179   1.974   0.331   1.590
14746TIP3   OH244180   2.714   4.919   1.540
14746TIP3    H144181   2.672   4.835   1.523
14746TIP3    H244182   2.806   4.897   1.558
14747TIP3   OH244183   7.550   4.514   6.219
14747TIP3    H144184   7.567   4.475   6.305
14747TIP3    H244185   7.605   4.593   6.218
14748TIP3   OH244186   3.725   0.696   5.376
14748TIP3    H144187   3.749   0.757   5.307
14748TIP3    H244188   3.700   0.616   5.329
14749TIP3   OH244189   5.390   6.873   3.240
14749TIP3    H144190   5.412   6.898   3.330
14749TIP3    H244191   5.309   6.920   3.222
14750TIP3   OH244192   0.673   6.411   6.529
14750TIP3    H144193   0.681   6.339   6.466
14750TIP3    H244194   0.742   6.395   6.593
14751TIP3   OH244195   1.091   2.656   3.884
14751TIP3    H144196   1.003   2.622   3.897
14751TIP3    H244197   1.146   2.578   3.875
14752TIP3   OH244198   2.031   6.060   2.239
14752TIP3    H144199   2.048   5.967   2.258
14752TIP3    H244200   2.035   6.103   2.325
14753TIP3   OH244201   3.887   1.808   3.162
14753TIP3    H144202   3.919   1.724   3.195
14753TIP3    H244203   3.836   1.785   3.084
14754TIP3   OH244204   7.105   0.869   4.548
14754TIP3    H144205   7.200   0.860   4.555
14754TIP3    H244206   7.090   0.963   4.557
14755TIP3   OH244207   2.535   6.080   4.187
14755TIP3    H144208   2.520   6.037   4.271
14755TIP3    H244209   2.587   6.157   4.208
14756TIP3   OH244210   4.497   1.626   0.125
14756TIP3    H144211   4.415   1.661   0.091
14756TIP3    H244212   4.471   1.557   0.186
14757TIP3   OH244213   2.555   7.611   5.941
14757TIP3    H144214   2.500   7.544   5.901
14757TIP3    H244215   2.551   7.685   5.880
14758TIP3   OH244216   4.849   2.791   0.697
14758TIP3    H144217   4.885   2.703   0.710
14758TIP3    H244218   4.808   2.788   0.611
14759TIP3   OH244219   5.697   1.390   6.244
14759TIP3    H144220   5.735   1.309   6.280
14759TIP3    H244221   5.602   1.380   6.258
14760TIP3   OH244222   1.659   1.307   2.572
14760TIP3    H144223   1.607   1.234   2.607
14760TIP3    H244224   1.604   1.344   2.503
14761TIP3   OH244225   4.187   6.619   6.753
14761TIP3    H144226   4.181   6.690   6.689
14761TIP3    H244227   4.157   6.541   6.706
14762TIP3   OH244228   0.166   1.532   1.609
14762TIP3    H144229   0.232   1.594   1.639
14762TIP3    H244230   0.193   1.448   1.647
14763TIP3   OH244231   6.404   4.985   0.388
14763TIP3    H144232   6.413   5.080   0.399
14763TIP3    H244233   6.369   4.954   0.471
14764TIP3   OH244234   4.892   1.062   1.715
14764TIP3    H144235   4.803   1.039   1.690
14764TIP3    H244236   4.945   0.985   1.693
14765TIP3   OH244237   6.947   2.561   0.660
14765TIP3    H144238   6.945   2.616   0.582
14765TIP3    H244239   6.924   2.621   0.732
14766TIP3   OH244240   1.506   4.070   1.704
14766TIP3    H144241   1.416   4.039   1.703
14766TIP3    H244242   1.558   3.992   1.722
14767TIP3   OH244243   1.205   5.708   3.266
14767TIP3    H144244   1.271   5.648   3.301
14767TIP3    H244245   1.138   5.714   3.335
14768TIP3   OH244246   2.768   3.187   1.448
14768TIP3    H144247   2.746   3.153   1.362
14768TIP3    H244248   2.758   3.282   1.439
14769TIP3   OH244249   0.297   6.359   6.508
14769TIP3    H144250   0.340   6.429   6.459
14769TIP3    H244251   0.285   6.289   6.444
14770TIP3   OH244252   8.047   1.536   6.159
14770TIP3    H144253   8.052   1.468   6.093
14770TIP3    H244254   8.134   1.576   6.160
14771TIP3   OH244255   2.902   6.103   5.540
14771TIP3    H144256   2.838   6.170   5.517
14771TIP3    H244257   2.971   6.150   5.586
14772TIP3   OH244258   4.954   7.094   0.432
14772TIP3    H144259   4.858   7.102   0.427
14772TIP3    H244260   4.985   7.150   0.361
14773TIP3   OH244261   4.361   7.696   4.320
14773TIP3    H144262   4.437   7.678   4.376
14773TIP3    H244263   4.293   7.638   4.354
14774TIP3   OH244264   4.327   1.960   0.973
14774TIP3    H144265   4.389   1.890   0.954
14774TIP3    H244266   4.382   2.037   0.988
14775TIP3   OH244267   7.084   1.039   0.727
14775TIP3    H144268   7.162   1.040   0.671
14775TIP3    H244269   7.119   1.045   0.816
14776TIP3   OH244270   7.116   6.463   5.573
14776TIP3    H144271   7.137   6.486   5.483
14776TIP3    H244272   7.173   6.518   5.626
14777TIP3   OH244273   7.185   5.021   0.210
14777TIP3    H144274   7.166   4.993   0.120
14777TIP3    H244275   7.262   5.078   0.202
14778TIP3   OH244276   4.067   0.879   2.318
14778TIP3    H144277   4.030   0.964   2.341
14778TIP3    H244278   3.992   0.820   2.311
14779TIP3   OH244279   0.740   1.379   2.071
14779TIP3    H144280   0.807   1.339   2.125
14779TIP3    H244281   0.787   1.416   1.997
14780TIP3   OH244282   6.145   7.452   3.616
14780TIP3    H144283   6.205   7.422   3.548
14780TIP3    H244284   6.198   7.511   3.670
14781TIP3   OH244285   0.249   0.378   2.087
14781TIP3    H144286   0.180   0.414   2.031
14781TIP3    H244287   0.258   0.441   2.158
14782TIP3   OH244288   3.942   1.636   4.586
14782TIP3    H144289   3.855   1.674   4.575
14782TIP3    H244290   3.962   1.596   4.502
14783TIP3   OH244291   2.447   4.389   0.498
14783TIP3    H144292   2.522   4.429   0.454
14783TIP3    H244293   2.373   4.443   0.472
14784TIP3   OH244294   5.351   4.054   0.447
14784TIP3    H144295   5.344   4.103   0.365
14784TIP3    H244296   5.379   4.118   0.512
14785TIP3   OH244297   6.673   1.312   4.273
14785TIP3    H144298   6.630   1.274   4.350
14785TIP3    H244299   6.614   1.382   4.244
14786TIP3   OH244300   6.163   2.195   2.539
14786TIP3    H144301   6.201   2.218   2.624
14786TIP3    H244302   6.105   2.269   2.518
14787TIP3   OH244303   1.031   3.851   2.391
14787TIP3    H144304   1.124   3.842   2.372
14787TIP3    H244305   0.993   3.767   2.365
14788TIP3   OH244306   2.290   3.602   5.059
14788TIP3    H144307   2.347   3.570   5.129
14788TIP3    H244308   2.226   3.658   5.104
14789TIP3   OH244309   1.517   0.448   2.248
14789TIP3    H144310   1.502   0.367   2.298
14789TIP3    H244311   1.587   0.493   2.295
14790TIP3   OH244312   0.495   1.135   0.392
14790TIP3    H144313   0.567   1.177   0.346
14790TIP3    H244314   0.523   1.044   0.403
14791TIP3   OH244315   1.811   1.205   3.952
14791TIP3    H144316   1.828   1.123   3.999
14791TIP3    H244317   1.735   1.186   3.897
14792TIP3   OH244318   0.630   3.744   0.053
14792TIP3    H144319   0.660   3.778   0.137
14792TIP3    H244320   0.709   3.734   0.001
14793TIP3   OH244321   0.971   2.524   6.046
14793TIP3    H144322   1.014   2.578   5.980
14793TIP3    H244323   0.901   2.580   6.080
14794TIP3   OH244324   7.608   1.767   6.630
14794TIP3    H144325   7.577   1.785   6.719
14794TIP3    H244326   7.689   1.817   6.622
14795TIP3   OH244327   7.548   5.129   2.892
14795TIP3    H144328   7.535   5.076   2.813
14795TIP3    H244329   7.643   5.132   2.904
14796TIP3   OH244330   1.766   0.481   1.891
14796TIP3    H144331   1.846   0.439   1.924
14796TIP3    H244332   1.797   0.534   1.817
14797TIP3   OH244333   6.874   7.688   0.289
14797TIP3    H144334   6.789   7.665   0.325
14797TIP3    H244335   6.937   7.647   0.348
14798TIP3   OH244336   5.860   0.069   4.758
14798TIP3    H144337   5.944   0.114   4.765
14798TIP3    H244338   5.845   0.032   4.844
14799TIP3   OH244339   5.139   2.326   4.250
14799TIP3    H144340   5.164   2.358   4.164
14799TIP3    H244341   5.219   2.288   4.286
14800TIP3   OH244342   2.900   3.991   3.857
14800TIP3    H144343   2.873   4.011   3.767
14800TIP3    H244344   2.951   4.067   3.884
14801TIP3   OH244345   1.402   1.834   1.128
14801TIP3    H144346   1.369   1.911   1.082
14801TIP3    H244347   1.343   1.824   1.203
14802TIP3   OH244348   6.353   3.453   2.030
14802TIP3    H144349   6.445   3.450   2.056
14802TIP3    H244350   6.307   3.486   2.107
14803TIP3   OH244351   1.198   7.428   1.137
14803TIP3    H144352   1.255   7.354   1.153
14803TIP3    H244353   1.129   7.420   1.203
14804TIP3   OH244354   1.314   5.683   6.150
14804TIP3    H144355   1.257   5.607   6.160
14804TIP3    H244356   1.309   5.704   6.056
14805TIP3   OH244357   1.667   3.896   0.348
14805TIP3    H144358   1.627   3.970   0.304
14805TIP3    H244359   1.689   3.929   0.436
14806TIP3   OH244360   0.297   6.865   0.636
14806TIP3    H144361   0.239   6.919   0.690
14806TIP3    H244362   0.327   6.796   0.695
14807TIP3   OH244363   5.026   6.154   3.612
14807TIP3    H144364   4.983   6.196   3.537
14807TIP3    H244365   4.954   6.127   3.669
14808TIP3   OH244366   6.802   6.271   5.126
14808TIP3    H144367   6.815   6.336   5.195
14808TIP3    H244368   6.888   6.263   5.085
14809TIP3   OH244369   5.752   7.111   4.396
14809TIP3    H144370   5.781   7.104   4.488
14809TIP3    H244371   5.823   7.158   4.352
14810TIP3   OH244372   7.820   4.148   1.933
14810TIP3    H144373   7.775   4.065   1.947
14810TIP3    H244374   7.899   4.143   1.987
14811TIP3   OH244375   1.219   7.669   4.703
14811TIP3    H144376   1.237   7.585   4.662
14811TIP3    H244377   1.179   7.648   4.787
14812TIP3   OH244378   3.932   3.953   3.511
14812TIP3    H144379   4.009   3.951   3.454
14812TIP3    H244380   3.934   4.039   3.552
14813TIP3   OH244381   6.615   3.805   1.038
14813TIP3    H144382   6.651   3.733   0.987
14813TIP3    H244383   6.537   3.833   0.990
14814TIP3   OH244384   1.992   6.907   2.485
14814TIP3    H144385   1.922   6.972   2.491
14814TIP3    H244386   1.950   6.825   2.513
14815TIP3   OH244387   1.315   7.003   2.553
14815TIP3    H144388   1.289   7.018   2.462
14815TIP3    H244389   1.313   7.090   2.593
14816TIP3   OH244390   6.458   1.836   3.806
14816TIP3    H144391   6.463   1.809   3.898
14816TIP3    H244392   6.368   1.818   3.780
14817TIP3   OH244393   0.834   7.379   4.544
14817TIP3    H144394   0.843   7.467   4.579
14817TIP3    H244395   0.867   7.386   4.454
14818TIP3   OH244396   4.543   2.382   4.335
14818TIP3    H144397   4.535   2.353   4.244
14818TIP3    H244398   4.637   2.377   4.354
14819TIP3   OH244399   4.152   0.752   3.282
14819TIP3    H144400   4.161   0.792   3.195
14819TIP3    H244401   4.135   0.659   3.264
14820TIP3   OH244402   2.191   4.237   0.321
14820TIP3    H144403   2.127   4.200   0.381
14820TIP3    H244404   2.166   4.329   0.313
14821TIP3   OH244405   2.689   6.243   3.189
14821TIP3    H144406   2.618   6.261   3.252
14821TIP3    H244407   2.756   6.307   3.211
14822TIP3   OH244408   2.561   6.599   2.942
14822TIP3    H144409   2.638   6.635   2.986
14822TIP3    H244410   2.560   6.642   2.856
14823TIP3   OH244411   0.497   5.632   2.389
14823TIP3    H144412   0.494   5.709   2.333
14823TIP3    H244413   0.589   5.605   2.389
14824TIP3   OH244414   1.098   0.768   3.998
14824TIP3    H144415   1.067   0.696   3.943
14824TIP3    H244416   1.185   0.788   3.965
14825TIP3   OH244417   2.870   0.612   4.627
14825TIP3    H144418   2.809   0.544   4.655
14825TIP3    H244419   2.881   0.597   4.533
14826TIP3   OH244420   6.966   1.670   3.038
14826TIP3    H144421   6.902   1.731   3.074
14826TIP3    H244422   6.989   1.613   3.111
14827TIP3   OH244423   6.631   3.414   1.982
14827TIP3    H144424   6.717   3.413   2.023
14827TIP3    H244425   6.643   3.466   1.902
14828TIP3   OH244426   3.363   0.777   4.852
14828TIP3    H144427   3.302   0.775   4.779
14828TIP3    H244428   3.343   0.697   4.902
14829TIP3   OH244429   3.533   1.578   1.554
14829TIP3    H144430   3.508   1.507   1.613
14829TIP3    H244431   3.453   1.597   1.505
14830TIP3   OH244432   5.310   5.210   3.869
14830TIP3    H144433   5.257   5.165   3.803
14830TIP3    H244434   5.315   5.149   3.942
   8.31200   7.83663   6.78672   0.00000   0.00000  -2.77066   0.00000  -2.77066  -3.91831
